<event>
 7    1  0.2943257E-009  0.1380509E+03  0.7561462E-02  0.1215976E+00
          1   -1    0    0  501    0  0.00000000000E+00  0.00000000000E+00  0.13416153417E+04  0.13416153417E+04  0.00000000000E+00 0. -1.
         -1   -1    0    0    0  501 -0.00000000000E+00 -0.00000000000E+00 -0.22722241477E+02  0.22722241477E+02  0.00000000000E+00 0.  1.
         25    2    1    2    0    0  0.86204085936E+02  0.72454665890E+02  0.99389744958E+03  0.10080479724E+04  0.12509097233E+03 0.  0.
          5    1    3    3  502    0  0.10875662611E+03  0.30464284865E+02  0.54419083869E+03  0.55580321850E+03  0.41800000000E+01 0. -1.
         -5    1    3    3    0  502 -0.22552540169E+02  0.41990381025E+02  0.44970661089E+03  0.45224475391E+03  0.41800000000E+01 0. -1.
        -11    1    1    2    0    0 -0.30626819891E+02 -0.41629704744E+02  0.26111290191E+03  0.26617847763E+03  0.00000000000E+00 0. -1.
         11    1    1    2    0    0 -0.55577266045E+02 -0.30824961146E+02  0.63882748780E+02  0.90111133177E+02  0.00000000000E+00 0.  1.
</event>
<event>
 7    1  0.2943257E-009  0.1375148E+03  0.7561462E-02  0.1216713E+00
          1   -1    0    0  501    0  0.00000000000E+00  0.00000000000E+00  0.12960530517E+03  0.12960530517E+03  0.00000000000E+00 0. -1.
         -1   -1    0    0    0  501 -0.00000000000E+00 -0.00000000000E+00 -0.21064785381E+03  0.21064785381E+03  0.00000000000E+00 0.  1.
         25    2    1    2    0    0 -0.85152233485E+02 -0.33430087906E+02  0.42473136253E+02  0.16068413240E+03  0.12508776702E+03 0.  0.
          5    1    3    3  502    0 -0.50408500969E+02  0.45851130994E+02  0.16949490227E+02  0.70342738093E+02  0.41800000000E+01 0.  1.
         -5    1    3    3    0  502 -0.34743732516E+02 -0.79281218900E+02  0.25523646026E+02  0.90341394310E+02  0.41800000000E+01 0.  1.
        -11    1    1    2    0    0  0.51418037242E+02 -0.21422970374E+02 -0.92773376204E+02  0.10821117108E+03  0.00000000000E+00 0.  1.
         11    1    1    2    0    0  0.33734196242E+02  0.54853058280E+02 -0.30742308684E+02  0.71357855503E+02  0.00000000000E+00 0. -1.
</event>
<event>
 7    1  0.2943257E-009  0.1358115E+03  0.7561462E-02  0.1219079E+00
         -1   -1    0    0    0  501 -0.00000000000E+00  0.00000000000E+00  0.11020229740E+04  0.11020229740E+04  0.00000000000E+00 0.  1.
          1   -1    0    0  501    0  0.00000000000E+00 -0.00000000000E+00 -0.26748532943E+02  0.26748532943E+02  0.00000000000E+00 0. -1.
         25    2    1    2    0    0  0.98548189614E+02  0.41273146497E+01  0.86233396652E+03  0.87692919785E+03  0.12512460913E+03 0.  0.
          5    1    3    3  502    0 -0.18402945567E+02 -0.26761416409E+02  0.29602995479E+03  0.29783560625E+03  0.41800000000E+01 0.  1.
         -5    1    3    3    0  502  0.11695113518E+03  0.30888731059E+02  0.56630401173E+03  0.57909359160E+03  0.41800000000E+01 0.  1.
        -11    1    1    2    0    0 -0.71854339969E+02 -0.32521479146E+02  0.19207178863E+03  0.20763493147E+03  0.00000000000E+00 0.  1.
         11    1    1    2    0    0 -0.26693849645E+02  0.28394164497E+02  0.20868685920E+02  0.44207377646E+02  0.00000000000E+00 0. -1.
</event>
<event>
 7    1  0.2943257E-009  0.1273209E+03  0.7561462E-02  0.1231486E+00
         -1   -1    0    0    0  501 -0.00000000000E+00  0.00000000000E+00  0.61071701549E+03  0.61071701549E+03  0.00000000000E+00 0.  1.
          1   -1    0    0  501    0  0.00000000000E+00 -0.00000000000E+00 -0.40423979046E+02  0.40423979046E+02  0.00000000000E+00 0. -1.
         25    2    1    2    0    0  0.80431393850E+02 -0.62344260841E+02  0.40367207565E+03  0.43468809776E+03  0.12508629699E+03 0.  0.
          5    1    3    3  502    0  0.98084566459E+02 -0.11691275699E+02  0.32241205588E+03  0.33723029858E+03  0.41800000000E+01 0.  1.
         -5    1    3    3    0  502 -0.17653172609E+02 -0.50652985143E+02  0.81260019772E+02  0.97457799177E+02  0.41800000000E+01 0.  1.
        -11    1    1    2    0    0 -0.43073049248E+02  0.37459774207E+02  0.15996805500E+02  0.59282544154E+02  0.00000000000E+00 0. -1.
         11    1    1    2    0    0 -0.37358344602E+02  0.24884486635E+02  0.15062415529E+03  0.15717035262E+03  0.00000000000E+00 0.  1.
</event>
<event>
 7    1  0.2943257E-009  0.1390827E+03  0.7561462E-02  0.1214569E+00
          2   -1    0    0  501    0  0.00000000000E+00  0.00000000000E+00  0.90423674940E+03  0.90423674940E+03  0.00000000000E+00 0.  1.
         -2   -1    0    0    0  501 -0.00000000000E+00 -0.00000000000E+00 -0.30111732614E+02  0.30111732614E+02  0.00000000000E+00 0. -1.
         25    2    1    2    0    0 -0.10011905246E+03  0.47573815933E+02  0.62083946367E+03  0.64294264541E+03  0.12508602241E+03 0.  0.
          5    1    3    3  502    0 -0.60068406511E+02  0.89306633018E+02  0.44204840353E+03  0.45498148493E+03  0.41800000000E+01 0. -1.
         -5    1    3    3    0  502 -0.40050645948E+02 -0.41732817085E+02  0.17879106014E+03  0.18796116048E+03  0.41800000000E+01 0. -1.
        -11    1    1    2    0    0  0.42912062411E+02 -0.30887105123E+02  0.21302729347E+03  0.21949051489E+03  0.00000000000E+00 0.  1.
         11    1    1    2    0    0  0.57206990047E+02 -0.16686710811E+02  0.40258259638E+02  0.71915321712E+02  0.00000000000E+00 0. -1.
</event>
<event>
 6    1  0.2943257E-009  0.8777658E+02  0.7561462E-02  0.1308327E+00
         -2   -1    0    0    0  501 -0.00000000000E+00  0.00000000000E+00  0.23281640022E+02  0.23281640022E+02  0.00000000000E+00 0. -1.
          2   -1    0    0  501    0  0.00000000000E+00 -0.00000000000E+00 -0.84480396418E+03  0.84480396418E+03  0.00000000000E+00 0.  1.
          5    1    1    2  502    0 -0.43037646425E+02  0.37288337289E+02 -0.15326986060E+03  0.16355971899E+03  0.41800000000E+01 0. -1.
         -5    1    1    2    0  502  0.44462781559E+02 -0.14053299879E+00 -0.54067335328E+03  0.54251461367E+03  0.41800000000E+01 0. -1.
        -11    1    1    2    0    0 -0.28638014359E+02 -0.11379277397E+01 -0.10983492024E+03  0.11351273255E+03  0.00000000000E+00 0.  1.
         11    1    1    2    0    0  0.27212879225E+02 -0.36009876551E+02 -0.17744190035E+02  0.48498538997E+02  0.00000000000E+00 0. -1.
</event>
<event>
 7    1  0.2943257E-009  0.9693492E+02  0.7561462E-02  0.1286877E+00
         -2   -1    0    0    0  501 -0.00000000000E+00  0.00000000000E+00  0.11862723645E+03  0.11862723645E+03  0.00000000000E+00 0.  1.
          2   -1    0    0  501    0  0.00000000000E+00 -0.00000000000E+00 -0.14761303729E+03  0.14761303729E+03  0.00000000000E+00 0. -1.
         25    2    1    2    0    0  0.32900894660E+02  0.56108765358E+02 -0.18583496205E+02  0.14222458396E+03  0.12510724812E+03 0.  0.
          5    1    3    3  502    0  0.52266116682E+02  0.60296942095E+02 -0.57439759292E+02  0.98408670992E+02  0.41800000000E+01 0. -1.
         -5    1    3    3    0  502 -0.19365222022E+02 -0.41881767373E+01  0.38856263087E+02  0.43815912970E+02  0.41800000000E+01 0. -1.
        -11    1    1    2    0    0  0.88047637044E+01 -0.50934061235E+02 -0.45806020476E+02  0.69065142943E+02  0.00000000000E+00 0. -1.
         11    1    1    2    0    0 -0.41705658364E+02 -0.51747041221E+01  0.35403715834E+02  0.54950546832E+02  0.00000000000E+00 0.  1.
</event>
<event>
 7    1  0.2943257E-009  0.1219524E+03  0.7561462E-02  0.1239910E+00
         -1   -1    0    0    0  501 -0.00000000000E+00  0.00000000000E+00  0.33373233244E+02  0.33373233244E+02  0.00000000000E+00 0.  1.
          1   -1    0    0  501    0  0.00000000000E+00 -0.00000000000E+00 -0.52919767335E+03  0.52919767335E+03  0.00000000000E+00 0. -1.
         25    2    1    2    0    0 -0.11287520957E+02 -0.76320356581E+02 -0.27152081272E+03  0.30874375748E+03  0.12508777353E+03 0.  0.
          5    1    3    3  502    0  0.24599621189E+02 -0.94152270356E+02 -0.23491428956E+03  0.25430687607E+03  0.41800000000E+01 0. -1.
         -5    1    3    3    0  502 -0.35887142146E+02  0.17831913775E+02 -0.36606523154E+02  0.54436881411E+02  0.41800000000E+01 0. -1.
        -11    1    1    2    0    0 -0.31283394565E+02  0.31414238689E+02 -0.41093521124E+02  0.60449835784E+02  0.00000000000E+00 0.  1.
         11    1    1    2    0    0  0.42570915523E+02  0.44906117892E+02 -0.18321010627E+03  0.19337731333E+03  0.00000000000E+00 0. -1.
</event>
<event>
 7    1  0.2943257E-009  0.1059610E+03  0.7561462E-02  0.1268238E+00
         -2   -1    0    0    0  501 -0.00000000000E+00  0.00000000000E+00  0.39294709235E+02  0.39294709235E+02  0.00000000000E+00 0.  1.
          2   -1    0    0  501    0  0.00000000000E+00 -0.00000000000E+00 -0.44335755549E+03  0.44335755549E+03  0.00000000000E+00 0. -1.
         25    2    1    2    0    0 -0.27871192916E+02  0.30768169728E+02 -0.34128018260E+03  0.36584537654E+03  0.12508873984E+03 0.  0.
          5    1    3    3  502    0  0.39676127881E+02  0.23156807322E+02 -0.23594431909E+03  0.24041137028E+03  0.41800000000E+01 0. -1.
         -5    1    3    3    0  502 -0.67547320797E+02  0.76113624064E+01 -0.10533586351E+03  0.12543400626E+03  0.41800000000E+01 0. -1.
        -11    1    1    2    0    0  0.20149073960E+02  0.30161478203E+02 -0.30670959028E+02  0.47501659725E+02  0.00000000000E+00 0.  1.
         11    1    1    2    0    0  0.77221189562E+01 -0.60929647932E+02 -0.32111704625E+02  0.69305228462E+02  0.00000000000E+00 0. -1.
</event>
<event>
 7    1  0.3778279E-009  0.9519568E+02  0.7561462E-02  0.1290736E+00
         -2   -1    0    0    0  501 -0.00000000000E+00  0.00000000000E+00  0.27158455361E+03  0.27158455361E+03  0.00000000000E+00 0. -1.
          2   -1    0    0  501    0  0.00000000000E+00 -0.00000000000E+00 -0.58853971309E+02  0.58853971309E+02  0.00000000000E+00 0.  1.
         25    2    1    2    0    0 -0.37554735377E+02  0.29032755823E+02  0.61653607643E+02  0.14731462546E+03  0.12508865847E+03 0.  0.
          5    1    3    3  502    0 -0.82837874640E+02  0.18375137344E+02  0.52044513816E+02  0.99628625232E+02  0.41800000000E+01 0.  1.
         -5    1    3    3    0  502  0.45283139263E+02  0.10657618479E+02  0.96090938276E+01  0.47686000224E+02  0.41800000000E+01 0.  1.
        -11    1    1    2    0    0  0.85329852285E+01 -0.28449538292E+02  0.42892802167E+00  0.29704747856E+02  0.00000000000E+00 0.  1.
         11    1    1    2    0    0  0.29021750149E+02 -0.58321753053E+00  0.15064804664E+03  0.15341915161E+03  0.00000000000E+00 0. -1.
</event>
<event>
 7    1  0.2943257E-009  0.2060491E+03  0.7561462E-02  0.1144733E+00
         -1   -1    0    0    0  501 -0.00000000000E+00  0.00000000000E+00  0.32535917573E+02  0.32535917573E+02  0.00000000000E+00 0.  1.
          1   -1    0    0  501    0  0.00000000000E+00 -0.00000000000E+00 -0.19365002788E+04  0.19365002788E+04  0.00000000000E+00 0. -1.
         25    2    1    2    0    0  0.12485754062E+03  0.13685536964E+03 -0.14275265335E+04  0.14449216218E+04  0.12509073372E+03 0.  0.
          5    1    3    3  502    0  0.10267275687E+03  0.68855715165E+02 -0.12005396738E+04  0.12068951012E+04  0.41800000000E+01 0. -1.
         -5    1    3    3    0  502  0.22184783755E+02  0.67999654473E+02 -0.22698685972E+03  0.23802652063E+03  0.41800000000E+01 0. -1.
        -11    1    1    2    0    0 -0.24382638826E+02 -0.11011522873E+03 -0.21557594588E+03  0.24329583868E+03  0.00000000000E+00 0.  1.
         11    1    1    2    0    0 -0.10047490179E+03 -0.26740140904E+02 -0.26086188182E+03  0.28081873587E+03  0.00000000000E+00 0. -1.
</event>
<event>
 7    1  0.3676044E-009  0.1095955E+03  0.7561462E-02  0.1261321E+00
         -1   -1    0    0    0  501 -0.00000000000E+00  0.00000000000E+00  0.55399777506E+02  0.55399777506E+02  0.00000000000E+00 0.  1.
          1   -1    0    0  501    0  0.00000000000E+00 -0.00000000000E+00 -0.31858746343E+03  0.31858746343E+03  0.00000000000E+00 0. -1.
         25    2    1    2    0    0 -0.82678992589E+00 -0.68559879846E+02 -0.19230445379E+03  0.23943753029E+03  0.12509271465E+03 0.  0.
          5    1    3    3  502    0 -0.31725119449E+02  0.24146497707E+02 -0.86571220026E+02  0.95402227921E+02  0.41800000000E+01 0. -1.
         -5    1    3    3    0  502  0.30898329524E+02 -0.92706377553E+02 -0.10573323376E+03  0.14403530237E+03  0.41800000000E+01 0. -1.
        -11    1    1    2    0    0  0.22158852109E+02  0.38741784853E+02  0.10006448462E+02  0.45739147687E+02  0.00000000000E+00 0.  1.
         11    1    1    2    0    0 -0.21332062183E+02  0.29818094993E+02 -0.80889680604E+02  0.88810562965E+02  0.00000000000E+00 0. -1.
</event>
<event>
 7    1  0.3432750E-009  0.9032855E+02  0.7561462E-02  0.1302058E+00
         -2   -1    0    0    0  501 -0.00000000000E+00  0.00000000000E+00  0.13769134646E+03  0.13769134646E+03  0.00000000000E+00 0.  1.
          2   -1    0    0  501    0  0.00000000000E+00 -0.00000000000E+00 -0.10637939248E+03  0.10637939248E+03  0.00000000000E+00 0. -1.
         25    2    1    2    0    0  0.53274126587E+02 -0.19092329223E+01  0.22028237560E+02  0.13775387860E+03  0.12509640317E+03 0.  0.
          5    1    3    3  502    0  0.55698046757E+01 -0.46262747294E+02  0.48437447734E+02  0.67341838809E+02  0.41800000000E+01 0.  1.
         -5    1    3    3    0  502  0.47704321912E+02  0.44353514371E+02 -0.26409210174E+02  0.70412039796E+02  0.41800000000E+01 0.  1.
        -11    1    1    2    0    0 -0.42777716019E+02  0.20358551942E+02  0.44630301937E+02  0.65086615183E+02  0.00000000000E+00 0.  1.
         11    1    1    2    0    0 -0.10496410568E+02 -0.18449319020E+02 -0.35346585515E+02  0.41230245144E+02  0.00000000000E+00 0. -1.
</event>
<event>
 7    1  0.2943257E-009  0.1111024E+03  0.7561462E-02  0.1258542E+00
         -2   -1    0    0    0  501 -0.00000000000E+00  0.00000000000E+00  0.21925338236E+02  0.21925338236E+02  0.00000000000E+00 0.  1.
          2   -1    0    0  501    0  0.00000000000E+00 -0.00000000000E+00 -0.70585583408E+03  0.70585583408E+03  0.00000000000E+00 0. -1.
         25    2    1    2    0    0  0.62384022534E+01  0.50918315632E+02 -0.47747802691E+03  0.49624572306E+03  0.12507181515E+03 0.  0.
          5    1    3    3  502    0  0.12812088402E+02  0.89249212181E+02 -0.25858582411E+03  0.27388623973E+03  0.41800000000E+01 0. -1.
         -5    1    3    3    0  502 -0.65736861489E+01 -0.38330896548E+02 -0.21889220280E+03  0.22235948333E+03  0.41800000000E+01 0. -1.
        -11    1    1    2    0    0 -0.29424709893E+02  0.71689317896E+01 -0.23942384681E+02  0.38606280830E+02  0.00000000000E+00 0.  1.
         11    1    1    2    0    0  0.23186307639E+02 -0.58087247422E+02 -0.18251008425E+03  0.19292916843E+03  0.00000000000E+00 0. -1.
</event>
<event>
 7    1  0.2943257E-009  0.9538326E+02  0.7561462E-02  0.1290315E+00
         -1   -1    0    0    0  501 -0.00000000000E+00  0.00000000000E+00  0.32319268223E+02  0.32319268223E+02  0.00000000000E+00 0.  1.
          1   -1    0    0  501    0  0.00000000000E+00 -0.00000000000E+00 -0.40156397643E+03  0.40156397643E+03  0.00000000000E+00 0. -1.
         25    2    1    2    0    0 -0.22927881138E+02 -0.27993832687E+02 -0.21387116665E+03  0.25039430416E+03  0.12508832571E+03 0.  0.
          5    1    3    3  502    0 -0.62765836441E+02 -0.11524603917E+02 -0.19098772807E+03  0.20141040538E+03  0.41800000000E+01 0.  1.
         -5    1    3    3    0  502  0.39837955302E+02 -0.16469228770E+02 -0.22883438576E+02  0.48983898783E+02  0.41800000000E+01 0.  1.
        -11    1    1    2    0    0  0.16352831188E+02  0.54134044135E+02 -0.52571259769E+02  0.77211703621E+02  0.00000000000E+00 0.  1.
         11    1    1    2    0    0  0.65750499498E+01 -0.26140211448E+02 -0.10280228179E+03  0.10627723687E+03  0.00000000000E+00 0. -1.
</event>
<event>
 7    1  0.2988725E-009  0.1524578E+03  0.7561462E-02  0.1197485E+00
         -2   -1    0    0    0  501 -0.00000000000E+00  0.00000000000E+00  0.10207665054E+03  0.10207665054E+03  0.00000000000E+00 0.  1.
          2   -1    0    0  501    0  0.00000000000E+00 -0.00000000000E+00 -0.36200419461E+03  0.36200419461E+03  0.00000000000E+00 0. -1.
         25    2    1    2    0    0 -0.96860641358E+02  0.99972328539E+02 -0.45084148566E+02  0.19250118682E+03  0.12509067174E+03 0.  0.
          5    1    3    3  502    0 -0.37178580840E+02  0.99002042869E+02  0.15948035378E+02  0.10703019947E+03  0.41800000000E+01 0. -1.
         -5    1    3    3    0  502 -0.59682060518E+02  0.97028566957E+00 -0.61032183945E+02  0.85470987353E+02  0.41800000000E+01 0. -1.
        -11    1    1    2    0    0  0.37085034149E+02 -0.35825348026E+02 -0.15559473555E+02  0.53859563091E+02  0.00000000000E+00 0.  1.
         11    1    1    2    0    0  0.59775607209E+02 -0.64146980512E+02 -0.19928392194E+03  0.21772009524E+03  0.00000000000E+00 0. -1.
</event>
<event>
 7    1  0.2943257E-009  0.6136014E+02  0.7561462E-02  0.1392211E+00
          1   -1    0    0  501    0  0.00000000000E+00  0.00000000000E+00  0.12743725730E+04  0.12743725730E+04  0.00000000000E+00 0. -1.
         -1   -1    0    0    0  501 -0.00000000000E+00 -0.00000000000E+00 -0.27014316877E+02  0.27014316877E+02  0.00000000000E+00 0.  1.
         25    2    1    2    0    0 -0.33706105911E+02 -0.39376837558E+02  0.12276827368E+04  0.12351273520E+04  0.12509211290E+03 0.  0.
          5    1    3    3  502    0 -0.15647283962E+02 -0.38490453042E+02  0.11596329204E+03  0.12325303230E+03  0.41800000000E+01 0. -1.
         -5    1    3    3    0  502 -0.18058821949E+02 -0.88638451653E+00  0.11117194447E+04  0.11118743197E+04  0.41800000000E+01 0. -1.
        -11    1    1    2    0    0  0.12813673755E+02 -0.46820147347E+01  0.89989096176E+01  0.16342945616E+02  0.00000000000E+00 0. -1.
         11    1    1    2    0    0  0.20892432156E+02  0.44058852293E+02  0.10676609791E+02  0.49916592265E+02  0.00000000000E+00 0.  1.
</event>
<event>
 7    1  0.2943257E-009  0.1373158E+03  0.7561462E-02  0.1216987E+00
          2   -1    0    0  501    0  0.00000000000E+00  0.00000000000E+00  0.80962876569E+03  0.80962876569E+03  0.00000000000E+00 0. -1.
         -2   -1    0    0    0  501 -0.00000000000E+00 -0.00000000000E+00 -0.26887437771E+02  0.26887437771E+02  0.00000000000E+00 0.  1.
         25    2    1    2    0    0 -0.40328243521E+02 -0.74709054206E+02  0.56823512707E+03  0.58799300562E+03  0.12504721112E+03 0.  0.
          5    1    3    3  502    0  0.39279297875E+02 -0.55056762853E+02  0.21938721144E+03  0.22961343890E+03  0.41800000000E+01 0. -1.
         -5    1    3    3    0  502 -0.79607541396E+02 -0.19652291353E+02  0.34884791563E+03  0.35837956672E+03  0.41800000000E+01 0. -1.
        -11    1    1    2    0    0  0.13984367887E+02 -0.21149036731E+02  0.55183721116E+02  0.60729625193E+02  0.00000000000E+00 0.  1.
         11    1    1    2    0    0  0.26343875634E+02  0.95858090937E+02  0.15932247973E+03  0.18779357265E+03  0.00000000000E+00 0. -1.
</event>
<event>
 7    1  0.2943257E-009  0.1170686E+03  0.7561462E-02  0.1248013E+00
          2   -1    0    0  501    0  0.00000000000E+00  0.00000000000E+00  0.29214503120E+03  0.29214503120E+03  0.00000000000E+00 0.  1.
         -2   -1    0    0    0  501 -0.00000000000E+00 -0.00000000000E+00 -0.83147960955E+02  0.83147960955E+02  0.00000000000E+00 0. -1.
         25    2    1    2    0    0  0.55260213023E+02 -0.80244002988E+02  0.45164880578E+02  0.16486262178E+03  0.12508807482E+03 0.  0.
          5    1    3    3  502    0 -0.88206069342E+01 -0.32599873164E+02  0.72718699120E+02  0.80287212174E+02  0.41800000000E+01 0. -1.
         -5    1    3    3    0  502  0.64080819957E+02 -0.47644129825E+02 -0.27553818542E+02  0.84575409602E+02  0.41800000000E+01 0. -1.
        -11    1    1    2    0    0 -0.37078007656E+02  0.91524041631E+02  0.16096568240E+03  0.18884220863E+03  0.00000000000E+00 0.  1.
         11    1    1    2    0    0 -0.18182205367E+02 -0.11280038643E+02  0.28665072629E+01  0.21588161749E+02  0.00000000000E+00 0. -1.
</event>
<event>
 7    1  0.2943257E-009  0.1055129E+03  0.7561462E-02  0.1269112E+00
         -2   -1    0    0    0  501 -0.00000000000E+00  0.00000000000E+00  0.20168312832E+03  0.20168312832E+03  0.00000000000E+00 0. -1.
          2   -1    0    0  501    0  0.00000000000E+00 -0.00000000000E+00 -0.78152223083E+02  0.78152223083E+02  0.00000000000E+00 0.  1.
         25    2    1    2    0    0  0.20694565859E+02  0.56066758131E+02  0.47670221925E+02  0.14660579179E+03  0.12509620979E+03 0.  0.
          5    1    3    3  502    0  0.94077279660E+01 -0.32769013308E+02 -0.14736181491E+02  0.37375674222E+02  0.41800000000E+01 0. -1.
         -5    1    3    3    0  502  0.11286837893E+02  0.88835771438E+02  0.62406403415E+02  0.10923011757E+03  0.41800000000E+01 0. -1.
        -11    1    1    2    0    0  0.98930374535E+01  0.10098622940E+02  0.55889541092E+02  0.57649763042E+02  0.00000000000E+00 0. -1.
         11    1    1    2    0    0 -0.30587603313E+02 -0.66165381071E+02  0.19971142225E+02  0.75579796576E+02  0.00000000000E+00 0.  1.
</event>
<event>
 7    1  0.3278936E-009  0.5188882E+02  0.7561462E-02  0.1435412E+00
         -1   -1    0    0    0  501 -0.00000000000E+00  0.00000000000E+00  0.21133883538E+03  0.21133883538E+03  0.00000000000E+00 0.  1.
          1   -1    0    0  501    0  0.00000000000E+00 -0.00000000000E+00 -0.70470098429E+02  0.70470098429E+02  0.00000000000E+00 0. -1.
         25    2    1    2    0    0 -0.30773748534E+02 -0.22469402874E+02  0.12938268749E+03  0.18395541270E+03  0.12509123221E+03 0.  0.
          5    1    3    3  502    0  0.40972622684E+01 -0.28097869486E+02  0.14301288811E+03  0.14586444527E+03  0.41800000000E+01 0.  1.
         -5    1    3    3    0  502 -0.34871010803E+02  0.56284666119E+01 -0.13630200622E+02  0.38090967431E+02  0.41800000000E+01 0.  1.
        -11    1    1    2    0    0  0.98545262743E+01  0.13578494823E+02 -0.39016839555E+02  0.42471178211E+02  0.00000000000E+00 0. -1.
         11    1    1    2    0    0  0.20919222260E+02  0.88909080513E+01  0.50502889019E+02  0.55382342901E+02  0.00000000000E+00 0.  1.
</event>
<event>
 7    1  0.2943257E-009  0.1148607E+03  0.7561462E-02  0.1251824E+00
         -1   -1    0    0    0  501 -0.00000000000E+00  0.00000000000E+00  0.14274729961E+02  0.14274729961E+02  0.00000000000E+00 0.  1.
          1   -1    0    0  501    0  0.00000000000E+00 -0.00000000000E+00 -0.10030514747E+04  0.10030514747E+04  0.00000000000E+00 0. -1.
         25    2    1    2    0    0 -0.27769277235E+02  0.42406327733E+02 -0.57653230376E+03  0.59211686660E+03  0.12507380639E+03 0.  0.
          5    1    3    3  502    0  0.42271960282E+02 -0.55066306346E+01 -0.11266689578E+03  0.12053440758E+03  0.41800000000E+01 0. -1.
         -5    1    3    3    0  502 -0.70041237517E+02  0.47912958367E+02 -0.46386540799E+03  0.47158245902E+03  0.41800000000E+01 0. -1.
        -11    1    1    2    0    0  0.60030682261E+02 -0.31990289362E+02 -0.23039200955E+03  0.24022393613E+03  0.00000000000E+00 0.  1.
         11    1    1    2    0    0 -0.32261405026E+02 -0.10416038370E+02 -0.18185243144E+03  0.18498540194E+03  0.00000000000E+00 0. -1.
</event>
<event>
 7    1  0.2943257E-009  0.9802277E+02  0.7561462E-02  0.1284510E+00
         -2   -1    0    0    0  501 -0.00000000000E+00  0.00000000000E+00  0.43160492181E+03  0.43160492181E+03  0.00000000000E+00 0. -1.
          2   -1    0    0  501    0  0.00000000000E+00 -0.00000000000E+00 -0.45104966034E+02  0.45104966034E+02  0.00000000000E+00 0.  1.
         25    2    1    2    0    0 -0.83089257294E+02 -0.25748051055E+02  0.23257556834E+03  0.27803574422E+03  0.12508274566E+03 0.  0.
          5    1    3    3  502    0 -0.58689096843E+02 -0.39355572664E+01  0.23746838036E+03  0.24468061380E+03  0.41800000000E+01 0.  1.
         -5    1    3    3    0  502 -0.24400160451E+02 -0.21812493788E+02 -0.48928120232E+01  0.33355130412E+02  0.41800000000E+01 0.  1.
        -11    1    1    2    0    0  0.81304009378E+02  0.39376278726E+02  0.15992563078E+03  0.18367645643E+03  0.00000000000E+00 0. -1.
         11    1    1    2    0    0  0.17852479167E+01 -0.13628227672E+02 -0.60012433427E+01  0.14997687197E+02  0.00000000000E+00 0.  1.
</event>
<event>
 7    1  0.2943257E-009  0.1633852E+03  0.7561462E-02  0.1184927E+00
          1   -1    0    0  501    0  0.00000000000E+00  0.00000000000E+00  0.16809441390E+03  0.16809441390E+03  0.00000000000E+00 0. -1.
         -1   -1    0    0    0  501 -0.00000000000E+00 -0.00000000000E+00 -0.20237567178E+03  0.20237567178E+03  0.00000000000E+00 0.  1.
         25    2    1    2    0    0 -0.14301823547E+03 -0.37011470587E+02 -0.29886803713E+02  0.19586821865E+03  0.12508826247E+03 0.  0.
          5    1    3    3  502    0 -0.13157451627E+03 -0.15104338318E+02 -0.69013935490E+02  0.14940010060E+03  0.41800000000E+01 0.  1.
         -5    1    3    3    0  502 -0.11443719200E+02 -0.21907132269E+02  0.39127131777E+02  0.46468118043E+02  0.41800000000E+01 0.  1.
        -11    1    1    2    0    0 -0.95013005158E+01 -0.53523921366E+01 -0.11886316233E+02  0.16130943142E+02  0.00000000000E+00 0.  1.
         11    1    1    2    0    0  0.15251953599E+03  0.42363862723E+02  0.74918620677E+01  0.15847092390E+03  0.00000000000E+00 0. -1.
</event>
<event>
 7    1  0.2943257E-009  0.1305890E+03  0.7561462E-02  0.1226584E+00
          1   -1    0    0  501    0  0.00000000000E+00  0.00000000000E+00  0.66066987655E+02  0.66066987655E+02  0.00000000000E+00 0. -1.
         -1   -1    0    0    0  501 -0.00000000000E+00 -0.00000000000E+00 -0.37872901433E+03  0.37872901433E+03  0.00000000000E+00 0.  1.
         25    2    1    2    0    0  0.10824969735E+03 -0.35693658367E+02 -0.15963052747E+03  0.23263587738E+03  0.12508202076E+03 0.  0.
          5    1    3    3  502    0 -0.11175399192E+02 -0.12148103746E+02 -0.91517378444E+02  0.93087963395E+02  0.41800000000E+01 0. -1.
         -5    1    3    3    0  502  0.11942509654E+03 -0.23545554620E+02 -0.68113149027E+02  0.13954791398E+03  0.41800000000E+01 0. -1.
        -11    1    1    2    0    0 -0.37419564757E+02 -0.91502632410E+01 -0.11275588828E+03  0.11915469561E+03  0.00000000000E+00 0.  1.
         11    1    1    2    0    0 -0.70830132593E+02  0.44843921608E+02 -0.40275610927E+02  0.93005429002E+02  0.00000000000E+00 0. -1.
</event>
<event>
 7    1  0.2943257E-009  0.1660230E+03  0.7561462E-02  0.1182060E+00
          1   -1    0    0  501    0  0.00000000000E+00  0.00000000000E+00  0.18653059008E+03  0.18653059008E+03  0.00000000000E+00 0. -1.
         -1   -1    0    0    0  501 -0.00000000000E+00 -0.00000000000E+00 -0.14875023717E+03  0.14875023717E+03  0.00000000000E+00 0.  1.
         25    2    1    2    0    0 -0.54920760986E+02 -0.11520865840E+03  0.23526496008E+02  0.18025083493E+03  0.12509013758E+03 0.  0.
          5    1    3    3  502    0  0.47648181982E+01  0.25230249299E+02  0.48025895448E+01  0.26453851108E+02  0.41800000000E+01 0.  1.
         -5    1    3    3    0  502 -0.59685579185E+02 -0.14043890770E+03  0.18723906463E+02  0.15379698382E+03  0.41800000000E+01 0.  1.
        -11    1    1    2    0    0  0.61120876079E+02  0.30254887896E+02  0.15079202808E+02  0.69846274715E+02  0.00000000000E+00 0.  1.
         11    1    1    2    0    0 -0.62001150926E+01  0.84953770504E+02 -0.82534590645E+00  0.85183717610E+02  0.00000000000E+00 0. -1.
</event>
<event>
 7    1  0.2943257E-009  0.1241027E+03  0.7561462E-02  0.1236478E+00
          1   -1    0    0  501    0  0.00000000000E+00  0.00000000000E+00  0.24151135687E+03  0.24151135687E+03  0.00000000000E+00 0. -1.
         -1   -1    0    0    0  501 -0.00000000000E+00 -0.00000000000E+00 -0.69334602542E+02  0.69334602542E+02  0.00000000000E+00 0.  1.
         25    2    1    2    0    0 -0.59678195886E+02  0.52097512019E+02  0.84896662112E+02  0.17067854588E+03  0.12509230578E+03 0.  0.
          5    1    3    3  502    0 -0.54675513912E+02  0.90663213991E+02  0.76468328603E+02  0.13066792978E+03  0.41800000000E+01 0. -1.
         -5    1    3    3    0  502 -0.50026819740E+01 -0.38565701972E+02  0.84283335092E+01  0.40010616107E+02  0.41800000000E+01 0. -1.
        -11    1    1    2    0    0 -0.11619973883E+02 -0.23692082578E+02  0.36184150484E+01  0.26635155291E+02  0.00000000000E+00 0.  1.
         11    1    1    2    0    0  0.71298169769E+02 -0.28405429441E+02  0.83661677169E+02  0.11353225824E+03  0.00000000000E+00 0. -1.
</event>
<event>
 7    1  0.2943257E-009  0.1174285E+03  0.7561462E-02  0.1247401E+00
          3   -1    0    0  501    0  0.00000000000E+00  0.00000000000E+00  0.49249162374E+03  0.49249162374E+03  0.00000000000E+00 0. -1.
         -3   -1    0    0    0  501 -0.00000000000E+00 -0.00000000000E+00 -0.40112014677E+02  0.40112014677E+02  0.00000000000E+00 0.  1.
         25    2    1    2    0    0 -0.53436100938E+02 -0.20505063976E+02  0.11738148366E+03  0.18083855311E+03  0.12509314551E+03 0.  0.
          5    1    3    3  502    0 -0.12964211430E+02  0.47283895353E+02  0.78710334630E+02  0.92825786909E+02  0.41800000000E+01 0.  1.
         -5    1    3    3    0  502 -0.40471889508E+02 -0.67788959329E+02  0.38671149034E+02  0.88012766204E+02  0.41800000000E+01 0.  1.
        -11    1    1    2    0    0  0.59715060669E+02 -0.21987408194E+02  0.17961273153E+03  0.19055200843E+03  0.00000000000E+00 0.  1.
         11    1    1    2    0    0 -0.62789597308E+01  0.42492472170E+02  0.15538539387E+03  0.16121307687E+03  0.00000000000E+00 0. -1.
</event>
<event>
 7    1  0.2943257E-009  0.1017911E+03  0.7561462E-02  0.1276574E+00
         -2   -1    0    0    0  501 -0.00000000000E+00  0.00000000000E+00  0.26385922809E+02  0.26385922809E+02  0.00000000000E+00 0.  1.
          2   -1    0    0  501    0  0.00000000000E+00 -0.00000000000E+00 -0.70824272778E+03  0.70824272778E+03  0.00000000000E+00 0. -1.
         25    2    1    2    0    0 -0.68895776794E+02  0.14017389818E+02 -0.49503567656E+03  0.51541278832E+03  0.12508759337E+03 0.  0.
          5    1    3    3  502    0  0.31305736358E+02  0.61851333128E-01 -0.22144845957E+03  0.22368939537E+03  0.41800000000E+01 0.  1.
         -5    1    3    3    0  502 -0.10020151315E+03  0.13955538485E+02 -0.27358721699E+03  0.29172339295E+03  0.41800000000E+01 0.  1.
        -11    1    1    2    0    0  0.40748212981E+02 -0.43392617313E+01 -0.13185739930E+02  0.43047761742E+02  0.00000000000E+00 0.  1.
         11    1    1    2    0    0  0.28147563813E+02 -0.96781280868E+01 -0.17363538848E+03  0.17616810053E+03  0.00000000000E+00 0. -1.
</event>
<event>
 6    1  0.3036801E-009  0.7831398E+02  0.7561462E-02  0.1333905E+00
         -4   -1    0    0    0  501 -0.00000000000E+00  0.00000000000E+00  0.10023121144E+03  0.10023121144E+03  0.00000000000E+00 0.  1.
          4   -1    0    0  501    0  0.00000000000E+00 -0.00000000000E+00 -0.17855650948E+03  0.17855650948E+03  0.00000000000E+00 0. -1.
          5    1    1    2  502    0 -0.25499448144E+02 -0.14732802877E+02 -0.38890788487E+02  0.48961649946E+02  0.41800000000E+01 0. -1.
         -5    1    1    2    0  502  0.59979285231E+02 -0.18618239398E+02  0.59893783631E+02  0.86884355397E+02  0.41800000000E+01 0. -1.
        -11    1    1    2    0    0 -0.11305336625E+02  0.38565036500E+02  0.63696281061E+00  0.40193014295E+02  0.00000000000E+00 0.  1.
         11    1    1    2    0    0 -0.23174500461E+02 -0.52139942252E+01 -0.99965255997E+02  0.10274870128E+03  0.00000000000E+00 0. -1.
</event>
<event>
 7    1  0.2943257E-009  0.1556512E+03  0.7561462E-02  0.1193696E+00
          1   -1    0    0  501    0  0.00000000000E+00  0.00000000000E+00  0.27310740570E+02  0.27310740570E+02  0.00000000000E+00 0. -1.
         -1   -1    0    0    0  501 -0.00000000000E+00 -0.00000000000E+00 -0.12574895267E+04  0.12574895267E+04  0.00000000000E+00 0.  1.
         25    2    1    2    0    0  0.11148397926E+03  0.94892687644E+02 -0.65871503724E+03  0.68628402568E+03  0.12508782440E+03 0.  0.
          5    1    3    3  502    0  0.51265035580E+01  0.17002739730E+02 -0.35124583401E+03  0.35171932348E+03  0.41800000000E+01 0. -1.
         -5    1    3    3    0  502  0.10635747570E+03  0.77889947914E+02 -0.30746920323E+03  0.33456470220E+03  0.41800000000E+01 0. -1.
        -11    1    1    2    0    0 -0.71946858417E+01 -0.44968893682E+02 -0.67274516006E+02  0.81239309494E+02  0.00000000000E+00 0. -1.
         11    1    1    2    0    0 -0.10428929342E+03 -0.49923793962E+02 -0.50418923288E+03  0.51727693209E+03  0.00000000000E+00 0.  1.
</event>
<event>
 7    1  0.2943257E-009  0.9491328E+02  0.7561462E-02  0.1291372E+00
          2   -1    0    0  501    0  0.00000000000E+00  0.00000000000E+00  0.24101327532E+03  0.24101327532E+03  0.00000000000E+00 0. -1.
         -2   -1    0    0    0  501 -0.00000000000E+00 -0.00000000000E+00 -0.53046081728E+02  0.53046081728E+02  0.00000000000E+00 0.  1.
         25    2    1    2    0    0 -0.15187405803E+02  0.88799701307E+01  0.90290457972E+02  0.15527034261E+03  0.12508797436E+03 0.  0.
          5    1    3    3  502    0  0.20377050938E+02 -0.48487547987E+02  0.63429146753E+02  0.82504518498E+02  0.41800000000E+01 0. -1.
         -5    1    3    3    0  502 -0.35564456741E+02  0.57367518117E+02  0.26861311219E+02  0.72765824112E+02  0.41800000000E+01 0. -1.
        -11    1    1    2    0    0 -0.16952267011E+02  0.20008466882E+02 -0.56175762336E+01  0.26819307719E+02  0.00000000000E+00 0.  1.
         11    1    1    2    0    0  0.32139672815E+02 -0.28888437013E+02  0.10329431185E+03  0.11196970672E+03  0.00000000000E+00 0. -1.
</event>
<event>
 7    1  0.2943257E-009  0.1023404E+03  0.7561462E-02  0.1275450E+00
         -1   -1    0    0    0  501 -0.00000000000E+00  0.00000000000E+00  0.19696425401E+03  0.19696425401E+03  0.00000000000E+00 0.  1.
          1   -1    0    0  501    0  0.00000000000E+00 -0.00000000000E+00 -0.77777952465E+02  0.77777952465E+02  0.00000000000E+00 0. -1.
         25    2    1    2    0    0 -0.41084845438E+02 -0.39577572443E+02  0.72350813639E+02  0.15535748438E+03  0.12508780498E+03 0.  0.
          5    1    3    3  502    0 -0.15953116948E+02  0.31156223744E+02  0.72008924377E+02  0.80174620724E+02  0.41800000000E+01 0. -1.
         -5    1    3    3    0  502 -0.25131728490E+02 -0.70733796187E+02  0.34188926254E+00  0.75182863660E+02  0.41800000000E+01 0. -1.
        -11    1    1    2    0    0  0.52990426591E+02  0.76188795629E-01  0.56026786318E+02  0.77116742022E+02  0.00000000000E+00 0.  1.
         11    1    1    2    0    0 -0.11905581153E+02  0.39501383647E+02 -0.91912984115E+01  0.42267980069E+02  0.00000000000E+00 0. -1.
</event>
<event>
 7    1  0.2943257E-009  0.1171729E+03  0.7561462E-02  0.1247835E+00
          2   -1    0    0  501    0  0.00000000000E+00  0.00000000000E+00  0.20062310964E+03  0.20062310964E+03  0.00000000000E+00 0. -1.
         -2   -1    0    0    0  501 -0.00000000000E+00 -0.00000000000E+00 -0.82627498394E+02  0.82627498394E+02  0.00000000000E+00 0.  1.
         25    2    1    2    0    0  0.59014494106E+02  0.18843606144E+02  0.79839320442E+02  0.16079732312E+03  0.12507465781E+03 0.  0.
          5    1    3    3  502    0  0.17137944577E+02 -0.45268007968E+02  0.67429991218E+02  0.83109432710E+02  0.41800000000E+01 0. -1.
         -5    1    3    3    0  502  0.41876549528E+02  0.64111614112E+02  0.12409329224E+02  0.77687890409E+02  0.41800000000E+01 0. -1.
        -11    1    1    2    0    0 -0.82419857497E+02 -0.22371256152E+02  0.46641702443E+02  0.97308552648E+02  0.00000000000E+00 0. -1.
         11    1    1    2    0    0  0.23405363392E+02  0.35276500078E+01 -0.84854116386E+01  0.25144732267E+02  0.00000000000E+00 0.  1.
</event>
<event>
 7    1  0.2943257E-009  0.1003058E+03  0.7561462E-02  0.1279654E+00
          1   -1    0    0  501    0  0.00000000000E+00  0.00000000000E+00  0.86833576994E+03  0.86833576994E+03  0.00000000000E+00 0. -1.
         -1   -1    0    0    0  501 -0.00000000000E+00 -0.00000000000E+00 -0.34011122660E+02  0.34011122660E+02  0.00000000000E+00 0.  1.
         25    2    1    2    0    0 -0.64261520644E+02  0.23998326946E+01  0.75403193412E+03  0.76703869374E+03  0.12509555462E+03 0.  0.
          5    1    3    3  502    0  0.74249734967E+01 -0.17120309617E+02  0.54182959412E+03  0.54216696386E+03  0.41800000000E+01 0.  1.
         -5    1    3    3    0  502 -0.71686494141E+02  0.19520142312E+02  0.21220234000E+03  0.22487172988E+03  0.41800000000E+01 0.  1.
        -11    1    1    2    0    0  0.45479647318E+02  0.40084581439E+02  0.33017798751E+02  0.69031492984E+02  0.00000000000E+00 0.  1.
         11    1    1    2    0    0  0.18781873326E+02 -0.42484414133E+02  0.47274914410E+02  0.66276705880E+02  0.00000000000E+00 0. -1.
</event>
<event>
 7    1  0.2943257E-009  0.1101897E+03  0.7561462E-02  0.1260219E+00
         -1   -1    0    0    0  501 -0.00000000000E+00  0.00000000000E+00  0.60021155904E+02  0.60021155904E+02  0.00000000000E+00 0.  1.
          1   -1    0    0  501    0  0.00000000000E+00 -0.00000000000E+00 -0.20548514322E+03  0.20548514322E+03  0.00000000000E+00 0. -1.
         25    2    1    2    0    0 -0.20608936317E+02  0.38056770656E+01 -0.77489691372E+02  0.14863278971E+03  0.12509133652E+03 0.  0.
          5    1    3    3  502    0 -0.72938366435E+02  0.43956014425E+01 -0.54838782455E+02  0.91455404824E+02  0.41800000000E+01 0.  1.
         -5    1    3    3    0  502  0.52329430118E+02 -0.58992437684E+00 -0.22650908917E+02  0.57177384882E+02  0.41800000000E+01 0.  1.
        -11    1    1    2    0    0 -0.21312732097E+02 -0.35997677766E+02 -0.35270634963E+02  0.54718214926E+02  0.00000000000E+00 0.  1.
         11    1    1    2    0    0  0.41921668415E+02  0.32192000700E+02 -0.32703660979E+02  0.62155294490E+02  0.00000000000E+00 0. -1.
</event>
<event>
 7    1  0.2943257E-009  0.1141457E+03  0.7561462E-02  0.1253080E+00
         -1   -1    0    0    0  501 -0.00000000000E+00  0.00000000000E+00  0.22299879437E+03  0.22299879437E+03  0.00000000000E+00 0.  1.
          1   -1    0    0  501    0  0.00000000000E+00 -0.00000000000E+00 -0.79823618729E+02  0.79823618729E+02  0.00000000000E+00 0. -1.
         25    2    1    2    0    0  0.48730787966E+02  0.25472220455E+02  0.13819640702E+03  0.19434475704E+03  0.12509242169E+03 0.  0.
          5    1    3    3  502    0  0.51325737814E+02  0.71828857258E+02  0.10428172325E+03  0.13669625562E+03  0.41800000000E+01 0.  1.
         -5    1    3    3    0  502 -0.25949498478E+01 -0.46356636803E+02  0.33914683776E+02  0.57648501420E+02  0.41800000000E+01 0.  1.
        -11    1    1    2    0    0  0.13659343228E+02 -0.27677243225E+02  0.28261000811E+02  0.41848436252E+02  0.00000000000E+00 0. -1.
         11    1    1    2    0    0 -0.62390131194E+02  0.22050227690E+01 -0.23282232195E+02  0.66629219805E+02  0.00000000000E+00 0.  1.
</event>
<event>
 7    1  0.2943257E-009  0.1400485E+03  0.7561462E-02  0.1213264E+00
         -2   -1    0    0    0  501 -0.00000000000E+00  0.00000000000E+00  0.15111198006E+03  0.15111198006E+03  0.00000000000E+00 0. -1.
          2   -1    0    0  501    0  0.00000000000E+00 -0.00000000000E+00 -0.22167251748E+03  0.22167251748E+03  0.00000000000E+00 0.  1.
         25    2    1    2    0    0 -0.11684260289E+03  0.15290902176E+02 -0.12486935004E+03  0.21242655417E+03  0.12508669313E+03 0.  0.
          5    1    3    3  502    0  0.16456218536E+02  0.40232223845E+01 -0.62274683407E+02  0.64673039516E+02  0.41800000000E+01 0. -1.
         -5    1    3    3    0  502 -0.13329882143E+03  0.11267679792E+02 -0.62594666633E+02  0.14775351466E+03  0.41800000000E+01 0. -1.
        -11    1    1    2    0    0  0.10628622500E+03  0.44966105214E+01  0.53604399963E+01  0.10651626847E+03  0.00000000000E+00 0.  1.
         11    1    1    2    0    0  0.10556377890E+02 -0.19787512698E+02  0.48948372631E+02  0.53841674901E+02  0.00000000000E+00 0. -1.
</event>
<event>
 7    1  0.2943257E-009  0.1547384E+03  0.7561462E-02  0.1194769E+00
          3   -1    0    0  501    0  0.00000000000E+00  0.00000000000E+00  0.49249330539E+03  0.49249330539E+03  0.00000000000E+00 0. -1.
         -3   -1    0    0    0  501 -0.00000000000E+00 -0.00000000000E+00 -0.57955584584E+02  0.57955584584E+02  0.00000000000E+00 0.  1.
         25    2    1    2    0    0  0.18545350665E+02 -0.11577181766E+03  0.33628437215E+03  0.37746740404E+03  0.12508964130E+03 0.  0.
          5    1    3    3  502    0  0.69363345052E+02 -0.73832272010E+02  0.16217587223E+03  0.19126150674E+03  0.41800000000E+01 0.  1.
         -5    1    3    3    0  502 -0.50817994387E+02 -0.41939545648E+02  0.17410849992E+03  0.18620589729E+03  0.41800000000E+01 0.  1.
        -11    1    1    2    0    0 -0.44282063822E+02  0.10538636882E+03  0.83415548096E+02  0.14151092387E+03  0.00000000000E+00 0.  1.
         11    1    1    2    0    0  0.25736713157E+02  0.10385448837E+02  0.14837800558E+02  0.31470562071E+02  0.00000000000E+00 0. -1.
</event>
<event>
 6    1  0.2943257E-009  0.3223484E+03  0.7561462E-02  0.1074574E+00
          2   -1    0    0  501    0  0.00000000000E+00  0.00000000000E+00  0.23193152713E+04  0.23193152713E+04  0.00000000000E+00 0. -1.
         -2   -1    0    0    0  501 -0.00000000000E+00 -0.00000000000E+00 -0.49825307594E+02  0.49825307594E+02  0.00000000000E+00 0.  1.
          5    1    1    2  502    0 -0.13294644903E+03  0.16255062098E+03  0.54968160118E+03  0.58844268860E+03  0.41800000000E+01 0.  1.
         -5    1    1    2    0  502 -0.80421182536E+02  0.78550668905E+02  0.66216277890E+03  0.67165079643E+03  0.41800000000E+01 0.  1.
        -11    1    1    2    0    0  0.11336578226E+03 -0.13682375171E+03  0.43566753171E+03  0.47050901990E+03  0.00000000000E+00 0.  1.
         11    1    1    2    0    0  0.10000184931E+03 -0.10427753817E+03  0.62197805188E+03  0.63853807393E+03  0.00000000000E+00 0. -1.
</event>
<event>
 7    1  0.2943257E-009  0.1739284E+03  0.7561462E-02  0.1173812E+00
         -1   -1    0    0    0  501 -0.00000000000E+00  0.00000000000E+00  0.30337747347E+02  0.30337747347E+02  0.00000000000E+00 0.  1.
          1   -1    0    0  501    0  0.00000000000E+00 -0.00000000000E+00 -0.10271433333E+04  0.10271433333E+04  0.00000000000E+00 0. -1.
         25    2    1    2    0    0  0.11390311629E+03  0.80585754310E+02 -0.52760962545E+03  0.55989892820E+03  0.12508760623E+03 0.  0.
          5    1    3    3  502    0  0.12965398026E+03  0.94823566259E+02 -0.49760300986E+03  0.52290332868E+03  0.41800000000E+01 0. -1.
         -5    1    3    3    0  502 -0.15750863974E+02 -0.14237811949E+02 -0.30006615587E+02  0.36995599523E+02  0.41800000000E+01 0. -1.
        -11    1    1    2    0    0 -0.10650245204E+03 -0.99173317235E+02 -0.41854935997E+03  0.44312716670E+03  0.00000000000E+00 0. -1.
         11    1    1    2    0    0 -0.74006642514E+01  0.18587562924E+02 -0.50646600548E+02  0.54454985758E+02  0.00000000000E+00 0.  1.
</event>
<event>
 7    1  0.2943257E-009  0.9803536E+02  0.7561462E-02  0.1284482E+00
          1   -1    0    0  501    0  0.00000000000E+00  0.00000000000E+00  0.11847931658E+03  0.11847931658E+03  0.00000000000E+00 0. -1.
         -1   -1    0    0    0  501 -0.00000000000E+00 -0.00000000000E+00 -0.13438463037E+03  0.13438463037E+03  0.00000000000E+00 0.  1.
         25    2    1    2    0    0  0.66111293776E+02 -0.14731866005E+01 -0.18156591898E+02  0.14265066872E+03  0.12508668200E+03 0.  0.
          5    1    3    3  502    0  0.55985727690E+02  0.45477743671E+02 -0.47261156348E+02  0.86334907040E+02  0.41800000000E+01 0.  1.
         -5    1    3    3    0  502  0.10125566086E+02 -0.46950930271E+02  0.29104564449E+02  0.56315761681E+02  0.41800000000E+01 0.  1.
        -11    1    1    2    0    0 -0.39308103660E+01 -0.11444246134E+02 -0.34691932538E+02  0.36741695972E+02  0.00000000000E+00 0.  1.
         11    1    1    2    0    0 -0.62180483410E+02  0.12917432734E+02  0.36943210653E+02  0.73471582254E+02  0.00000000000E+00 0. -1.
</event>
<event>
 7    1  0.2943257E-009  0.1357116E+03  0.7561462E-02  0.1219219E+00
          2   -1    0    0  501    0  0.00000000000E+00  0.00000000000E+00  0.51963106977E+03  0.51963106977E+03  0.00000000000E+00 0. -1.
         -2   -1    0    0    0  501 -0.00000000000E+00 -0.00000000000E+00 -0.38686743459E+02  0.38686743459E+02  0.00000000000E+00 0.  1.
         25    2    1    2    0    0  0.13673780460E+02 -0.76862291776E+02  0.30258220892E+03  0.33660064733E+03  0.12509683632E+03 0.  0.
          5    1    3    3  502    0  0.30617782656E+02 -0.10754591253E+03  0.22117992974E+03  0.24787417299E+03  0.41800000000E+01 0.  1.
         -5    1    3    3    0  502 -0.16944002195E+02  0.30683620750E+02  0.81402279173E+02  0.88726474332E+02  0.41800000000E+01 0.  1.
        -11    1    1    2    0    0 -0.52793670703E+02  0.64175821971E+02  0.81091888525E+02  0.11611030177E+03  0.00000000000E+00 0.  1.
         11    1    1    2    0    0  0.39119890243E+02  0.12686469805E+02  0.97270228865E+02  0.10560686413E+03  0.00000000000E+00 0. -1.
</event>
<event>
 7    1  0.2943257E-009  0.1616893E+03  0.7561462E-02  0.1186803E+00
         -1   -1    0    0    0  501 -0.00000000000E+00  0.00000000000E+00  0.32574812840E+02  0.32574812840E+02  0.00000000000E+00 0.  1.
          1   -1    0    0  501    0  0.00000000000E+00 -0.00000000000E+00 -0.13062552283E+04  0.13062552283E+04  0.00000000000E+00 0. -1.
         25    2    1    2    0    0 -0.51660997013E+02 -0.13745103431E+03 -0.97258123130E+03  0.99152597472E+03  0.12509141306E+03 0.  0.
          5    1    3    3  502    0 -0.35183521864E+02 -0.14089600474E+03 -0.95774482079E+03  0.96870128446E+03  0.41800000000E+01 0.  1.
         -5    1    3    3    0  502 -0.16477475149E+02  0.34449704337E+01 -0.14836410506E+02  0.22824690256E+02  0.41800000000E+01 0.  1.
        -11    1    1    2    0    0  0.65562472480E+02  0.12837893472E+03 -0.21006197638E+03  0.25476581913E+03  0.00000000000E+00 0.  1.
         11    1    1    2    0    0 -0.13901475467E+02  0.90720995925E+01 -0.91037207739E+02  0.92538247250E+02  0.00000000000E+00 0. -1.
</event>
<event>
 7    1  0.2943257E-009  0.9490574E+02  0.7561462E-02  0.1291389E+00
          1   -1    0    0  501    0  0.00000000000E+00  0.00000000000E+00  0.30755533834E+03  0.30755533834E+03  0.00000000000E+00 0. -1.
         -1   -1    0    0    0  501 -0.00000000000E+00 -0.00000000000E+00 -0.51707301490E+02  0.51707301490E+02  0.00000000000E+00 0.  1.
         25    2    1    2    0    0 -0.10604013279E+02 -0.31594193084E+02  0.63755833498E+02  0.14430205836E+03  0.12509052565E+03 0.  0.
          5    1    3    3  502    0 -0.13137207383E+02  0.33048211591E+02  0.70552799664E+02  0.79119785437E+02  0.41800000000E+01 0. -1.
         -5    1    3    3    0  502  0.25331941042E+01 -0.64642404675E+02 -0.67969661657E+01  0.65182272924E+02  0.41800000000E+01 0. -1.
        -11    1    1    2    0    0 -0.16684444974E+02 -0.22840004177E+02  0.10465637096E+03  0.10841121933E+03  0.00000000000E+00 0.  1.
         11    1    1    2    0    0  0.27288458253E+02  0.54434197261E+02  0.87435832393E+02  0.10654936214E+03  0.00000000000E+00 0. -1.
</event>
<event>
 7    1  0.2943257E-009  0.6779792E+02  0.7561462E-02  0.1367746E+00
         -2   -1    0    0    0  501 -0.00000000000E+00  0.00000000000E+00  0.43445742611E+03  0.43445742611E+03  0.00000000000E+00 0.  1.
          2   -1    0    0  501    0  0.00000000000E+00 -0.00000000000E+00 -0.33130879876E+02  0.33130879876E+02  0.00000000000E+00 0. -1.
         25    2    1    2    0    0  0.24711973670E+01  0.40543353034E+01  0.32828599221E+03  0.35134334610E+03  0.12509160529E+03 0.  0.
          5    1    3    3  502    0 -0.68198089831E+01 -0.32153672246E+02  0.30565576210E+03  0.30744639490E+03  0.41800000000E+01 0. -1.
         -5    1    3    3    0  502  0.92910063501E+01  0.36208007549E+02  0.22630230114E+02  0.43896951200E+02  0.41800000000E+01 0. -1.
        -11    1    1    2    0    0 -0.32724135154E+02  0.53687896253E+01  0.77452191486E+02  0.84252803453E+02  0.00000000000E+00 0.  1.
         11    1    1    2    0    0  0.30252937787E+02 -0.94231249287E+01 -0.44116374642E+01  0.31992156433E+02  0.00000000000E+00 0. -1.
</event>
<event>
 7    1  0.2943257E-009  0.1105141E+03  0.7561462E-02  0.1259621E+00
         -1   -1    0    0    0  501 -0.00000000000E+00  0.00000000000E+00  0.44048278463E+02  0.44048278463E+02  0.00000000000E+00 0.  1.
          1   -1    0    0  501    0  0.00000000000E+00 -0.00000000000E+00 -0.36536662486E+03  0.36536662486E+03  0.00000000000E+00 0. -1.
         25    2    1    2    0    0  0.55560238244E+02  0.32506963862E+02 -0.15171159829E+03  0.20689975700E+03  0.12508979821E+03 0.  0.
          5    1    3    3  502    0  0.48619998727E+02  0.64267771223E+02 -0.39203543982E+02  0.89714218243E+02  0.41800000000E+01 0. -1.
         -5    1    3    3    0  502  0.69402395172E+01 -0.31760807361E+02 -0.11250805431E+03  0.11718553876E+03  0.41800000000E+01 0. -1.
        -11    1    1    2    0    0  0.16365133667E+02  0.14306523297E+02 -0.17652179470E+02  0.28001672251E+02  0.00000000000E+00 0.  1.
         11    1    1    2    0    0 -0.71925371911E+02 -0.46813487159E+02 -0.15195456863E+03  0.17451347407E+03  0.00000000000E+00 0. -1.
</event>
<event>
 7    1  0.2943257E-009  0.9239596E+02  0.7561462E-02  0.1297151E+00
         -2   -1    0    0    0  501 -0.00000000000E+00  0.00000000000E+00  0.47130076690E+02  0.47130076690E+02  0.00000000000E+00 0.  1.
          2   -1    0    0  501    0  0.00000000000E+00 -0.00000000000E+00 -0.26325565122E+03  0.26325565122E+03  0.00000000000E+00 0. -1.
         25    2    1    2    0    0 -0.88114688791E+01  0.21333162154E+02 -0.98475479415E+02  0.16086416207E+03  0.12508841993E+03 0.  0.
          5    1    3    3  502    0  0.53602867118E+02  0.31777389531E+02 -0.60449591521E+02  0.86917750567E+02  0.41800000000E+01 0.  1.
         -5    1    3    3    0  502 -0.62414335997E+02 -0.10444227377E+02 -0.38025887894E+02  0.73946411499E+02  0.41800000000E+01 0.  1.
        -11    1    1    2    0    0 -0.19979465211E+02  0.42223478140E+01 -0.10789171354E+03  0.10980723611E+03  0.00000000000E+00 0. -1.
         11    1    1    2    0    0  0.28790934090E+02 -0.25555509968E+02 -0.97583815773E+01  0.39714329737E+02  0.00000000000E+00 0.  1.
</event>
<event>
 6    1  0.2943257E-009  0.1030741E+03  0.7561462E-02  0.1273961E+00
         -1   -1    0    0    0  501 -0.00000000000E+00  0.00000000000E+00  0.30401380251E+03  0.30401380251E+03  0.00000000000E+00 0.  1.
          1   -1    0    0  501    0  0.00000000000E+00 -0.00000000000E+00 -0.45418267428E+02  0.45418267428E+02  0.00000000000E+00 0. -1.
          5    1    1    2  502    0 -0.20914791053E+02 -0.11453302997E+02 -0.63921475738E+01  0.25038741680E+02  0.41800000000E+01 0.  1.
         -5    1    1    2    0  502  0.85392770387E+02  0.38134601027E+02  0.15750344651E+03  0.18322385514E+03  0.41800000000E+01 0.  1.
        -11    1    1    2    0    0 -0.63989545443E+02 -0.23957864861E+01  0.92920006382E+02  0.11284737172E+03  0.00000000000E+00 0.  1.
         11    1    1    2    0    0 -0.48843389068E+00 -0.24285511544E+02  0.14564229759E+02  0.28322101389E+02  0.00000000000E+00 0. -1.
</event>
<event>
 7    1  0.2943257E-009  0.1000846E+03  0.7561462E-02  0.1280118E+00
         -3   -1    0    0    0  501 -0.00000000000E+00  0.00000000000E+00  0.21969314449E+03  0.21969314449E+03  0.00000000000E+00 0.  1.
          3   -1    0    0  501    0  0.00000000000E+00 -0.00000000000E+00 -0.59457622429E+02  0.59457622429E+02  0.00000000000E+00 0. -1.
         25    2    1    2    0    0 -0.37474728888E+02 -0.81877566883E+00  0.97721294257E+02  0.16309891010E+03  0.12508707938E+03 0.  0.
          5    1    3    3  502    0 -0.69702673385E+02  0.30429137837E+02  0.30261879360E+02  0.81961264320E+02  0.41800000000E+01 0. -1.
         -5    1    3    3    0  502  0.32227944498E+02 -0.31247913506E+02  0.67459414897E+02  0.81137645784E+02  0.41800000000E+01 0. -1.
        -11    1    1    2    0    0  0.58008614588E+02 -0.27497478263E+01  0.91861770699E+01  0.58795801965E+02  0.00000000000E+00 0. -1.
         11    1    1    2    0    0 -0.20533885701E+02  0.35685234952E+01  0.53328050737E+02  0.57256054853E+02  0.00000000000E+00 0.  1.
</event>
<event>
 7    1  0.2943257E-009  0.9929403E+02  0.7561462E-02  0.1281788E+00
         -1   -1    0    0    0  501 -0.00000000000E+00  0.00000000000E+00  0.46183780886E+03  0.46183780886E+03  0.00000000000E+00 0.  1.
          1   -1    0    0  501    0  0.00000000000E+00 -0.00000000000E+00 -0.60631546782E+02  0.60631546782E+02  0.00000000000E+00 0. -1.
         25    2    1    2    0    0  0.12821008232E+02 -0.46768224361E+02  0.39709722631E+03  0.41914797912E+03  0.12508867334E+03 0.  0.
          5    1    3    3  502    0 -0.44259847565E+02 -0.26156450394E+02  0.30119375001E+03  0.30557853565E+03  0.41800000000E+01 0. -1.
         -5    1    3    3    0  502  0.57080855798E+02 -0.20611773967E+02  0.95903476300E+02  0.11356944347E+03  0.41800000000E+01 0. -1.
        -11    1    1    2    0    0 -0.13625922463E+02 -0.17344972670E+02  0.27336616374E+02  0.35125552446E+02  0.00000000000E+00 0.  1.
         11    1    1    2    0    0  0.80491423044E+00  0.64113197031E+02 -0.23227580605E+02  0.68195824075E+02  0.00000000000E+00 0. -1.
</event>
<event>
 7    1  0.2943257E-009  0.1050114E+03  0.7561462E-02  0.1270097E+00
         -2   -1    0    0    0  501 -0.00000000000E+00  0.00000000000E+00  0.14846935219E+03  0.14846935219E+03  0.00000000000E+00 0.  1.
          2   -1    0    0  501    0  0.00000000000E+00 -0.00000000000E+00 -0.12918369919E+03  0.12918369919E+03  0.00000000000E+00 0. -1.
         25    2    1    2    0    0  0.16039320465E+01  0.22805190650E+02 -0.72214771274E+02  0.14623479358E+03  0.12508793845E+03 0.  0.
          5    1    3    3  502    0  0.55473529473E+02 -0.19034402209E+02 -0.34866735739E+02  0.68357754504E+02  0.41800000000E+01 0.  1.
         -5    1    3    3    0  502 -0.53869597427E+02  0.41839592859E+02 -0.37348035534E+02  0.77877039080E+02  0.41800000000E+01 0.  1.
        -11    1    1    2    0    0 -0.59391811780E+01 -0.52522269332E+02  0.25041237611E+02  0.58488684632E+02  0.00000000000E+00 0. -1.
         11    1    1    2    0    0  0.43352491314E+01  0.29717078682E+02  0.66459186659E+02  0.72929573163E+02  0.00000000000E+00 0.  1.
</event>
<event>
 7    1  0.2943257E-009  0.1675649E+03  0.7561462E-02  0.1180411E+00
         -3   -1    0    0    0  501 -0.00000000000E+00  0.00000000000E+00  0.94906483725E+02  0.94906483725E+02  0.00000000000E+00 0.  1.
          3   -1    0    0  501    0  0.00000000000E+00 -0.00000000000E+00 -0.37593398668E+03  0.37593398668E+03  0.00000000000E+00 0. -1.
         25    2    1    2    0    0  0.25542748027E+02  0.14075753938E+03 -0.22119782984E+03  0.29161832487E+03  0.12509056960E+03 0.  0.
          5    1    3    3  502    0  0.15668008635E+02  0.16005141151E+03 -0.16141586518E+03  0.22789141001E+03  0.41800000000E+01 0. -1.
         -5    1    3    3    0  502  0.98747393922E+01 -0.19293872130E+02 -0.59781964651E+02  0.63726914859E+02  0.41800000000E+01 0. -1.
        -11    1    1    2    0    0 -0.36537980118E+02 -0.13483259739E+03 -0.24601415346E+02  0.14184527820E+03  0.00000000000E+00 0.  1.
         11    1    1    2    0    0  0.10995232091E+02 -0.59249419933E+01 -0.35228257769E+02  0.37376867335E+02  0.00000000000E+00 0. -1.
</event>
<event>
 7    1  0.2943257E-009  0.1035970E+03  0.7561462E-02  0.1272909E+00
          2   -1    0    0  501    0  0.00000000000E+00  0.00000000000E+00  0.19659105974E+03  0.19659105974E+03  0.00000000000E+00 0.  1.
         -2   -1    0    0    0  501 -0.00000000000E+00 -0.00000000000E+00 -0.11983164571E+03  0.11983164571E+03  0.00000000000E+00 0. -1.
         25    2    1    2    0    0  0.65764459593E+02 -0.40598135257E+02 -0.26889179188E+02  0.14947646097E+03  0.12508801579E+03 0.  0.
          5    1    3    3  502    0  0.14392351689E+02  0.21341007623E+02  0.37952247833E+02  0.46048060861E+02  0.41800000000E+01 0. -1.
         -5    1    3    3    0  502  0.51372107904E+02 -0.61939142879E+02 -0.64841427021E+02  0.10342840011E+03  0.41800000000E+01 0. -1.
        -11    1    1    2    0    0  0.13025170262E+02  0.78849136232E+01 -0.14627317415E+02  0.21113629199E+02  0.00000000000E+00 0. -1.
         11    1    1    2    0    0 -0.78789629854E+02  0.32713221633E+02  0.11827591064E+03  0.14583261528E+03  0.00000000000E+00 0.  1.
</event>
<event>
 7    1  0.2943257E-009  0.1328752E+03  0.7561462E-02  0.1223251E+00
         -2   -1    0    0    0  501 -0.00000000000E+00  0.00000000000E+00  0.75783647847E+02  0.75783647847E+02  0.00000000000E+00 0.  1.
          2   -1    0    0  501    0  0.00000000000E+00 -0.00000000000E+00 -0.32013330570E+03  0.32013330570E+03  0.00000000000E+00 0. -1.
         25    2    1    2    0    0  0.80351091109E+02 -0.21468518093E+00 -0.33229695944E+02  0.15234122289E+03  0.12508913449E+03 0.  0.
          5    1    3    3  502    0 -0.18383938926E+02 -0.36502396859E+02 -0.21627435682E+02  0.46428574833E+02  0.41800000000E+01 0. -1.
         -5    1    3    3    0  502  0.98735030034E+02  0.36287711678E+02 -0.11602260262E+02  0.10591264805E+03  0.41800000000E+01 0. -1.
        -11    1    1    2    0    0  0.17634497620E+02 -0.10972245557E+02 -0.21810177650E+02  0.30117262956E+02  0.00000000000E+00 0.  1.
         11    1    1    2    0    0 -0.97985588728E+02  0.11186930738E+02 -0.18930978425E+03  0.21345846770E+03  0.00000000000E+00 0. -1.
</event>
<event>
 7    1  0.2943257E-009  0.1879602E+03  0.7561462E-02  0.1160314E+00
         -1   -1    0    0    0  501 -0.00000000000E+00  0.00000000000E+00  0.47224578307E+03  0.47224578307E+03  0.00000000000E+00 0.  1.
          1   -1    0    0  501    0  0.00000000000E+00 -0.00000000000E+00 -0.81623161588E+02  0.81623161588E+02  0.00000000000E+00 0. -1.
         25    2    1    2    0    0 -0.66383862556E+02 -0.13870261891E+03  0.12562219187E+03  0.23467454887E+03  0.12508387224E+03 0.  0.
          5    1    3    3  502    0 -0.59632510104E+02 -0.49336278195E+00  0.37396186172E+02  0.70514018524E+02  0.41800000000E+01 0. -1.
         -5    1    3    3    0  502 -0.67513524513E+01 -0.13820925613E+03  0.88226005701E+02  0.16416053034E+03  0.41800000000E+01 0. -1.
        -11    1    1    2    0    0  0.16132993302E+02  0.12441936044E+03  0.17956409775E+03  0.21905185670E+03  0.00000000000E+00 0. -1.
         11    1    1    2    0    0  0.50250869254E+02  0.14283258475E+02  0.85436331865E+02  0.10014253909E+03  0.00000000000E+00 0.  1.
</event>
<event>
 7    1  0.2943257E-009  0.1476488E+03  0.7561462E-02  0.1203392E+00
          1   -1    0    0  501    0  0.00000000000E+00  0.00000000000E+00  0.24112893164E+03  0.24112893164E+03  0.00000000000E+00 0. -1.
         -1   -1    0    0    0  501 -0.00000000000E+00 -0.00000000000E+00 -0.14689618776E+03  0.14689618776E+03  0.00000000000E+00 0.  1.
         25    2    1    2    0    0 -0.10832264999E+03 -0.51096439366E+02 -0.49171775447E+02  0.18002793670E+03  0.12509017497E+03 0.  0.
          5    1    3    3  502    0 -0.11606082398E+03 -0.81116960573E+02 -0.36581582340E+02  0.14630707680E+03  0.41800000000E+01 0.  1.
         -5    1    3    3    0  502  0.77381739844E+01  0.30020521206E+02 -0.12590193107E+02  0.33720859903E+02  0.41800000000E+01 0.  1.
        -11    1    1    2    0    0  0.75793024936E+02  0.22550736458E+02  0.26596859421E+02  0.83429678621E+02  0.00000000000E+00 0.  1.
         11    1    1    2    0    0  0.32529625058E+02  0.28545702909E+02  0.11680765990E+03  0.12456750408E+03  0.00000000000E+00 0. -1.
</event>
<event>
 7    1  0.2943257E-009  0.1104093E+03  0.7561462E-02  0.1259814E+00
          1   -1    0    0  501    0  0.00000000000E+00  0.00000000000E+00  0.24985838819E+02  0.24985838819E+02  0.00000000000E+00 0. -1.
         -1   -1    0    0    0  501 -0.00000000000E+00 -0.00000000000E+00 -0.63417862474E+03  0.63417862474E+03  0.00000000000E+00 0.  1.
         25    2    1    2    0    0 -0.51632272579E+02 -0.38120093213E+02 -0.34610583300E+03  0.37357052412E+03  0.12508659310E+03 0.  0.
          5    1    3    3  502    0 -0.84326769533E+02  0.56167830460E+01 -0.23335239261E+03  0.24822039370E+03  0.41800000000E+01 0. -1.
         -5    1    3    3    0  502  0.32694496954E+02 -0.43736876259E+02 -0.11275344039E+03  0.12535013041E+03  0.41800000000E+01 0. -1.
        -11    1    1    2    0    0 -0.13269668079E+00 -0.10450682523E+02  0.24483499246E+01  0.10734467428E+02  0.00000000000E+00 0. -1.
         11    1    1    2    0    0  0.51764969260E+02  0.48570775736E+02 -0.26553530285E+03  0.27485947201E+03  0.00000000000E+00 0.  1.
</event>
<event>
 7    1  0.2943257E-009  0.2561283E+03  0.7561462E-02  0.1109492E+00
         -1   -1    0    0    0  501 -0.00000000000E+00  0.00000000000E+00  0.21822191628E+03  0.21822191628E+03  0.00000000000E+00 0.  1.
          1   -1    0    0  501    0  0.00000000000E+00 -0.00000000000E+00 -0.33633717036E+03  0.33633717036E+03  0.00000000000E+00 0. -1.
         25    2    1    2    0    0 -0.21682857135E+01 -0.24117946681E+03 -0.23155856508E+01  0.27170722432E+03  0.12508883697E+03 0.  0.
          5    1    3    3  502    0  0.37841626906E+02 -0.55442218629E+02 -0.39589855095E+02  0.78042663716E+02  0.41800000000E+01 0. -1.
         -5    1    3    3    0  502 -0.40009912620E+02 -0.18573724818E+03  0.37274269445E+02  0.19366456060E+03  0.41800000000E+01 0. -1.
        -11    1    1    2    0    0  0.38721382481E+02  0.17617939032E+03 -0.10130048458E+03  0.20688236080E+03  0.00000000000E+00 0. -1.
         11    1    1    2    0    0 -0.36553096767E+02  0.65000076494E+02 -0.14499183848E+02  0.75969501510E+02  0.00000000000E+00 0.  1.
</event>
<event>
 7    1  0.2943257E-009  0.1110662E+03  0.7561462E-02  0.1258608E+00
         -3   -1    0    0    0  501 -0.00000000000E+00  0.00000000000E+00  0.54041723352E+02  0.54041723352E+02  0.00000000000E+00 0.  1.
          3   -1    0    0  501    0  0.00000000000E+00 -0.00000000000E+00 -0.27039083603E+03  0.27039083603E+03  0.00000000000E+00 0. -1.
         25    2    1    2    0    0 -0.43841847778E+02 -0.32780721795E+01 -0.15110279223E+03  0.20104015546E+03  0.12510890022E+03 0.  0.
          5    1    3    3  502    0  0.36095212567E+02  0.16195243610E+02 -0.90225050705E+02  0.98606198895E+02  0.41800000000E+01 0.  1.
         -5    1    3    3    0  502 -0.79937060345E+02 -0.19473315789E+02 -0.60877741526E+02  0.10243395657E+03  0.41800000000E+01 0.  1.
        -11    1    1    2    0    0 -0.24775805267E+02 -0.14995095225E+02 -0.32762027247E+01  0.29144929434E+02  0.00000000000E+00 0.  1.
         11    1    1    2    0    0  0.68617653045E+02  0.18273167405E+02 -0.61970117720E+02  0.94247474484E+02  0.00000000000E+00 0. -1.
</event>
<event>
 7    1  0.2943257E-009  0.1073773E+03  0.7561462E-02  0.1265505E+00
          2   -1    0    0  501    0  0.00000000000E+00  0.00000000000E+00  0.43470665082E+03  0.43470665082E+03  0.00000000000E+00 0.  1.
         -2   -1    0    0    0  501 -0.00000000000E+00 -0.00000000000E+00 -0.31143980824E+02  0.31143980824E+02  0.00000000000E+00 0. -1.
         25    2    1    2    0    0 -0.13642227105E+02  0.12642180082E+02  0.31596574225E+03  0.34033673199E+03  0.12509518691E+03 0.  0.
          5    1    3    3  502    0 -0.67861732678E+01 -0.56012469649E+02  0.12373765537E+03  0.13605854865E+03  0.41800000000E+01 0. -1.
         -5    1    3    3    0  502 -0.68560538371E+01  0.68654649731E+02  0.19222808688E+03  0.20427818334E+03  0.41800000000E+01 0. -1.
        -11    1    1    2    0    0 -0.37113408750E+02 -0.18158654587E+01  0.28257869651E+02  0.46682005887E+02  0.00000000000E+00 0.  1.
         11    1    1    2    0    0  0.50755635855E+02 -0.10826314624E+02  0.59339058096E+02  0.78831893768E+02  0.00000000000E+00 0. -1.
</event>
<event>
 7    1  0.2943257E-009  0.2218820E+03  0.7561462E-02  0.1132488E+00
         -2   -1    0    0    0  501 -0.00000000000E+00  0.00000000000E+00  0.10124129487E+03  0.10124129487E+03  0.00000000000E+00 0.  1.
          2   -1    0    0  501    0  0.00000000000E+00 -0.00000000000E+00 -0.53230807498E+03  0.53230807498E+03  0.00000000000E+00 0. -1.
         25    2    1    2    0    0 -0.54293473199E+02 -0.19559451135E+03 -0.18394710477E+03  0.30114533203E+03  0.12508788730E+03 0.  0.
          5    1    3    3  502    0 -0.20710327028E+02  0.13196139306E+02 -0.32746746282E+02  0.41144592965E+02  0.41800000000E+01 0.  1.
         -5    1    3    3    0  502 -0.33583146171E+02 -0.20879065065E+03 -0.15120035848E+03  0.26000073906E+03  0.41800000000E+01 0.  1.
        -11    1    1    2    0    0 -0.39211219610E+01  0.55384165427E+02 -0.12770194979E+03  0.13925002319E+03  0.00000000000E+00 0.  1.
         11    1    1    2    0    0  0.58214595160E+02  0.14021034592E+03 -0.11941772555E+03  0.19315401463E+03  0.00000000000E+00 0. -1.
</event>
<event>
 7    1  0.2943257E-009  0.8734448E+02  0.7561462E-02  0.1309413E+00
          1   -1    0    0  501    0  0.00000000000E+00  0.00000000000E+00  0.22370480353E+03  0.22370480353E+03  0.00000000000E+00 0. -1.
         -1   -1    0    0    0  501 -0.00000000000E+00 -0.00000000000E+00 -0.54747309450E+02  0.54747309450E+02  0.00000000000E+00 0.  1.
         25    2    1    2    0    0  0.16744634941E-01 -0.18277276922E+02  0.11642262936E+03  0.17186180521E+03  0.12509273492E+03 0.  0.
          5    1    3    3  502    0 -0.62309134507E+02 -0.63673074608E+01  0.55258617193E+02  0.83629887130E+02  0.41800000000E+01 0. -1.
         -5    1    3    3    0  502  0.62325879142E+02 -0.11909969461E+02  0.61164012164E+02  0.88231918076E+02  0.41800000000E+01 0. -1.
        -11    1    1    2    0    0 -0.20616127463E+02 -0.25251749342E+00 -0.20134428938E+02  0.28818114187E+02  0.00000000000E+00 0.  1.
         11    1    1    2    0    0  0.20599382828E+02  0.18529794415E+02  0.72669293662E+02  0.77772193587E+02  0.00000000000E+00 0. -1.
</event>
<event>
 7    1  0.2943257E-009  0.6865688E+02  0.7561462E-02  0.1364721E+00
         -3   -1    0    0    0  501 -0.00000000000E+00  0.00000000000E+00  0.19887165423E+03  0.19887165423E+03  0.00000000000E+00 0.  1.
          3   -1    0    0  501    0  0.00000000000E+00 -0.00000000000E+00 -0.64605397092E+02  0.64605397092E+02  0.00000000000E+00 0. -1.
         25    2    1    2    0    0 -0.50655330970E+01  0.21210571787E+02  0.10067748784E+03  0.16204642758E+03  0.12509012812E+03 0.  0.
          5    1    3    3  502    0 -0.95689704643E+01  0.40118583757E+02 -0.15441498609E+02  0.44237746752E+02  0.41800000000E+01 0. -1.
         -5    1    3    3    0  502  0.45034373673E+01 -0.18908011969E+02  0.11611898645E+03  0.11780868083E+03  0.41800000000E+01 0. -1.
        -11    1    1    2    0    0 -0.70498094999E+01 -0.46977814700E+02 -0.10779748870E+02  0.48711578436E+02  0.00000000000E+00 0. -1.
         11    1    1    2    0    0  0.12115342597E+02  0.25767242913E+02  0.44368518168E+02  0.52719045306E+02  0.00000000000E+00 0.  1.
</event>
<event>
 7    1  0.2943257E-009  0.9160535E+02  0.7561462E-02  0.1299010E+00
          2   -1    0    0  501    0  0.00000000000E+00  0.00000000000E+00  0.12932546332E+03  0.12932546332E+03  0.00000000000E+00 0. -1.
         -2   -1    0    0    0  501 -0.00000000000E+00 -0.00000000000E+00 -0.12223825114E+03  0.12223825114E+03  0.00000000000E+00 0.  1.
         25    2    1    2    0    0 -0.29568398905E+02  0.15978513778E+02 -0.53481259172E+02  0.14013390825E+03  0.12509062332E+03 0.  0.
          5    1    3    3  502    0 -0.30033540167E+02  0.59192723077E+02  0.56801988313E+01  0.66749749505E+02  0.41800000000E+01 0. -1.
         -5    1    3    3    0  502  0.46514126258E+00 -0.43214209299E+02 -0.59161458003E+02  0.73384158745E+02  0.41800000000E+01 0. -1.
        -11    1    1    2    0    0  0.49937500705E+02 -0.51124810404E+01  0.40305015389E+01  0.50360067332E+02  0.00000000000E+00 0.  1.
         11    1    1    2    0    0 -0.20369101800E+02 -0.10866032737E+02  0.56537969818E+02  0.61069738879E+02  0.00000000000E+00 0. -1.
</event>
<event>
 7    1  0.2943257E-009  0.1005593E+03  0.7561462E-02  0.1279124E+00
         -2   -1    0    0    0  501 -0.00000000000E+00  0.00000000000E+00  0.36605971422E+02  0.36605971422E+02  0.00000000000E+00 0.  1.
          2   -1    0    0  501    0  0.00000000000E+00 -0.00000000000E+00 -0.47019897708E+03  0.47019897708E+03  0.00000000000E+00 0. -1.
         25    2    1    2    0    0  0.47262116622E+02 -0.46638782601E+02 -0.19427818544E+03  0.24041454456E+03  0.12508499586E+03 0.  0.
          5    1    3    3  502    0  0.31146938021E+01  0.11371096200E+02 -0.15869607871E+03  0.15918831912E+03  0.41800000000E+01 0. -1.
         -5    1    3    3    0  502  0.44147422820E+02 -0.58009878801E+02 -0.35582106729E+02  0.81226225441E+02  0.41800000000E+01 0. -1.
        -11    1    1    2    0    0 -0.76513553374E+02  0.33640454562E+02 -0.19033852278E+03  0.20788159440E+03  0.00000000000E+00 0.  1.
         11    1    1    2    0    0  0.29251436752E+02  0.12998328039E+02 -0.48976297437E+02  0.58508809546E+02  0.00000000000E+00 0. -1.
</event>
<event>
 7    1  0.2943257E-009  0.1202453E+03  0.7561462E-02  0.1242693E+00
          4   -1    0    0  501    0  0.00000000000E+00  0.00000000000E+00  0.11299205536E+04  0.11299205536E+04  0.00000000000E+00 0. -1.
         -4   -1    0    0    0  501 -0.00000000000E+00 -0.00000000000E+00 -0.22839215908E+02  0.22839215908E+02  0.00000000000E+00 0.  1.
         25    2    1    2    0    0  0.10008810189E+03  0.19558607849E+02  0.81027015602E+03  0.82618727653E+03  0.12509005909E+03 0.  0.
          5    1    3    3  502    0  0.12632110726E+02  0.10486468186E+02  0.57080183086E+03  0.57105318382E+03  0.41800000000E+01 0.  1.
         -5    1    3    3    0  502  0.87455991166E+02  0.90721396629E+01  0.23946832516E+03  0.25513409271E+03  0.41800000000E+01 0.  1.
        -11    1    1    2    0    0 -0.67722381882E+02 -0.55208479200E+02  0.20657397710E+03  0.22429245462E+03  0.00000000000E+00 0.  1.
         11    1    1    2    0    0 -0.32365720010E+02  0.35649871350E+02  0.90237204612E+02  0.10228003840E+03  0.00000000000E+00 0. -1.
</event>
<event>
 7    1  0.2943257E-009  0.1875014E+03  0.7561462E-02  0.1160734E+00
         -2   -1    0    0    0  501 -0.00000000000E+00  0.00000000000E+00  0.35872468224E+02  0.35872468224E+02  0.00000000000E+00 0.  1.
          2   -1    0    0  501    0  0.00000000000E+00 -0.00000000000E+00 -0.12538209415E+04  0.12538209415E+04  0.00000000000E+00 0. -1.
         25    2    1    2    0    0 -0.80819686993E+02 -0.13585059712E+03 -0.35971691918E+03  0.41234822717E+03  0.12509033521E+03 0.  0.
          5    1    3    3  502    0  0.27750352943E+02 -0.77972913201E+01 -0.27307291539E+02  0.39925435647E+02  0.41800000000E+01 0.  1.
         -5    1    3    3    0  502 -0.10857003994E+03 -0.12805330580E+03 -0.33240962764E+03  0.37242279152E+03  0.41800000000E+01 0.  1.
        -11    1    1    2    0    0  0.63035263272E+02  0.28591160517E+02 -0.24680145810E+03  0.25632373787E+03  0.00000000000E+00 0.  1.
         11    1    1    2    0    0  0.17784423722E+02  0.10725943660E+03 -0.61143009601E+03  0.62102144470E+03  0.00000000000E+00 0. -1.
</event>
<event>
 7    1  0.2943257E-009  0.1145706E+03  0.7561462E-02  0.1252333E+00
          1   -1    0    0  501    0  0.00000000000E+00  0.00000000000E+00  0.18862647191E+03  0.18862647191E+03  0.00000000000E+00 0. -1.
         -1   -1    0    0    0  501 -0.00000000000E+00 -0.00000000000E+00 -0.97164281898E+02  0.97164281898E+02  0.00000000000E+00 0.  1.
         25    2    1    2    0    0 -0.51478381439E+02 -0.61582088496E+02  0.61736012620E+02  0.16094090841E+03  0.12509301886E+03 0.  0.
          5    1    3    3  502    0 -0.44789538197E+02  0.18465308254E+01  0.82289353063E+02  0.93800439421E+02  0.41800000000E+01 0. -1.
         -5    1    3    3    0  502 -0.66888432424E+01 -0.63428619321E+02 -0.20553340444E+02  0.67140468991E+02  0.41800000000E+01 0. -1.
        -11    1    1    2    0    0 -0.21233261069E+02 -0.47742566259E+01 -0.82607360631E+00  0.21779056443E+02  0.00000000000E+00 0.  1.
         11    1    1    2    0    0  0.72711642508E+02  0.66356345122E+02  0.30552250997E+02  0.10307078895E+03  0.00000000000E+00 0. -1.
</event>
<event>
 7    1  0.2943257E-009  0.1122029E+03  0.7561462E-02  0.1256544E+00
          4   -1    0    0  501    0  0.00000000000E+00  0.00000000000E+00  0.20395539395E+03  0.20395539395E+03  0.00000000000E+00 0. -1.
         -4   -1    0    0    0  501 -0.00000000000E+00 -0.00000000000E+00 -0.11419776753E+03  0.11419776753E+03  0.00000000000E+00 0.  1.
         25    2    1    2    0    0  0.34401006280E+02 -0.70637842218E+02 -0.27408910891E+02  0.15023973843E+03  0.12509035383E+03 0.  0.
          5    1    3    3  502    0  0.43942585583E+02 -0.80282374037E+02 -0.63490247947E+02  0.11146611321E+03  0.41800000000E+01 0. -1.
         -5    1    3    3    0  502 -0.95415793034E+01  0.96445318190E+01  0.36081337057E+02  0.38773625229E+02  0.41800000000E+01 0. -1.
        -11    1    1    2    0    0 -0.23199827287E+02 -0.17928922968E+02  0.17648358651E+02  0.34221964117E+02  0.00000000000E+00 0. -1.
         11    1    1    2    0    0 -0.11201178993E+02  0.88566765186E+02  0.99518178657E+02  0.13369145893E+03  0.00000000000E+00 0.  1.
</event>
<event>
 7    1  0.2943257E-009  0.8933932E+02  0.7561462E-02  0.1304460E+00
         -1   -1    0    0    0  501 -0.00000000000E+00  0.00000000000E+00  0.71913681331E+02  0.71913681331E+02  0.00000000000E+00 0. -1.
          1   -1    0    0  501    0  0.00000000000E+00 -0.00000000000E+00 -0.22585967537E+03  0.22585967537E+03  0.00000000000E+00 0.  1.
         25    2    1    2    0    0  0.45626508317E+02 -0.28908321666E+02 -0.84732707552E+02  0.16043454475E+03  0.12506854959E+03 0.  0.
          5    1    3    3  502    0 -0.35258353394E+02 -0.99116191652E+00 -0.62564189100E+02  0.71943617116E+02  0.41800000000E+01 0. -1.
         -5    1    3    3    0  502  0.80884861711E+02 -0.27917159750E+02 -0.22168518453E+02  0.88490927630E+02  0.41800000000E+01 0. -1.
        -11    1    1    2    0    0 -0.61749068120E+01  0.14026036724E+02  0.27696314354E+02  0.31653514957E+02  0.00000000000E+00 0. -1.
         11    1    1    2    0    0 -0.39451601505E+02  0.14882284942E+02 -0.96909600844E+02  0.10568529700E+03  0.00000000000E+00 0.  1.
</event>
<event>
 7    1  0.2943257E-009  0.1065553E+03  0.7561462E-02  0.1267085E+00
          1   -1    0    0  501    0  0.00000000000E+00  0.00000000000E+00  0.43037459302E+02  0.43037459302E+02  0.00000000000E+00 0. -1.
         -1   -1    0    0    0  501 -0.00000000000E+00 -0.00000000000E+00 -0.39267750389E+03  0.39267750389E+03  0.00000000000E+00 0.  1.
         25    2    1    2    0    0  0.17181138790E+02 -0.27833240255E+01 -0.31404489264E+03  0.33848934400E+03  0.12509157840E+03 0.  0.
          5    1    3    3  502    0  0.40969984336E+02 -0.53841551715E+02 -0.20093463933E+03  0.21206049606E+03  0.41800000000E+01 0.  1.
         -5    1    3    3    0  502 -0.23788845546E+02  0.51058227690E+02 -0.11311025331E+03  0.12642884793E+03  0.41800000000E+01 0.  1.
        -11    1    1    2    0    0  0.46074257552E+01  0.42923084691E+02 -0.26506989585E+02  0.50658070121E+02  0.00000000000E+00 0.  1.
         11    1    1    2    0    0 -0.21788564545E+02 -0.40139760666E+02 -0.90881623634E+01  0.46567549070E+02  0.00000000000E+00 0. -1.
</event>
<event>
 7    1  0.2943257E-009  0.1041505E+03  0.7561462E-02  0.1271802E+00
          1   -1    0    0  501    0  0.00000000000E+00  0.00000000000E+00  0.31205758934E+03  0.31205758934E+03  0.00000000000E+00 0. -1.
         -1   -1    0    0    0  501 -0.00000000000E+00 -0.00000000000E+00 -0.41453973934E+02  0.41453973934E+02  0.00000000000E+00 0.  1.
         25    2    1    2    0    0 -0.29795455280E+02  0.40316577404E+01  0.18576552127E+03  0.22596280687E+03  0.12508532198E+03 0.  0.
          5    1    3    3  502    0  0.42444966717E+01  0.61462148813E+02  0.88019889197E+02  0.10752015989E+03  0.41800000000E+01 0. -1.
         -5    1    3    3    0  502 -0.34039951952E+02 -0.57430491073E+02  0.97745632072E+02  0.11844264698E+03  0.41800000000E+01 0. -1.
        -11    1    1    2    0    0 -0.11238721356E+01 -0.35514750464E+02  0.74032494397E+02  0.82118029785E+02  0.00000000000E+00 0. -1.
         11    1    1    2    0    0  0.30919327416E+02  0.31483092724E+02  0.10805599737E+02  0.45430726618E+02  0.00000000000E+00 0.  1.
</event>
<event>
 7    1  0.2943257E-009  0.1043145E+03  0.7561462E-02  0.1271476E+00
         -1   -1    0    0    0  501 -0.00000000000E+00  0.00000000000E+00  0.14697031978E+04  0.14697031978E+04  0.00000000000E+00 0.  1.
          1   -1    0    0  501    0  0.00000000000E+00 -0.00000000000E+00 -0.13648432951E+02  0.13648432951E+02  0.00000000000E+00 0. -1.
         25    2    1    2    0    0 -0.90230549732E+01  0.30932028861E+02  0.12452402148E+04  0.12519219707E+04  0.12508885698E+03 0.  0.
          5    1    3    3  502    0  0.53806712825E+02  0.24278308675E+02  0.40518195393E+03  0.40948075267E+03  0.41800000000E+01 0.  1.
         -5    1    3    3    0  502 -0.62829767799E+02  0.66537201858E+01  0.84005826090E+03  0.84244121802E+03  0.41800000000E+01 0.  1.
        -11    1    1    2    0    0 -0.18594005508E+02 -0.49483791935E+02  0.17379736963E+03  0.18165876911E+03  0.00000000000E+00 0.  1.
         11    1    1    2    0    0  0.27617060481E+02  0.18551763074E+02  0.37017180434E+02  0.49770890991E+02  0.00000000000E+00 0. -1.
</event>
<event>
 7    1  0.2943257E-009  0.1735393E+03  0.7561462E-02  0.1174206E+00
         -2   -1    0    0    0  501 -0.00000000000E+00  0.00000000000E+00  0.13318144493E+03  0.13318144493E+03  0.00000000000E+00 0.  1.
          2   -1    0    0  501    0  0.00000000000E+00 -0.00000000000E+00 -0.26128687684E+03  0.26128687684E+03  0.00000000000E+00 0. -1.
         25    2    1    2    0    0  0.91413004501E+02  0.10951659813E+03 -0.16223123121E+02  0.19042411707E+03  0.12509169429E+03 0.  0.
          5    1    3    3  502    0  0.16058729424E+02 -0.24575455855E+02  0.15283657813E+02  0.33360132154E+02  0.41800000000E+01 0. -1.
         -5    1    3    3    0  502  0.75354275077E+02  0.13409205398E+03 -0.31506780933E+02  0.15706398492E+03  0.41800000000E+01 0. -1.
        -11    1    1    2    0    0 -0.10253789778E+03 -0.74314843261E+02 -0.10887437741E+03  0.16700403128E+03  0.00000000000E+00 0.  1.
         11    1    1    2    0    0  0.11124893274E+02 -0.35201754864E+02 -0.30079313778E+01  0.37040173421E+02  0.00000000000E+00 0. -1.
</event>
<event>
 7    1  0.2943257E-009  0.1410025E+03  0.7561462E-02  0.1211986E+00
          1   -1    0    0  501    0  0.00000000000E+00  0.00000000000E+00  0.47986164070E+02  0.47986164070E+02  0.00000000000E+00 0. -1.
         -1   -1    0    0    0  501 -0.00000000000E+00 -0.00000000000E+00 -0.53580171790E+03  0.53580171790E+03  0.00000000000E+00 0.  1.
         25    2    1    2    0    0  0.76760439964E+01  0.10345094445E+03 -0.20057621508E+03  0.25814825557E+03  0.12509470108E+03 0.  0.
          5    1    3    3  502    0  0.40505341196E+02  0.20644758741E+02 -0.14743129385E+03  0.15433841885E+03  0.41800000000E+01 0. -1.
         -5    1    3    3    0  502 -0.32829297199E+02  0.82806185705E+02 -0.53144921231E+02  0.10380983671E+03  0.41800000000E+01 0. -1.
        -11    1    1    2    0    0  0.67296767976E+01  0.20918656570E+02 -0.84896859014E+02  0.87694671520E+02  0.00000000000E+00 0.  1.
         11    1    1    2    0    0 -0.14405720794E+02 -0.12436960102E+03 -0.20234247974E+03  0.23794495489E+03  0.00000000000E+00 0. -1.
</event>
<event>
 7    1  0.2943257E-009  0.1166709E+03  0.7561462E-02  0.1248692E+00
          2   -1    0    0  501    0  0.00000000000E+00  0.00000000000E+00  0.85681803420E+03  0.85681803420E+03  0.00000000000E+00 0. -1.
         -2   -1    0    0    0  501 -0.00000000000E+00 -0.00000000000E+00 -0.24713284811E+02  0.24713284811E+02  0.00000000000E+00 0.  1.
         25    2    1    2    0    0  0.86162135307E+02  0.32396063339E+01  0.58048718658E+03  0.60003844112E+03  0.12508536454E+03 0.  0.
          5    1    3    3  502    0  0.88394945014E+01 -0.23559333090E+02  0.17067353816E+02  0.30691135609E+02  0.41800000000E+01 0. -1.
         -5    1    3    3    0  502  0.77322640806E+02  0.26798939424E+02  0.56341983277E+03  0.56934730551E+03  0.41800000000E+01 0. -1.
        -11    1    1    2    0    0 -0.10270036753E+03 -0.17346221426E+02  0.20031021061E+03  0.22577076286E+03  0.00000000000E+00 0.  1.
         11    1    1    2    0    0  0.16538232220E+02  0.14106615092E+02  0.51307352193E+02  0.55722115030E+02  0.00000000000E+00 0. -1.
</event>
<event>
 7    1  0.2943257E-009  0.8594296E+02  0.7561462E-02  0.1312985E+00
         -1   -1    0    0    0  501 -0.00000000000E+00  0.00000000000E+00  0.31597605762E+02  0.31597605762E+02  0.00000000000E+00 0.  1.
          1   -1    0    0  501    0  0.00000000000E+00 -0.00000000000E+00 -0.41768543477E+03  0.41768543477E+03  0.00000000000E+00 0. -1.
         25    2    1    2    0    0 -0.19312190269E+02 -0.14106096918E+02 -0.27326029530E+03  0.30147979587E+03  0.12508771188E+03 0.  0.
          5    1    3    3  502    0  0.27825436952E+02 -0.19634262894E+02 -0.12678757974E+02  0.36578443444E+02  0.41800000000E+01 0.  1.
         -5    1    3    3    0  502 -0.47137627221E+02  0.55281659759E+01 -0.26058153733E+03  0.26490135242E+03  0.41800000000E+01 0.  1.
        -11    1    1    2    0    0 -0.34330308332E+02  0.11572744652E+02 -0.22288094597E+02  0.42535369396E+02  0.00000000000E+00 0.  1.
         11    1    1    2    0    0  0.53642498600E+02  0.25333522663E+01 -0.90539439112E+02  0.10526787527E+03  0.00000000000E+00 0. -1.
</event>
<event>
 7    1  0.2943257E-009  0.1143668E+03  0.7561462E-02  0.1252690E+00
         -1   -1    0    0    0  501 -0.00000000000E+00  0.00000000000E+00  0.26445465421E+03  0.26445465421E+03  0.00000000000E+00 0.  1.
          1   -1    0    0  501    0  0.00000000000E+00 -0.00000000000E+00 -0.50353617062E+02  0.50353617062E+02  0.00000000000E+00 0. -1.
         25    2    1    2    0    0  0.11384013543E+02  0.33738757646E+02  0.13886226072E+03  0.19025922955E+03  0.12509175610E+03 0.  0.
          5    1    3    3  502    0  0.68071614238E+02  0.14010449592E+02  0.80568767299E+02  0.10648397075E+03  0.41800000000E+01 0. -1.
         -5    1    3    3    0  502 -0.56687600695E+02  0.19728308054E+02  0.58293493419E+02  0.83775258795E+02  0.41800000000E+01 0. -1.
        -11    1    1    2    0    0  0.40469622397E+02 -0.88569790804E+01  0.36420357873E+02  0.55160482984E+02  0.00000000000E+00 0.  1.
         11    1    1    2    0    0 -0.51853635940E+02 -0.24881778566E+02  0.38818418555E+02  0.69388558739E+02  0.00000000000E+00 0. -1.
</event>
<event>
 7    1  0.3818934E-009  0.1124060E+03  0.7561462E-02  0.1256178E+00
          1   -1    0    0  501    0  0.00000000000E+00  0.00000000000E+00  0.78469748718E+02  0.78469748718E+02  0.00000000000E+00 0. -1.
         -1   -1    0    0    0  501 -0.00000000000E+00 -0.00000000000E+00 -0.22375245951E+03  0.22375245951E+03  0.00000000000E+00 0.  1.
         25    2    1    2    0    0  0.30840484262E+02  0.67932296774E+02 -0.68865474845E+02  0.16110841337E+03  0.12509010680E+03 0.  0.
          5    1    3    3  502    0  0.45666853813E+02  0.96948935317E+02 -0.70283775997E+02  0.12822573519E+03  0.41800000000E+01 0. -1.
         -5    1    3    3    0  502 -0.14826369551E+02 -0.29016638543E+02  0.14183011522E+01  0.32882678184E+02  0.41800000000E+01 0. -1.
        -11    1    1    2    0    0 -0.59697397530E+01 -0.57389979410E+02  0.24470649395E+01  0.57751499169E+02  0.00000000000E+00 0. -1.
         11    1    1    2    0    0 -0.24870744509E+02 -0.10542317363E+02 -0.78864300890E+02  0.83362295690E+02  0.00000000000E+00 0.  1.
</event>
<event>
 7    1  0.3867766E-009  0.1664781E+03  0.7561462E-02  0.1181571E+00
          2   -1    0    0  501    0  0.00000000000E+00  0.00000000000E+00  0.18258520466E+04  0.18258520466E+04  0.00000000000E+00 0. -1.
         -2   -1    0    0    0  501 -0.00000000000E+00 -0.00000000000E+00 -0.19301306831E+02  0.19301306831E+02  0.00000000000E+00 0.  1.
         25    2    1    2    0    0  0.45020535731E+02  0.13552495074E+03  0.12171984823E+04  0.12319146057E+04  0.12509032533E+03 0.  0.
          5    1    3    3  502    0 -0.21034821540E+02  0.98330480499E+02  0.90671052408E+03  0.91227890143E+03  0.41800000000E+01 0.  1.
         -5    1    3    3    0  502  0.66055357271E+02  0.37194470237E+02  0.31048795823E+03  0.31963570427E+03  0.41800000000E+01 0.  1.
        -11    1    1    2    0    0 -0.44405410032E+02 -0.36820365710E+02  0.11419943068E+03  0.12794174353E+03  0.00000000000E+00 0.  1.
         11    1    1    2    0    0 -0.61512569923E+00 -0.98704585026E+02  0.47515282681E+03  0.48529700422E+03  0.00000000000E+00 0. -1.
</event>
<event>
 7    1  0.2943257E-009  0.1157832E+03  0.7561462E-02  0.1250220E+00
         -2   -1    0    0    0  501 -0.00000000000E+00  0.00000000000E+00  0.24037462547E+03  0.24037462547E+03  0.00000000000E+00 0. -1.
          2   -1    0    0  501    0  0.00000000000E+00 -0.00000000000E+00 -0.73732214098E+02  0.73732214098E+02  0.00000000000E+00 0.  1.
         25    2    1    2    0    0 -0.48851902903E+02  0.56452382774E+02  0.12777769646E+03  0.19377013063E+03  0.12508534636E+03 0.  0.
          5    1    3    3  502    0  0.18596290352E+02  0.46308418473E+02  0.11336367091E+03  0.12393177929E+03  0.41800000000E+01 0. -1.
         -5    1    3    3    0  502 -0.67448193254E+02  0.10143964301E+02  0.14414025546E+02  0.69838351337E+02  0.41800000000E+01 0. -1.
        -11    1    1    2    0    0  0.10375820465E+02 -0.71197434547E+02  0.31210135506E+02  0.78427067360E+02  0.00000000000E+00 0. -1.
         11    1    1    2    0    0  0.38476082438E+02  0.14745051773E+02  0.76545794131E+01  0.41909641582E+02  0.00000000000E+00 0.  1.
</event>
<event>
 7    1  0.2943257E-009  0.1104235E+03  0.7561462E-02  0.1259788E+00
          1   -1    0    0  501    0  0.00000000000E+00  0.00000000000E+00  0.62411001521E+03  0.62411001521E+03  0.00000000000E+00 0. -1.
         -1   -1    0    0    0  501 -0.00000000000E+00 -0.00000000000E+00 -0.24162935766E+02  0.24162935766E+02  0.00000000000E+00 0.  1.
         25    2    1    2    0    0  0.27134555946E+02  0.29039054084E+02  0.44979677609E+03  0.46855547168E+03  0.12509012542E+03 0.  0.
          5    1    3    3  502    0 -0.34951191718E+02  0.46790560796E+02  0.13458576207E+03  0.14677105346E+03  0.41800000000E+01 0.  1.
         -5    1    3    3    0  502  0.62085747663E+02 -0.17751506711E+02  0.31521101401E+03  0.32178441822E+03  0.41800000000E+01 0.  1.
        -11    1    1    2    0    0  0.24167521727E+02 -0.38462713007E+02  0.56239856709E+02  0.72293643433E+02  0.00000000000E+00 0.  1.
         11    1    1    2    0    0 -0.51302077672E+02  0.94236589226E+01  0.93910446645E+02  0.10742383586E+03  0.00000000000E+00 0. -1.
</event>
<event>
 7    1  0.2943257E-009  0.1907787E+03  0.7561462E-02  0.1157761E+00
          2   -1    0    0  501    0  0.00000000000E+00  0.00000000000E+00  0.99851252746E+03  0.99851252746E+03  0.00000000000E+00 0. -1.
         -2   -1    0    0    0  501 -0.00000000000E+00 -0.00000000000E+00 -0.41528593320E+02  0.41528593320E+02  0.00000000000E+00 0.  1.
         25    2    1    2    0    0 -0.95542327724E+02 -0.13943512687E+03  0.58208750389E+03  0.61890424658E+03  0.12508442452E+03 0.  0.
          5    1    3    3  502    0 -0.86974022345E+02 -0.19903608445E+02  0.21841289424E+03  0.23597097059E+03  0.41800000000E+01 0.  1.
         -5    1    3    3    0  502 -0.85683053789E+01 -0.11953151842E+03  0.36367460965E+03  0.38293327599E+03  0.41800000000E+01 0.  1.
        -11    1    1    2    0    0  0.12789235323E+02  0.44909458144E+02  0.33812080867E+02  0.57651372781E+02  0.00000000000E+00 0.  1.
         11    1    1    2    0    0  0.82753092401E+02  0.94525668723E+02  0.34108434939E+03  0.36348550142E+03  0.00000000000E+00 0. -1.
</event>
<event>
 7    1  0.2943257E-009  0.1096181E+03  0.7561462E-02  0.1261279E+00
         -1   -1    0    0    0  501 -0.00000000000E+00  0.00000000000E+00  0.33936471512E+03  0.33936471512E+03  0.00000000000E+00 0.  1.
          1   -1    0    0  501    0  0.00000000000E+00 -0.00000000000E+00 -0.49701008137E+02  0.49701008137E+02  0.00000000000E+00 0. -1.
         25    2    1    2    0    0 -0.36706549215E+02  0.57648507126E+02  0.12820493865E+03  0.19171400663E+03  0.12508810062E+03 0.  0.
          5    1    3    3  502    0 -0.36636540904E+02 -0.30608486665E+02  0.73662768456E+02  0.87879414210E+02  0.41800000000E+01 0.  1.
         -5    1    3    3    0  502 -0.70008311184E-01  0.88256993791E+02  0.54542170191E+02  0.10383459242E+03  0.41800000000E+01 0.  1.
        -11    1    1    2    0    0 -0.68217440511E+01 -0.31388921481E+02  0.13741000819E+03  0.14111453126E+03  0.00000000000E+00 0.  1.
         11    1    1    2    0    0  0.43528293266E+02 -0.26259585645E+02  0.24048760151E+02  0.56237185364E+02  0.00000000000E+00 0. -1.
</event>
<event>
 7    1  0.2943257E-009  0.1338638E+03  0.7561462E-02  0.1221833E+00
          2   -1    0    0  501    0  0.00000000000E+00  0.00000000000E+00  0.49232830053E+03  0.49232830053E+03  0.00000000000E+00 0. -1.
         -2   -1    0    0    0  501 -0.00000000000E+00 -0.00000000000E+00 -0.38461372107E+02  0.38461372107E+02  0.00000000000E+00 0.  1.
         25    2    1    2    0    0  0.82802116140E+02 -0.18573920482E+02  0.26503163854E+03  0.30511674417E+03  0.12511305760E+03 0.  0.
          5    1    3    3  502    0 -0.26728949711E+02  0.20854856391E+02  0.49886848865E+02  0.60460994678E+02  0.41800000000E+01 0. -1.
         -5    1    3    3    0  502  0.10953106585E+03 -0.39428776874E+02  0.21514478968E+03  0.24465574949E+03  0.41800000000E+01 0. -1.
        -11    1    1    2    0    0 -0.92100798045E+02  0.34737860926E+02  0.12462797472E+03  0.15881249342E+03  0.00000000000E+00 0.  1.
         11    1    1    2    0    0  0.92986819049E+01 -0.16163940443E+02  0.64207315162E+02  0.66860435058E+02  0.00000000000E+00 0. -1.
</event>
<event>
 7    1  0.2943257E-009  0.1357755E+03  0.7561462E-02  0.1219129E+00
         -2   -1    0    0    0  501 -0.00000000000E+00  0.00000000000E+00  0.13895630347E+03  0.13895630347E+03  0.00000000000E+00 0.  1.
          2   -1    0    0  501    0  0.00000000000E+00 -0.00000000000E+00 -0.17416832810E+03  0.17416832810E+03  0.00000000000E+00 0. -1.
         25    2    1    2    0    0  0.88540666571E+02 -0.49982251379E+02 -0.62329960039E+02  0.17283103477E+03  0.12509143684E+03 0.  0.
          5    1    3    3  502    0  0.92782806299E+02 -0.84444109009E+02 -0.41935467335E+02  0.13234618435E+03  0.41800000000E+01 0. -1.
         -5    1    3    3    0  502 -0.42421397281E+01  0.34461857629E+02 -0.20394492704E+02  0.40484850418E+02  0.41800000000E+01 0. -1.
        -11    1    1    2    0    0 -0.18848840945E+02  0.35022173871E+02  0.51400910605E+02  0.64991423116E+02  0.00000000000E+00 0. -1.
         11    1    1    2    0    0 -0.69691825626E+02  0.14960077508E+02 -0.24282975200E+02  0.75302173692E+02  0.00000000000E+00 0.  1.
</event>
<event>
 7    1  0.2943257E-009  0.1486925E+03  0.7561462E-02  0.1202089E+00
          1   -1    0    0  501    0  0.00000000000E+00  0.00000000000E+00  0.34477654275E+03  0.34477654275E+03  0.00000000000E+00 0. -1.
         -1   -1    0    0    0  501 -0.00000000000E+00 -0.00000000000E+00 -0.82553628814E+02  0.82553628814E+02  0.00000000000E+00 0.  1.
         25    2    1    2    0    0 -0.10795091647E+03  0.64068992188E+02  0.18080796310E+03  0.25317402441E+03  0.12508929206E+03 0.  0.
          5    1    3    3  502    0 -0.75282344755E+02  0.83399431516E+02  0.62025794188E+02  0.12840392577E+03  0.41800000000E+01 0.  1.
         -5    1    3    3    0  502 -0.32668571716E+02 -0.19330439327E+02  0.11878216891E+03  0.12477009864E+03  0.41800000000E+01 0.  1.
        -11    1    1    2    0    0  0.58307191866E+00 -0.35713021748E+02  0.44651741254E+02  0.57179873140E+02  0.00000000000E+00 0. -1.
         11    1    1    2    0    0  0.10736784455E+03 -0.28355970440E+02  0.36763209580E+02  0.11697627401E+03  0.00000000000E+00 0.  1.
</event>
<event>
 7    1  0.2943257E-009  0.9581890E+02  0.7561462E-02  0.1289342E+00
         -2   -1    0    0    0  501 -0.00000000000E+00  0.00000000000E+00  0.28295023523E+02  0.28295023523E+02  0.00000000000E+00 0.  1.
          2   -1    0    0  501    0  0.00000000000E+00 -0.00000000000E+00 -0.65920349775E+03  0.65920349775E+03  0.00000000000E+00 0. -1.
         25    2    1    2    0    0  0.56470274735E+02 -0.48716857061E+02 -0.44246211993E+03  0.46581396926E+03  0.12509077622E+03 0.  0.
          5    1    3    3  502    0 -0.18536318431E+02 -0.20430044493E+02 -0.16627746614E+02  0.32479781040E+02  0.41800000000E+01 0. -1.
         -5    1    3    3    0  502  0.75006593166E+02 -0.28286812568E+02 -0.42583437331E+03  0.43333418822E+03  0.41800000000E+01 0. -1.
        -11    1    1    2    0    0 -0.40448785222E+02  0.10150312223E+02 -0.16681251103E+02  0.44915445033E+02  0.00000000000E+00 0.  1.
         11    1    1    2    0    0 -0.16021489514E+02  0.38566544838E+02 -0.17176510320E+03  0.17676910698E+03  0.00000000000E+00 0. -1.
</event>
<event>
 7    1  0.2943257E-009  0.1643629E+03  0.7561462E-02  0.1183857E+00
         -3   -1    0    0    0  501 -0.00000000000E+00  0.00000000000E+00  0.91510711494E+02  0.91510711494E+02  0.00000000000E+00 0.  1.
          3   -1    0    0  501    0  0.00000000000E+00 -0.00000000000E+00 -0.30262420055E+03  0.30262420055E+03  0.00000000000E+00 0. -1.
         25    2    1    2    0    0  0.69542601491E+02  0.71051425823E+02 -0.77019176268E+02  0.17737926119E+03  0.12508785015E+03 0.  0.
          5    1    3    3  502    0  0.38764029327E+02  0.10600442268E+03 -0.51924947373E+02  0.12431114253E+03  0.41800000000E+01 0. -1.
         -5    1    3    3    0  502  0.30778572164E+02 -0.34952996861E+02 -0.25094228896E+02  0.53068118658E+02  0.41800000000E+01 0. -1.
        -11    1    1    2    0    0 -0.10557425958E+03 -0.79318622711E+02 -0.93195230161E+02  0.16162524283E+03  0.00000000000E+00 0.  1.
         11    1    1    2    0    0  0.36031658090E+02  0.82671968881E+01 -0.40899082627E+02  0.55130408024E+02  0.00000000000E+00 0. -1.
</event>
<event>
 7    1  0.2943257E-009  0.9406033E+02  0.7561462E-02  0.1293307E+00
         -1   -1    0    0    0  501 -0.00000000000E+00  0.00000000000E+00  0.45602498171E+03  0.45602498171E+03  0.00000000000E+00 0.  1.
          1   -1    0    0  501    0  0.00000000000E+00 -0.00000000000E+00 -0.30519899374E+02  0.30519899374E+02  0.00000000000E+00 0. -1.
         25    2    1    2    0    0  0.18655337045E+02  0.39733077572E+02  0.20939594528E+03  0.24783445619E+03  0.12509403152E+03 0.  0.
          5    1    3    3  502    0 -0.32509654280E+02  0.29664451705E+02  0.15250442978E+02  0.46764363862E+02  0.41800000000E+01 0.  1.
         -5    1    3    3    0  502  0.51164991325E+02  0.10068625867E+02  0.19414550230E+03  0.20107009232E+03  0.41800000000E+01 0.  1.
        -11    1    1    2    0    0  0.10586456062E+02 -0.56775260077E+02  0.81352075120E+02  0.99768047666E+02  0.00000000000E+00 0. -1.
         11    1    1    2    0    0 -0.29241793107E+02  0.17042182506E+02  0.13475706194E+03  0.13894237723E+03  0.00000000000E+00 0.  1.
</event>
<event>
 7    1  0.2943257E-009  0.1182830E+03  0.7561462E-02  0.1245957E+00
         -1   -1    0    0    0  501 -0.00000000000E+00  0.00000000000E+00  0.53351349468E+03  0.53351349468E+03  0.00000000000E+00 0.  1.
          1   -1    0    0  501    0  0.00000000000E+00 -0.00000000000E+00 -0.48599568826E+02  0.48599568826E+02  0.00000000000E+00 0. -1.
         25    2    1    2    0    0 -0.79518082161E+02 -0.66555676437E+02  0.36327902999E+03  0.39795868594E+03  0.12508668446E+03 0.  0.
          5    1    3    3  502    0  0.56101289944E+01 -0.24275094103E+02  0.31319504493E+01  0.25456536580E+02  0.41800000000E+01 0. -1.
         -5    1    3    3    0  502 -0.85128211155E+02 -0.42280582334E+02  0.36014707954E+03  0.37250214936E+03  0.41800000000E+01 0. -1.
        -11    1    1    2    0    0  0.42578996354E+02  0.30427928295E+01  0.75232158204E+00  0.42694209285E+02  0.00000000000E+00 0. -1.
         11    1    1    2    0    0  0.36939085807E+02  0.63512883607E+02  0.12088257428E+03  0.14146016828E+03  0.00000000000E+00 0.  1.
</event>
<event>
 7    1  0.2943257E-009  0.1021376E+03  0.7561462E-02  0.1275864E+00
         -2   -1    0    0    0  501 -0.00000000000E+00  0.00000000000E+00  0.25848005486E+03  0.25848005486E+03  0.00000000000E+00 0.  1.
          2   -1    0    0  501    0  0.00000000000E+00 -0.00000000000E+00 -0.54098945231E+02  0.54098945231E+02  0.00000000000E+00 0. -1.
         25    2    1    2    0    0 -0.23249881502E+01 -0.52934058373E+02  0.14532793770E+03  0.19893338872E+03  0.12508742369E+03 0.  0.
          5    1    3    3  502    0 -0.27174279912E+02 -0.88224665874E+02  0.95829843804E+02  0.13312724936E+03  0.41800000000E+01 0.  1.
         -5    1    3    3    0  502  0.24849291762E+02  0.35290607501E+02  0.49498093898E+02  0.65806139367E+02  0.41800000000E+01 0.  1.
        -11    1    1    2    0    0 -0.12716367080E+02 -0.76209210411E+00  0.56398547293E+02  0.57819399105E+02  0.00000000000E+00 0.  1.
         11    1    1    2    0    0  0.15041355230E+02  0.53696150477E+02  0.26546246281E+01  0.55826212259E+02  0.00000000000E+00 0. -1.
</event>
<event>
 7    1  0.2943257E-009  0.1119644E+03  0.7561462E-02  0.1256975E+00
          2   -1    0    0  501    0  0.00000000000E+00  0.00000000000E+00  0.12448296251E+03  0.12448296251E+03  0.00000000000E+00 0. -1.
         -2   -1    0    0    0  501 -0.00000000000E+00 -0.00000000000E+00 -0.10921075835E+03  0.10921075835E+03  0.00000000000E+00 0.  1.
         25    2    1    2    0    0 -0.32779578391E+02  0.12700127348E+00  0.36820496313E+02  0.13449969833E+03  0.12513953417E+03 0.  0.
          5    1    3    3  502    0  0.44719972926E+02 -0.19742990516E+02  0.17474938425E+02  0.52081738891E+02  0.41800000000E+01 0. -1.
         -5    1    3    3    0  502 -0.77499551316E+02  0.19869991790E+02  0.19345557888E+02  0.82417959438E+02  0.41800000000E+01 0. -1.
        -11    1    1    2    0    0  0.83205480013E+01 -0.43860280966E+02 -0.20373997997E+02  0.49071942695E+02  0.00000000000E+00 0.  1.
         11    1    1    2    0    0  0.24459030389E+02  0.43733279693E+02 -0.11742941513E+01  0.50122079835E+02  0.00000000000E+00 0. -1.
</event>
<event>
 7    1  0.2943257E-009  0.8443681E+02  0.7561462E-02  0.1316912E+00
          2   -1    0    0  501    0  0.00000000000E+00  0.00000000000E+00  0.47752149691E+03  0.47752149691E+03  0.00000000000E+00 0. -1.
         -2   -1    0    0    0  501 -0.00000000000E+00 -0.00000000000E+00 -0.21555016006E+02  0.21555016006E+02  0.00000000000E+00 0.  1.
         25    2    1    2    0    0 -0.46980817601E+02  0.18736255381E+02  0.38020229807E+03  0.40343490132E+03  0.12509071771E+03 0.  0.
          5    1    3    3  502    0 -0.55942595131E+02 -0.33247473845E+02  0.10818733139E+03  0.12632078031E+03  0.41800000000E+01 0.  1.
         -5    1    3    3    0  502  0.89617775301E+01  0.51983729226E+02  0.27201496668E+03  0.27711412100E+03  0.41800000000E+01 0.  1.
        -11    1    1    2    0    0  0.13704559653E+02 -0.34764908306E+01  0.47012132078E+02  0.49092173574E+02  0.00000000000E+00 0. -1.
         11    1    1    2    0    0  0.33276257948E+02 -0.15259764551E+02  0.28752050754E+02  0.46549438018E+02  0.00000000000E+00 0.  1.
</event>
<event>
 7    1  0.2943257E-009  0.7109886E+02  0.7561462E-02  0.1356396E+00
          1   -1    0    0  501    0  0.00000000000E+00  0.00000000000E+00  0.13871307476E+03  0.13871307476E+03  0.00000000000E+00 0. -1.
         -1   -1    0    0    0  501 -0.00000000000E+00 -0.00000000000E+00 -0.96111375211E+02  0.96111375211E+02  0.00000000000E+00 0.  1.
         25    2    1    2    0    0  0.30168509883E+02 -0.23898813364E+02  0.19758779961E+02  0.13236010826E+03  0.12508995405E+03 0.  0.
          5    1    3    3  502    0  0.45614185927E+02 -0.38453856689E+02  0.61226875209E+02  0.85589460215E+02  0.41800000000E+01 0.  1.
         -5    1    3    3    0  502 -0.15445676044E+02  0.14555043326E+02 -0.41468095248E+02  0.46770648041E+02  0.41800000000E+01 0.  1.
        -11    1    1    2    0    0 -0.37340063827E+02  0.32541254725E+02  0.51640835287E+02  0.71554101873E+02  0.00000000000E+00 0. -1.
         11    1    1    2    0    0  0.71715539439E+01 -0.86424413609E+01 -0.28797915698E+02  0.30910239844E+02  0.00000000000E+00 0.  1.
</event>
<event>
 7    1  0.3233838E-009  0.1019790E+03  0.7561462E-02  0.1276189E+00
         -2   -1    0    0    0  501 -0.00000000000E+00  0.00000000000E+00  0.56229407901E+02  0.56229407901E+02  0.00000000000E+00 0.  1.
          2   -1    0    0  501    0  0.00000000000E+00 -0.00000000000E+00 -0.53891815646E+03  0.53891815646E+03  0.00000000000E+00 0. -1.
         25    2    1    2    0    0 -0.11802659360E+02 -0.97803303757E+02 -0.41678489407E+03  0.44616379975E+03  0.12509076420E+03 0.  0.
          5    1    3    3  502    0 -0.23802883484E+02 -0.79075102873E+02 -0.10542606957E+03  0.13398349787E+03  0.41800000000E+01 0. -1.
         -5    1    3    3    0  502  0.12000224124E+02 -0.18728200884E+02 -0.31135882450E+03  0.31218030188E+03  0.41800000000E+01 0. -1.
        -11    1    1    2    0    0  0.16417218540E+01  0.33370076457E+02 -0.75960631373E+02  0.82983581340E+02  0.00000000000E+00 0. -1.
         11    1    1    2    0    0  0.10160937506E+02  0.64433227300E+02  0.10056776879E+02  0.66000183276E+02  0.00000000000E+00 0.  1.
</event>
<event>
 7    1  0.3700821E-009  0.1229695E+03  0.7561462E-02  0.1238277E+00
         -2   -1    0    0    0  501 -0.00000000000E+00  0.00000000000E+00  0.17795485059E+02  0.17795485059E+02  0.00000000000E+00 0. -1.
          2   -1    0    0  501    0  0.00000000000E+00 -0.00000000000E+00 -0.11398903303E+04  0.11398903303E+04  0.00000000000E+00 0.  1.
         25    2    1    2    0    0 -0.79773235908E+02 -0.42536702035E+02 -0.67737452871E+03  0.69473492278E+03  0.12508885078E+03 0.  0.
          5    1    3    3  502    0 -0.44141405103E+02  0.42223168857E+02 -0.23149714035E+03  0.23945700663E+03  0.41800000000E+01 0.  1.
         -5    1    3    3    0  502 -0.35631830805E+02 -0.84759870892E+02 -0.44587738836E+03  0.45527791615E+03  0.41800000000E+01 0.  1.
        -11    1    1    2    0    0  0.17815299676E+02  0.54205907809E+00 -0.74451786740E+01  0.19316040383E+02  0.00000000000E+00 0. -1.
         11    1    1    2    0    0  0.61957936232E+02  0.41994642957E+02 -0.43727513782E+03  0.44363485216E+03  0.00000000000E+00 0.  1.
</event>
<event>
 7    1  0.2943257E-009  0.1798606E+03  0.7561462E-02  0.1167938E+00
         -2   -1    0    0    0  501 -0.00000000000E+00  0.00000000000E+00  0.25496668401E+03  0.25496668401E+03  0.00000000000E+00 0.  1.
          2   -1    0    0  501    0  0.00000000000E+00 -0.00000000000E+00 -0.50242805792E+03  0.50242805792E+03  0.00000000000E+00 0. -1.
         25    2    1    2    0    0 -0.14842236034E+03 -0.93602660883E+02  0.18359385214E+03  0.28309874521E+03  0.12509013480E+03 0.  0.
          5    1    3    3  502    0 -0.15087374205E+02 -0.18466547130E+02  0.11108395118E+03  0.11369150731E+03  0.41800000000E+01 0.  1.
         -5    1    3    3    0  502 -0.13333498614E+03 -0.75136113753E+02  0.72509900959E+02  0.16940723791E+03  0.41800000000E+01 0.  1.
        -11    1    1    2    0    0  0.22929899672E+02  0.39660193409E+02 -0.42726235723E+02  0.62643774305E+02  0.00000000000E+00 0.  1.
         11    1    1    2    0    0  0.12549246067E+03  0.53942467474E+02 -0.38832899033E+03  0.41165222241E+03  0.00000000000E+00 0. -1.
</event>
<event>
 7    1  0.2943257E-009  0.1147339E+03  0.7561462E-02  0.1252046E+00
          1   -1    0    0  501    0  0.00000000000E+00  0.00000000000E+00  0.34031678994E+03  0.34031678994E+03  0.00000000000E+00 0. -1.
         -1   -1    0    0    0  501 -0.00000000000E+00 -0.00000000000E+00 -0.54606167588E+02  0.54606167588E+02  0.00000000000E+00 0.  1.
         25    2    1    2    0    0 -0.48697688124E+01  0.71853906601E+02  0.13276330114E+03  0.19611341589E+03  0.12509068398E+03 0.  0.
          5    1    3    3  502    0  0.31957888870E+02  0.92976532989E+01 -0.10755293142E+02  0.35226435364E+02  0.41800000000E+01 0. -1.
         -5    1    3    3    0  502 -0.36827657682E+02  0.62556253302E+02  0.14351859428E+03  0.16088698052E+03  0.41800000000E+01 0. -1.
        -11    1    1    2    0    0 -0.46455565594E+02 -0.21077187136E+02  0.40299840935E+02  0.65011111139E+02  0.00000000000E+00 0. -1.
         11    1    1    2    0    0  0.51325334406E+02 -0.50776719465E+02  0.11264748028E+03  0.13379843050E+03  0.00000000000E+00 0.  1.
</event>
<event>
 7    1  0.2943257E-009  0.2492029E+03  0.7561462E-02  0.1113810E+00
          1   -1    0    0  501    0  0.00000000000E+00  0.00000000000E+00  0.37722780436E+03  0.37722780436E+03  0.00000000000E+00 0. -1.
         -1   -1    0    0    0  501 -0.00000000000E+00 -0.00000000000E+00 -0.24951976998E+03  0.24951976998E+03  0.00000000000E+00 0.  1.
         25    2    1    2    0    0  0.22766973441E+03  0.43862030074E+02 -0.10708943804E+03  0.28438207755E+03  0.12509049783E+03 0.  0.
          5    1    3    3  502    0  0.24171388395E+03  0.31608077083E+02 -0.10386801724E+03  0.26501077268E+03  0.41800000000E+01 0.  1.
         -5    1    3    3    0  502 -0.14044149545E+02  0.12253952990E+02 -0.32214207941E+01  0.19371304868E+02  0.41800000000E+01 0.  1.
        -11    1    1    2    0    0 -0.17561648792E+03 -0.51201915024E+02  0.12779200655E+03  0.22314475990E+03  0.00000000000E+00 0.  1.
         11    1    1    2    0    0 -0.52053246484E+02  0.73398849505E+01  0.10700546587E+03  0.11922073689E+03  0.00000000000E+00 0. -1.
</event>
<event>
 7    1  0.2943257E-009  0.1172190E+03  0.7561462E-02  0.1247757E+00
         -1   -1    0    0    0  501 -0.00000000000E+00  0.00000000000E+00  0.26879727403E+03  0.26879727403E+03  0.00000000000E+00 0.  1.
          1   -1    0    0  501    0  0.00000000000E+00 -0.00000000000E+00 -0.55607989090E+02  0.55607989090E+02  0.00000000000E+00 0. -1.
         25    2    1    2    0    0 -0.34693525608E+02 -0.37363140384E+02  0.84658866259E+02  0.15941346146E+03  0.12508350442E+03 0.  0.
          5    1    3    3  502    0 -0.58418403463E+02 -0.71776513327E+02  0.52259402745E+02  0.10636303542E+03  0.41800000000E+01 0. -1.
         -5    1    3    3    0  502  0.23724877855E+02  0.34413372943E+02  0.32399463513E+02  0.53050426035E+02  0.41800000000E+01 0. -1.
        -11    1    1    2    0    0 -0.36685340886E+01 -0.25708681269E+02  0.54873708858E+02  0.60708470239E+02  0.00000000000E+00 0. -1.
         11    1    1    2    0    0  0.38362059697E+02  0.63071821652E+02  0.73656709819E+02  0.10428333142E+03  0.00000000000E+00 0.  1.
</event>
<event>
 7    1  0.2943257E-009  0.1148870E+03  0.7561462E-02  0.1251778E+00
          3   -1    0    0  501    0  0.00000000000E+00  0.00000000000E+00  0.95017240784E+02  0.95017240784E+02  0.00000000000E+00 0. -1.
         -3   -1    0    0    0  501 -0.00000000000E+00 -0.00000000000E+00 -0.25545314510E+03  0.25545314510E+03  0.00000000000E+00 0.  1.
         25    2    1    2    0    0 -0.80068798603E+02  0.35932159856E+02 -0.94352743637E+01  0.15309424992E+03  0.12508673925E+03 0.  0.
          5    1    3    3  502    0 -0.51900989318E+02  0.50684921235E+02  0.48157613229E+02  0.87173975731E+02  0.41800000000E+01 0. -1.
         -5    1    3    3    0  502 -0.28167809285E+02 -0.14752761379E+02 -0.57592887593E+02  0.65920274191E+02  0.41800000000E+01 0. -1.
        -11    1    1    2    0    0  0.67314671482E+02  0.17950539580E+02 -0.66235271227E+02  0.96128029328E+02  0.00000000000E+00 0.  1.
         11    1    1    2    0    0  0.12754127121E+02 -0.53882699436E+02 -0.84765358722E+02  0.10124810663E+03  0.00000000000E+00 0. -1.
</event>
<event>
 7    1  0.2943257E-009  0.2733533E+03  0.7561462E-02  0.1099376E+00
          1   -1    0    0  501    0  0.00000000000E+00  0.00000000000E+00  0.74933663790E+03  0.74933663790E+03  0.00000000000E+00 0. -1.
         -1   -1    0    0    0  501 -0.00000000000E+00 -0.00000000000E+00 -0.10401574236E+03  0.10401574236E+03  0.00000000000E+00 0.  1.
         25    2    1    2    0    0 -0.42356784291E+02  0.25378745543E+03  0.32009499671E+03  0.42931402101E+03  0.12509017548E+03 0.  0.
          5    1    3    3  502    0 -0.50396524969E+02  0.30647921946E+02  0.97309738997E+02  0.11386730238E+03  0.41800000000E+01 0. -1.
         -5    1    3    3    0  502  0.80397406786E+01  0.22313953349E+03  0.22278525772E+03  0.31544671862E+03  0.41800000000E+01 0. -1.
        -11    1    1    2    0    0  0.55640120399E+02 -0.23323468871E+03  0.31848278647E+03  0.39865464790E+03  0.00000000000E+00 0. -1.
         11    1    1    2    0    0 -0.13283336108E+02 -0.20552766726E+02  0.67431123542E+01  0.25383711361E+02  0.00000000000E+00 0.  1.
</event>
<event>
 7    1  0.2943257E-009  0.1770973E+03  0.7561462E-02  0.1170642E+00
          2   -1    0    0  501    0  0.00000000000E+00  0.00000000000E+00  0.70217821245E+03  0.70217821245E+03  0.00000000000E+00 0. -1.
         -2   -1    0    0    0  501 -0.00000000000E+00 -0.00000000000E+00 -0.55641044565E+02  0.55641044565E+02  0.00000000000E+00 0.  1.
         25    2    1    2    0    0  0.15150978221E+03  0.65060068206E+02  0.33521116212E+03  0.39395710644E+03  0.12509057488E+03 0.  0.
          5    1    3    3  502    0  0.16125035339E+03  0.48983402949E+02  0.22007158798E+03  0.27721837325E+03  0.41800000000E+01 0.  1.
         -5    1    3    3    0  502 -0.97405711800E+01  0.16076665257E+02  0.11513957414E+03  0.11673873319E+03  0.41800000000E+01 0.  1.
        -11    1    1    2    0    0 -0.88544845458E+02 -0.49736447617E+02  0.26614688893E+03  0.28486500375E+03  0.00000000000E+00 0.  1.
         11    1    1    2    0    0 -0.62964936752E+02 -0.15323620589E+02  0.45179116844E+02  0.78997146827E+02  0.00000000000E+00 0. -1.
</event>
<event>
 7    1  0.2943257E-009  0.1154520E+03  0.7561462E-02  0.1250794E+00
         -4   -1    0    0    0  501 -0.00000000000E+00  0.00000000000E+00  0.20858200000E+03  0.20858200000E+03  0.00000000000E+00 0.  1.
          4   -1    0    0  501    0  0.00000000000E+00 -0.00000000000E+00 -0.74468057825E+02  0.74468057825E+02  0.00000000000E+00 0. -1.
         25    2    1    2    0    0 -0.95616846917E+01  0.41403086129E+02  0.12491155824E+03  0.18181389606E+03  0.12509098314E+03 0.  0.
          5    1    3    3  502    0 -0.17805991726E+01 -0.44267849909E+02  0.55902257619E+02  0.71451717095E+02  0.41800000000E+01 0. -1.
         -5    1    3    3    0  502 -0.77810855191E+01  0.85670936038E+02  0.69009300624E+02  0.11036217897E+03  0.41800000000E+01 0. -1.
        -11    1    1    2    0    0  0.48557085135E+02 -0.85827620725E+01 -0.69817268988E+00  0.49314721602E+02  0.00000000000E+00 0. -1.
         11    1    1    2    0    0 -0.38995400443E+02 -0.32820324057E+02  0.99005566196E+01  0.51921440160E+02  0.00000000000E+00 0.  1.
</event>
<event>
 7    1  0.2943257E-009  0.6136287E+02  0.7561462E-02  0.1392200E+00
          1   -1    0    0  501    0  0.00000000000E+00  0.00000000000E+00  0.51103410307E+02  0.51103410307E+02  0.00000000000E+00 0. -1.
         -1   -1    0    0    0  501 -0.00000000000E+00 -0.00000000000E+00 -0.25164242180E+03  0.25164242180E+03  0.00000000000E+00 0.  1.
         25    2    1    2    0    0 -0.25964724816E+02  0.71976095766E+01 -0.77517573325E+02  0.14960741645E+03  0.12508969727E+03 0.  0.
          5    1    3    3  502    0  0.19105762724E+01  0.21700400467E+02  0.30115878331E+02  0.37403157751E+02  0.41800000000E+01 0.  1.
         -5    1    3    3    0  502 -0.27875301089E+02 -0.14502790890E+02 -0.10763345166E+03  0.11220425870E+03  0.41800000000E+01 0.  1.
        -11    1    1    2    0    0 -0.12742959091E+02 -0.23587971219E+02 -0.10327192862E+03  0.10669520436E+03  0.00000000000E+00 0.  1.
         11    1    1    2    0    0  0.38707683907E+02  0.16390361642E+02 -0.19749509547E+02  0.46443211297E+02  0.00000000000E+00 0. -1.
</event>
<event>
 7    1  0.2943257E-009  0.1187826E+03  0.7561462E-02  0.1245119E+00
         -2   -1    0    0    0  501 -0.00000000000E+00  0.00000000000E+00  0.21013011724E+02  0.21013011724E+02  0.00000000000E+00 0.  1.
          2   -1    0    0  501    0  0.00000000000E+00 -0.00000000000E+00 -0.76577203593E+03  0.76577203593E+03  0.00000000000E+00 0. -1.
         25    2    1    2    0    0 -0.55203281354E+02  0.35160940694E+02 -0.38071322688E+03  0.40604597933E+03  0.12508829754E+03 0.  0.
          5    1    3    3  502    0 -0.71316970273E+02 -0.17680549770E+02 -0.29457808891E+03  0.30363207168E+03  0.41800000000E+01 0. -1.
         -5    1    3    3    0  502  0.16113688919E+02  0.52841490465E+02 -0.86135137978E+02  0.10241390765E+03  0.41800000000E+01 0. -1.
        -11    1    1    2    0    0  0.55891882625E+02 -0.60992277199E+02 -0.23513219347E+03  0.24926112579E+03  0.00000000000E+00 0.  1.
         11    1    1    2    0    0 -0.68860127142E+00  0.25831336505E+02 -0.12891360384E+03  0.13147794253E+03  0.00000000000E+00 0. -1.
</event>
<event>
 7    1  0.2943257E-009  0.8462163E+02  0.7561462E-02  0.1316425E+00
          1   -1    0    0  501    0  0.00000000000E+00  0.00000000000E+00  0.37669787122E+03  0.37669787122E+03  0.00000000000E+00 0. -1.
         -1   -1    0    0    0  501 -0.00000000000E+00 -0.00000000000E+00 -0.34985485486E+02  0.34985485486E+02  0.00000000000E+00 0.  1.
         25    2    1    2    0    0 -0.29801066535E+02 -0.22244732270E+02  0.17905429943E+03  0.22156674075E+03  0.12509375196E+03 0.  0.
          5    1    3    3  502    0 -0.16362316763E+02  0.29674254887E+02 -0.48025961413E+00  0.34146593714E+02  0.41800000000E+01 0. -1.
         -5    1    3    3    0  502 -0.13438749771E+02 -0.51918987157E+02  0.17953455905E+03  0.18742014703E+03  0.41800000000E+01 0. -1.
        -11    1    1    2    0    0  0.53414924553E+02  0.88019859232E+01  0.15125125744E+03  0.16064735291E+03  0.00000000000E+00 0. -1.
         11    1    1    2    0    0 -0.23613858018E+02  0.13442746347E+02  0.11406828868E+02  0.29469263049E+02  0.00000000000E+00 0.  1.
</event>
<event>
 7    1  0.2943257E-009  0.1160856E+03  0.7561462E-02  0.1249698E+00
          1   -1    0    0  501    0  0.00000000000E+00  0.00000000000E+00  0.27979429942E+03  0.27979429942E+03  0.00000000000E+00 0. -1.
         -1   -1    0    0    0  501 -0.00000000000E+00 -0.00000000000E+00 -0.74298026316E+02  0.74298026316E+02  0.00000000000E+00 0.  1.
         25    2    1    2    0    0  0.71421400016E+02  0.43781562786E+02  0.17145280275E+03  0.22817021063E+03  0.12509092624E+03 0.  0.
          5    1    3    3  502    0  0.48518067356E+02 -0.18300844979E+02  0.91171046976E+01  0.52815885726E+02  0.41800000000E+01 0.  1.
         -5    1    3    3    0  502  0.22903332660E+02  0.62082407764E+02  0.16233569805E+03  0.17535432491E+03  0.41800000000E+01 0.  1.
        -11    1    1    2    0    0  0.16774066982E+02 -0.90168128293E+01 -0.98649268660E+01  0.21447354587E+02  0.00000000000E+00 0.  1.
         11    1    1    2    0    0 -0.88195466998E+02 -0.34764749957E+02  0.43908397217E+02  0.10447476051E+03  0.00000000000E+00 0. -1.
</event>
<event>
 7    1  0.2943257E-009  0.1335344E+03  0.7561462E-02  0.1222304E+00
         -1   -1    0    0    0  501 -0.00000000000E+00  0.00000000000E+00  0.87748675064E+02  0.87748675064E+02  0.00000000000E+00 0.  1.
          1   -1    0    0  501    0  0.00000000000E+00 -0.00000000000E+00 -0.29736345577E+03  0.29736345577E+03  0.00000000000E+00 0. -1.
         25    2    1    2    0    0 -0.15027517196E+02  0.84360586225E+02 -0.13542764115E+02  0.15222919719E+03  0.12509111574E+03 0.  0.
          5    1    3    3  502    0 -0.64881815193E+02  0.47608008638E+02  0.18041883955E+02  0.82578171485E+02  0.41800000000E+01 0.  1.
         -5    1    3    3    0  502  0.49854297996E+02  0.36752577587E+02 -0.31584648070E+02  0.69651025705E+02  0.41800000000E+01 0.  1.
        -11    1    1    2    0    0 -0.27651657050E+02  0.23615569464E+01 -0.31105965971E+02  0.41686595061E+02  0.00000000000E+00 0.  1.
         11    1    1    2    0    0  0.42679174246E+02 -0.86722143171E+02 -0.16496605062E+03  0.19119633859E+03  0.00000000000E+00 0. -1.
</event>
<event>
 7    1  0.2943257E-009  0.1122109E+03  0.7561462E-02  0.1256530E+00
          1   -1    0    0  501    0  0.00000000000E+00  0.00000000000E+00  0.51608653884E+03  0.51608653884E+03  0.00000000000E+00 0. -1.
         -1   -1    0    0    0  501 -0.00000000000E+00 -0.00000000000E+00 -0.27718680135E+02  0.27718680135E+02  0.00000000000E+00 0.  1.
         25    2    1    2    0    0 -0.37937587446E+02  0.18584167377E+02  0.21380891434E+03  0.25129087120E+03  0.12509283864E+03 0.  0.
          5    1    3    3  502    0  0.72220690392E+00  0.67384199883E+02  0.13338144422E+03  0.14949660210E+03  0.41800000000E+01 0.  1.
         -5    1    3    3    0  502 -0.38659794349E+02 -0.48800032506E+02  0.80427470115E+02  0.10179426910E+03  0.41800000000E+01 0.  1.
        -11    1    1    2    0    0  0.53354123601E+02  0.16777759801E+02  0.20988496860E+03  0.21720924422E+03  0.00000000000E+00 0. -1.
         11    1    1    2    0    0 -0.15416536155E+02 -0.35361927178E+02  0.64673975768E+02  0.75305103562E+02  0.00000000000E+00 0.  1.
</event>
<event>
 7    1  0.2943257E-009  0.9326928E+02  0.7561462E-02  0.1295122E+00
         -2   -1    0    0    0  501 -0.00000000000E+00  0.00000000000E+00  0.18210749837E+02  0.18210749837E+02  0.00000000000E+00 0. -1.
          2   -1    0    0  501    0  0.00000000000E+00 -0.00000000000E+00 -0.89683402934E+03  0.89683402934E+03  0.00000000000E+00 0.  1.
         25    2    1    2    0    0  0.72068448392E+01 -0.64587331713E+02 -0.42628186769E+03  0.44898518965E+03  0.12509199724E+03 0.  0.
          5    1    3    3  502    0 -0.90122302113E+01 -0.76549904181E+02 -0.12440586877E+03  0.14640833551E+03  0.41800000000E+01 0.  1.
         -5    1    3    3    0  502  0.16219075051E+02  0.11962572468E+02 -0.30187599892E+03  0.30257685414E+03  0.41800000000E+01 0.  1.
        -11    1    1    2    0    0 -0.13432872192E+02 -0.81824002809E+01 -0.12215895197E+02  0.19915366558E+02  0.00000000000E+00 0. -1.
         11    1    1    2    0    0  0.62260273525E+01  0.72769731994E+02 -0.44012551662E+03  0.44614422297E+03  0.00000000000E+00 0.  1.
</event>
<event>
 7    1  0.2943257E-009  0.1737460E+03  0.7561462E-02  0.1173997E+00
          1   -1    0    0  501    0  0.00000000000E+00  0.00000000000E+00  0.83661243915E+03  0.83661243915E+03  0.00000000000E+00 0. -1.
         -1   -1    0    0    0  501 -0.00000000000E+00 -0.00000000000E+00 -0.49670272066E+02  0.49670272066E+02  0.00000000000E+00 0.  1.
         25    2    1    2    0    0  0.11469452844E+03 -0.86791063898E+02  0.20520031539E+03  0.28007754978E+03  0.12509492728E+03 0.  0.
          5    1    3    3  502    0  0.30718434742E+02  0.24737642261E+02  0.11542978108E+02  0.41307213913E+02  0.41800000000E+01 0.  1.
         -5    1    3    3    0  502  0.83976093694E+02 -0.11152870616E+03  0.19365733728E+03  0.23877033587E+03  0.41800000000E+01 0.  1.
        -11    1    1    2    0    0 -0.37687744125E+02 -0.14963906756E+02  0.18713503699E+03  0.19147795338E+03  0.00000000000E+00 0. -1.
         11    1    1    2    0    0 -0.77006784312E+02  0.10175497065E+03  0.39460681471E+03  0.41472720805E+03  0.00000000000E+00 0.  1.
</event>
<event>
 7    1  0.2943257E-009  0.1163093E+03  0.7561462E-02  0.1249313E+00
         -1   -1    0    0    0  501 -0.00000000000E+00  0.00000000000E+00  0.40430589423E+02  0.40430589423E+02  0.00000000000E+00 0.  1.
          1   -1    0    0  501    0  0.00000000000E+00 -0.00000000000E+00 -0.37797707371E+03  0.37797707371E+03  0.00000000000E+00 0. -1.
         25    2    1    2    0    0  0.75114818307E+00  0.52115645466E+02 -0.13651658330E+03  0.19235602872E+03  0.12508980592E+03 0.  0.
          5    1    3    3  502    0  0.28366723547E+02 -0.31294666310E+02 -0.21558214175E+02  0.47605211297E+02  0.41800000000E+01 0.  1.
         -5    1    3    3    0  502 -0.27615575364E+02  0.83410311776E+02 -0.11495836912E+03  0.14475081742E+03  0.41800000000E+01 0.  1.
        -11    1    1    2    0    0 -0.72055860085E+01  0.24391344956E+02 -0.36481143116E+02  0.44471698658E+02  0.00000000000E+00 0. -1.
         11    1    1    2    0    0  0.64544378254E+01 -0.76506990422E+02 -0.16454875788E+03  0.18157993576E+03  0.00000000000E+00 0.  1.
</event>
<event>
 7    1  0.2943257E-009  0.1326234E+03  0.7561462E-02  0.1223614E+00
         -2   -1    0    0    0  501 -0.00000000000E+00  0.00000000000E+00  0.29516815224E+02  0.29516815224E+02  0.00000000000E+00 0.  1.
          2   -1    0    0  501    0  0.00000000000E+00 -0.00000000000E+00 -0.64684544128E+03  0.64684544128E+03  0.00000000000E+00 0. -1.
         25    2    1    2    0    0 -0.10688313008E+01 -0.86597271077E+02 -0.33095550889E+03  0.36425185396E+03  0.12509050519E+03 0.  0.
          5    1    3    3  502    0  0.43587593520E+02 -0.87238874993E+02 -0.27915672587E+03  0.29573036641E+03  0.41800000000E+01 0. -1.
         -5    1    3    3    0  502 -0.44656424821E+02  0.64160391653E+00 -0.51798783019E+02  0.68521487547E+02  0.41800000000E+01 0. -1.
        -11    1    1    2    0    0 -0.40415991696E+02  0.63575497689E+02 -0.15280764505E+03  0.17036863760E+03  0.00000000000E+00 0.  1.
         11    1    1    2    0    0  0.41484822997E+02  0.23021773388E+02 -0.13356547212E+03  0.14174176495E+03  0.00000000000E+00 0. -1.
</event>
<event>
 7    1  0.2943257E-009  0.9468274E+02  0.7561462E-02  0.1291892E+00
          2   -1    0    0  501    0  0.00000000000E+00  0.00000000000E+00  0.26014675468E+03  0.26014675468E+03  0.00000000000E+00 0. -1.
         -2   -1    0    0    0  501 -0.00000000000E+00 -0.00000000000E+00 -0.13236150055E+03  0.13236150055E+03  0.00000000000E+00 0.  1.
         25    2    1    2    0    0 -0.55863484250E+02 -0.40507754969E+02  0.20973528708E+03  0.25376965882E+03  0.12509413258E+03 0.  0.
          5    1    3    3  502    0 -0.28867324748E+02 -0.60484302787E+02  0.20942324197E+03  0.21992553285E+03  0.41800000000E+01 0.  1.
         -5    1    3    3    0  502 -0.26996159502E+02  0.19976547818E+02  0.31204510747E+00  0.33844125971E+02  0.41800000000E+01 0.  1.
        -11    1    1    2    0    0  0.42028716296E+02  0.54414909389E+02 -0.93435614682E+02  0.11600693707E+03  0.00000000000E+00 0.  1.
         11    1    1    2    0    0  0.13834767955E+02 -0.13907154420E+02  0.11485581737E+02  0.22731659338E+02  0.00000000000E+00 0. -1.
</event>
<event>
 7    1  0.2943257E-009  0.8466299E+02  0.7561462E-02  0.1316316E+00
         -2   -1    0    0    0  501 -0.00000000000E+00  0.00000000000E+00  0.10602606122E+03  0.10602606122E+03  0.00000000000E+00 0. -1.
          2   -1    0    0  501    0  0.00000000000E+00 -0.00000000000E+00 -0.17416404305E+03  0.17416404305E+03  0.00000000000E+00 0.  1.
         25    2    1    2    0    0 -0.37390997566E+02  0.72192028969E+01 -0.11148734242E+03  0.17183374607E+03  0.12508878917E+03 0.  0.
          5    1    3    3  502    0 -0.51270679807E+02 -0.49719940658E+02 -0.54009803962E+02  0.89639759208E+02  0.41800000000E+01 0. -1.
         -5    1    3    3    0  502  0.13879682242E+02  0.56939143554E+02 -0.57477538463E+02  0.82193986858E+02  0.41800000000E+01 0. -1.
        -11    1    1    2    0    0  0.12909703650E+02  0.15979334794E+01  0.69947617489E+02  0.71146911613E+02  0.00000000000E+00 0. -1.
         11    1    1    2    0    0  0.24481293916E+02 -0.88171363763E+01 -0.26598256898E+02  0.37209446592E+02  0.00000000000E+00 0.  1.
</event>
<event>
 6    1  0.2943257E-009  0.1004995E+03  0.7561462E-02  0.1279249E+00
          2   -1    0    0  501    0  0.00000000000E+00  0.00000000000E+00  0.44497653226E+02  0.44497653226E+02  0.00000000000E+00 0. -1.
         -2   -1    0    0    0  501 -0.00000000000E+00 -0.00000000000E+00 -0.34968653844E+03  0.34968653844E+03  0.00000000000E+00 0.  1.
          5    1    1    2  502    0 -0.78713592804E+02  0.13555338671E+02 -0.15031308174E+03  0.17026764767E+03  0.41800000000E+01 0. -1.
         -5    1    1    2    0  502  0.18961345517E+02 -0.21067408404E+02  0.68325734801E+01  0.29453773630E+02  0.41800000000E+01 0. -1.
        -11    1    1    2    0    0  0.61413754101E+02  0.31018126354E+02 -0.15557971304E+03  0.17011413953E+03  0.00000000000E+00 0.  1.
         11    1    1    2    0    0 -0.16615068135E+01 -0.23506056621E+02 -0.61286639072E+01  0.24348630846E+02  0.00000000000E+00 0. -1.
</event>
<event>
 7    1  0.2943257E-009  0.2685686E+03  0.7561462E-02  0.1102102E+00
         -2   -1    0    0    0  501 -0.00000000000E+00  0.00000000000E+00  0.13332755522E+03  0.13332755522E+03  0.00000000000E+00 0.  1.
          2   -1    0    0  501    0  0.00000000000E+00 -0.00000000000E+00 -0.68854521429E+03  0.68854521429E+03  0.00000000000E+00 0. -1.
         25    2    1    2    0    0 -0.22409433341E+03 -0.14042615907E+03 -0.14788407933E+03  0.32780802763E+03  0.12510246057E+03 0.  0.
          5    1    3    3  502    0 -0.56394230469E+02 -0.50068653392E+02  0.15155723998E+02  0.77034717190E+02  0.41800000000E+01 0. -1.
         -5    1    3    3    0  502 -0.16770010294E+03 -0.90357505679E+02 -0.16303980333E+03  0.25077331044E+03  0.41800000000E+01 0. -1.
        -11    1    1    2    0    0  0.11562096030E+03  0.37539604263E+02 -0.12366014566E+03  0.17340490181E+03  0.00000000000E+00 0.  1.
         11    1    1    2    0    0  0.10847337311E+03  0.10288655481E+03 -0.28367343407E+03  0.32065984007E+03  0.00000000000E+00 0. -1.
</event>
<event>
 7    1  0.2943257E-009  0.1394460E+03  0.7561462E-02  0.1214076E+00
         -1   -1    0    0    0  501 -0.00000000000E+00  0.00000000000E+00  0.31021971825E+03  0.31021971825E+03  0.00000000000E+00 0.  1.
          1   -1    0    0  501    0  0.00000000000E+00 -0.00000000000E+00 -0.87589652297E+02  0.87589652297E+02  0.00000000000E+00 0. -1.
         25    2    1    2    0    0  0.10699901537E+03 -0.53154295913E+02  0.15402919820E+03  0.23161070351E+03  0.12507739851E+03 0.  0.
          5    1    3    3  502    0  0.45507353647E+02 -0.49429598512E+02  0.18068440709E+01  0.67341974507E+02  0.41800000000E+01 0. -1.
         -5    1    3    3    0  502  0.61491661720E+02 -0.37246974007E+01  0.15222235412E+03  0.16426872900E+03  0.41800000000E+01 0. -1.
        -11    1    1    2    0    0 -0.21297198093E+02 -0.25693967567E+02  0.25589030742E+02  0.42054121205E+02  0.00000000000E+00 0. -1.
         11    1    1    2    0    0 -0.85701817274E+02  0.78848263480E+02  0.43011837018E+02  0.12414454584E+03  0.00000000000E+00 0.  1.
</event>
<event>
 7    1  0.2943257E-009  0.2605679E+03  0.7561462E-02  0.1106803E+00
         -2   -1    0    0    0  501 -0.00000000000E+00  0.00000000000E+00  0.11308937113E+03  0.11308937113E+03  0.00000000000E+00 0.  1.
          2   -1    0    0  501    0  0.00000000000E+00 -0.00000000000E+00 -0.63172083750E+03  0.63172083750E+03  0.00000000000E+00 0. -1.
         25    2    1    2    0    0 -0.74628618017E+02  0.22451005899E+03 -0.34853844803E+03  0.43943350971E+03  0.12509421444E+03 0.  0.
          5    1    3    3  502    0  0.55439642465E+01 -0.14174391684E+02 -0.21729290144E+02  0.26856719259E+02  0.41800000000E+01 0.  1.
         -5    1    3    3    0  502 -0.80172582263E+02  0.23868445068E+03 -0.32680915788E+03  0.41257679045E+03  0.41800000000E+01 0.  1.
        -11    1    1    2    0    0  0.95405365857E+02 -0.16632929689E+03 -0.12507650496E+03  0.22893612850E+03  0.00000000000E+00 0. -1.
         11    1    1    2    0    0 -0.20776747840E+02 -0.58180762101E+02 -0.45016513387E+02  0.76440570425E+02  0.00000000000E+00 0.  1.
</event>
<event>
 7    1  0.2943257E-009  0.1092626E+03  0.7561462E-02  0.1261942E+00
         -2   -1    0    0    0  501 -0.00000000000E+00  0.00000000000E+00  0.14270354170E+03  0.14270354170E+03  0.00000000000E+00 0.  1.
          2   -1    0    0  501    0  0.00000000000E+00 -0.00000000000E+00 -0.11161665175E+03  0.11161665175E+03  0.00000000000E+00 0. -1.
         25    2    1    2    0    0 -0.32022547992E+02 -0.33829777429E+02  0.30734304419E+02  0.13697494003E+03  0.12509052446E+03 0.  0.
          5    1    3    3  502    0  0.70493168375E+01 -0.74308659448E+02  0.30004035993E+02  0.80555473511E+02  0.41800000000E+01 0.  1.
         -5    1    3    3    0  502 -0.39071864830E+02  0.40478882019E+02  0.73026842528E+00  0.56419466523E+02  0.41800000000E+01 0.  1.
        -11    1    1    2    0    0 -0.14602246464E+02  0.37834615931E+02 -0.38953060635E+02  0.56231883280E+02  0.00000000000E+00 0. -1.
         11    1    1    2    0    0  0.46624794456E+02 -0.40048385017E+01  0.39305646163E+02  0.61113370140E+02  0.00000000000E+00 0.  1.
</event>
<event>
 7    1  0.2943257E-009  0.1207719E+03  0.7561462E-02  0.1241829E+00
         -1   -1    0    0    0  501 -0.00000000000E+00  0.00000000000E+00  0.22336819159E+02  0.22336819159E+02  0.00000000000E+00 0.  1.
          1   -1    0    0  501    0  0.00000000000E+00 -0.00000000000E+00 -0.79304335818E+03  0.79304335818E+03  0.00000000000E+00 0. -1.
         25    2    1    2    0    0 -0.66372937470E+02  0.23808526715E+02 -0.33704678036E+03  0.36636151020E+03  0.12509201108E+03 0.  0.
          5    1    3    3  502    0 -0.76388523630E+02  0.59095645605E+02 -0.17265774117E+03  0.19787791655E+03  0.41800000000E+01 0. -1.
         -5    1    3    3    0  502  0.10015586160E+02 -0.35287118890E+02 -0.16438903919E+03  0.16848359365E+03  0.41800000000E+01 0. -1.
        -11    1    1    2    0    0  0.13964657849E+02  0.29847006059E+02 -0.65795328016E+02  0.73585872477E+02  0.00000000000E+00 0.  1.
         11    1    1    2    0    0  0.52408279621E+02 -0.53655532774E+02 -0.36786443065E+03  0.37543279466E+03  0.00000000000E+00 0. -1.
</event>
<event>
 7    1  0.2943257E-009  0.1921624E+03  0.7561462E-02  0.1156525E+00
          1   -1    0    0  501    0  0.00000000000E+00  0.00000000000E+00  0.11877073221E+03  0.11877073221E+03  0.00000000000E+00 0. -1.
         -1   -1    0    0    0  501 -0.00000000000E+00 -0.00000000000E+00 -0.38116673122E+03  0.38116673122E+03  0.00000000000E+00 0.  1.
         25    2    1    2    0    0 -0.53613606467E+02  0.18116986047E+03 -0.13177583946E+03  0.26212289537E+03  0.12508638323E+03 0.  0.
          5    1    3    3  502    0 -0.35668043397E+01  0.38030182684E+01 -0.66094281453E+02  0.66431253804E+02  0.41800000000E+01 0. -1.
         -5    1    3    3    0  502 -0.50046802127E+02  0.17736684220E+03 -0.65681558010E+02  0.19569164157E+03  0.41800000000E+01 0. -1.
        -11    1    1    2    0    0  0.58359510038E+02 -0.13745873277E+03 -0.12239552439E+03  0.19308391962E+03  0.00000000000E+00 0.  1.
         11    1    1    2    0    0 -0.47459035717E+01 -0.43711127703E+02 -0.82246351531E+01  0.44730648433E+02  0.00000000000E+00 0. -1.
</event>
<event>
 7    1  0.2943257E-009  0.8626643E+02  0.7561462E-02  0.1312154E+00
          1   -1    0    0  501    0  0.00000000000E+00  0.00000000000E+00  0.25671252074E+03  0.25671252074E+03  0.00000000000E+00 0. -1.
         -1   -1    0    0    0  501 -0.00000000000E+00 -0.00000000000E+00 -0.59172293796E+02  0.59172293796E+02  0.00000000000E+00 0.  1.
         25    2    1    2    0    0  0.13379245442E+02 -0.56269011841E+02  0.11615252080E+03  0.18022264079E+03  0.12507432296E+03 0.  0.
          5    1    3    3  502    0  0.41844940425E+02 -0.26484857867E+02 -0.70967887844E+01  0.50202425703E+02  0.41800000000E+01 0. -1.
         -5    1    3    3    0  502 -0.28465694983E+02 -0.29784153974E+02  0.12324930958E+03  0.13002021509E+03  0.41800000000E+01 0. -1.
        -11    1    1    2    0    0 -0.14770079788E+02 -0.82309640803E+01  0.67610181840E+02  0.69692472442E+02  0.00000000000E+00 0. -1.
         11    1    1    2    0    0  0.13908343465E+01  0.64499975921E+02  0.13777524304E+02  0.65969701303E+02  0.00000000000E+00 0.  1.
</event>
<event>
 6    1  0.4830605E-009  0.1428942E+03  0.7561462E-02  0.1209487E+00
         -1   -1    0    0    0  501 -0.00000000000E+00  0.00000000000E+00  0.21321746135E+02  0.21321746135E+02  0.00000000000E+00 0. -1.
          1   -1    0    0  501    0  0.00000000000E+00 -0.00000000000E+00 -0.11431767878E+04  0.11431767878E+04  0.00000000000E+00 0.  1.
          5    1    1    2  502    0 -0.77656586999E+01  0.12938568141E+02 -0.98664332907E+01  0.18507590509E+02  0.41800000000E+01 0. -1.
         -5    1    1    2    0  502  0.20238340180E+02 -0.12403077463E+03 -0.64551998143E+03  0.65765244795E+03  0.41800000000E+01 0. -1.
        -11    1    1    2    0    0  0.39877538308E+02  0.48761418644E+02 -0.19389310506E+03  0.20386865919E+03  0.00000000000E+00 0.  1.
         11    1    1    2    0    0 -0.52350219788E+02  0.62330787849E+02 -0.27257552185E+03  0.28446983625E+03  0.00000000000E+00 0. -1.
</event>
<event>
 7    1  0.2943257E-009  0.2729114E+03  0.7561462E-02  0.1099625E+00
          1   -1    0    0  501    0  0.00000000000E+00  0.00000000000E+00  0.18390731314E+03  0.18390731314E+03  0.00000000000E+00 0. -1.
         -1   -1    0    0    0  501 -0.00000000000E+00 -0.00000000000E+00 -0.41140791254E+03  0.41140791254E+03  0.00000000000E+00 0.  1.
         25    2    1    2    0    0 -0.15463812631E+03 -0.19727702214E+03 -0.83904486743E+02  0.29243607788E+03  0.12509085970E+03 0.  0.
          5    1    3    3  502    0 -0.75328160486E+01  0.17660035409E+02 -0.56904364868E+01  0.20456628160E+02  0.41800000000E+01 0. -1.
         -5    1    3    3    0  502 -0.14710531026E+03 -0.21493705755E+03 -0.78214050256E+02  0.27197944972E+03  0.41800000000E+01 0. -1.
        -11    1    1    2    0    0  0.14556952423E+03  0.12220347434E+03 -0.11428768959E+03  0.22177883469E+03  0.00000000000E+00 0. -1.
         11    1    1    2    0    0  0.90686020757E+01  0.75073547800E+02 -0.29308423069E+02  0.81100313105E+02  0.00000000000E+00 0.  1.
</event>
<event>
 7    1  0.2943257E-009  0.1067048E+03  0.7561462E-02  0.1266797E+00
         -2   -1    0    0    0  501 -0.00000000000E+00  0.00000000000E+00  0.53282279002E+02  0.53282279002E+02  0.00000000000E+00 0.  1.
          2   -1    0    0  501    0  0.00000000000E+00 -0.00000000000E+00 -0.23783352410E+03  0.23783352410E+03  0.00000000000E+00 0. -1.
         25    2    1    2    0    0 -0.22601532225E+02  0.10052491673E+02 -0.84609524374E+02  0.15303477429E+03  0.12509591792E+03 0.  0.
          5    1    3    3  502    0 -0.46661459195E+02  0.55696567842E+02 -0.65313618327E+02  0.97789266193E+02  0.41800000000E+01 0. -1.
         -5    1    3    3    0  502  0.24059926970E+02 -0.45644076169E+02 -0.19295906047E+02  0.55245508100E+02  0.41800000000E+01 0. -1.
        -11    1    1    2    0    0  0.47205483603E+02  0.18918133175E+02 -0.80932078766E+02  0.95583758131E+02  0.00000000000E+00 0. -1.
         11    1    1    2    0    0 -0.24603951378E+02 -0.28970624848E+02 -0.19009641957E+02  0.42497270676E+02  0.00000000000E+00 0.  1.
</event>
<event>
 7    1  0.2943257E-009  0.1057515E+03  0.7561462E-02  0.1268646E+00
          1   -1    0    0  501    0  0.00000000000E+00  0.00000000000E+00  0.43636952857E+03  0.43636952857E+03  0.00000000000E+00 0. -1.
         -1   -1    0    0    0  501 -0.00000000000E+00 -0.00000000000E+00 -0.30934540633E+02  0.30934540633E+02  0.00000000000E+00 0.  1.
         25    2    1    2    0    0 -0.19673410770E+02  0.28946252020E+02  0.19069812029E+03  0.23073416338E+03  0.12509017735E+03 0.  0.
          5    1    3    3  502    0  0.16254185478E+02  0.62552138535E+02  0.15996432729E+03  0.17257759700E+03  0.41800000000E+01 0.  1.
         -5    1    3    3    0  502 -0.35927596248E+02 -0.33605886515E+02  0.30733792996E+02  0.58156566375E+02  0.41800000000E+01 0.  1.
        -11    1    1    2    0    0  0.35841981914E+02 -0.55623820167E+02  0.12293300468E+03  0.13961081863E+03  0.00000000000E+00 0.  1.
         11    1    1    2    0    0 -0.16168571144E+02  0.26677568146E+02  0.91803862971E+02  0.96959087204E+02  0.00000000000E+00 0. -1.
</event>
<event>
 7    1  0.2943257E-009  0.1618915E+03  0.7561462E-02  0.1186578E+00
          1   -1    0    0  501    0  0.00000000000E+00  0.00000000000E+00  0.34116456260E+03  0.34116456260E+03  0.00000000000E+00 0. -1.
         -1   -1    0    0    0  501 -0.00000000000E+00 -0.00000000000E+00 -0.11846207398E+03  0.11846207398E+03  0.00000000000E+00 0.  1.
         25    2    1    2    0    0  0.14484185889E+03 -0.19666736260E+02  0.21322231903E+03  0.28718868951E+03  0.12509053301E+03 0.  0.
          5    1    3    3  502    0 -0.38717071791E+01 -0.73174093760E+01  0.98447074553E+02  0.98882928175E+02  0.41800000000E+01 0.  1.
         -5    1    3    3    0  502  0.14871356607E+03 -0.12349326884E+02  0.11477524448E+03  0.18830576134E+03  0.41800000000E+01 0.  1.
        -11    1    1    2    0    0 -0.22463984714E+02  0.35311291583E+02 -0.18775626033E+02  0.45869838188E+02  0.00000000000E+00 0.  1.
         11    1    1    2    0    0 -0.12237787418E+03 -0.15644555323E+02  0.28255795616E+02  0.12656810888E+03  0.00000000000E+00 0. -1.
</event>
<event>
 7    1  0.2943257E-009  0.2284293E+03  0.7561462E-02  0.1127750E+00
         -2   -1    0    0    0  501 -0.00000000000E+00  0.00000000000E+00  0.87893970320E+02  0.87893970320E+02  0.00000000000E+00 0.  1.
          2   -1    0    0  501    0  0.00000000000E+00 -0.00000000000E+00 -0.63272131356E+03  0.63272131356E+03  0.00000000000E+00 0. -1.
         25    2    1    2    0    0 -0.13833692482E+03  0.15703590580E+03 -0.27251736163E+03  0.36566385444E+03  0.12508781545E+03 0.  0.
          5    1    3    3  502    0 -0.64771414606E+02  0.13903597325E+03 -0.23596198385E+03  0.28146379560E+03  0.41800000000E+01 0. -1.
         -5    1    3    3    0  502 -0.73565510213E+02  0.17999932552E+02 -0.36555377782E+02  0.84200058845E+02  0.41800000000E+01 0. -1.
        -11    1    1    2    0    0  0.82151147652E+02 -0.14989404257E+03 -0.20926988335E+03  0.27020532773E+03  0.00000000000E+00 0. -1.
         11    1    1    2    0    0  0.56185777166E+02 -0.71418632336E+01 -0.63040098261E+02  0.84746101709E+02  0.00000000000E+00 0.  1.
</event>
<event>
 7    1  0.2943257E-009  0.2024927E+03  0.7561462E-02  0.1147653E+00
          2   -1    0    0  501    0  0.00000000000E+00  0.00000000000E+00  0.10334315558E+04  0.10334315558E+04  0.00000000000E+00 0. -1.
         -2   -1    0    0    0  501 -0.00000000000E+00 -0.00000000000E+00 -0.45865480052E+02  0.45865480052E+02  0.00000000000E+00 0.  1.
         25    2    1    2    0    0  0.35491836943E+02 -0.17985392260E+03  0.40540436520E+03  0.46217569722E+03  0.12508625752E+03 0.  0.
          5    1    3    3  502    0 -0.38869715712E+02 -0.88611082657E+02  0.12569920731E+03  0.15868377953E+03  0.41800000000E+01 0. -1.
         -5    1    3    3    0  502  0.74361552655E+02 -0.91242839940E+02  0.27970515789E+03  0.30349191769E+03  0.41800000000E+01 0. -1.
        -11    1    1    2    0    0 -0.47658830994E+00  0.12670655905E+03  0.48258970579E+03  0.49894649350E+03  0.00000000000E+00 0.  1.
         11    1    1    2    0    0 -0.35015248633E+02  0.53147363544E+02  0.99572004760E+02  0.11817484513E+03  0.00000000000E+00 0. -1.
</event>
<event>
 7    1  0.2943257E-009  0.9262036E+02  0.7561462E-02  0.1296627E+00
          2   -1    0    0  501    0  0.00000000000E+00  0.00000000000E+00  0.55103690214E+02  0.55103690214E+02  0.00000000000E+00 0. -1.
         -2   -1    0    0    0  501 -0.00000000000E+00 -0.00000000000E+00 -0.33037573460E+03  0.33037573460E+03  0.00000000000E+00 0.  1.
         25    2    1    2    0    0  0.65428957753E+00  0.25318832555E+02 -0.25915258139E+03  0.28887453194E+03  0.12508782268E+03 0.  0.
          5    1    3    3  502    0 -0.49792687327E+02 -0.12033431448E+02 -0.18309195715E+03  0.19016900998E+03  0.41800000000E+01 0. -1.
         -5    1    3    3    0  502  0.50446976904E+02  0.37352264003E+02 -0.76060624246E+02  0.98705521961E+02  0.41800000000E+01 0. -1.
        -11    1    1    2    0    0  0.51791071899E+01  0.22334001644E+02 -0.37577315267E+02  0.44019148145E+02  0.00000000000E+00 0.  1.
         11    1    1    2    0    0 -0.58333967675E+01 -0.47652834199E+02  0.21457852272E+02  0.52585744734E+02  0.00000000000E+00 0. -1.
</event>
<event>
 7    1  0.2943257E-009  0.1017423E+03  0.7561462E-02  0.1276674E+00
          2   -1    0    0  501    0  0.00000000000E+00  0.00000000000E+00  0.39528954200E+03  0.39528954200E+03  0.00000000000E+00 0. -1.
         -2   -1    0    0    0  501 -0.00000000000E+00 -0.00000000000E+00 -0.42351496225E+02  0.42351496225E+02  0.00000000000E+00 0.  1.
         25    2    1    2    0    0 -0.39105402697E+02 -0.39604506223E+02  0.26852486948E+03  0.30141401377E+03  0.12508817984E+03 0.  0.
          5    1    3    3  502    0  0.29183730852E+02 -0.51676279152E+02  0.74591800234E+02  0.95412457444E+02  0.41800000000E+01 0.  1.
         -5    1    3    3    0  502 -0.68289133549E+02  0.12071772928E+02  0.19393306924E+03  0.20600155633E+03  0.41800000000E+01 0.  1.
        -11    1    1    2    0    0 -0.10451184775E+02  0.17209237421E+02 -0.13488875412E+02  0.24234992794E+02  0.00000000000E+00 0.  1.
         11    1    1    2    0    0  0.49556587472E+02  0.22395268802E+02  0.97902051706E+02  0.11199203166E+03  0.00000000000E+00 0. -1.
</event>
<event>
 7    1  0.2943257E-009  0.1098991E+03  0.7561462E-02  0.1260757E+00
          2   -1    0    0  501    0  0.00000000000E+00  0.00000000000E+00  0.31104751276E+03  0.31104751276E+03  0.00000000000E+00 0. -1.
         -2   -1    0    0    0  501 -0.00000000000E+00 -0.00000000000E+00 -0.61710322652E+02  0.61710322652E+02  0.00000000000E+00 0.  1.
         25    2    1    2    0    0  0.31149513592E+02 -0.30517713477E+02  0.36241347164E+02  0.13734138624E+03  0.12509035973E+03 0.  0.
          5    1    3    3  502    0 -0.29097614525E+02  0.25138289526E+02  0.39322000940E+02  0.55157020671E+02  0.41800000000E+01 0. -1.
         -5    1    3    3    0  502  0.60247128117E+02 -0.55656003003E+02 -0.30806537759E+01  0.82184365571E+02  0.41800000000E+01 0. -1.
        -11    1    1    2    0    0 -0.60146152625E+02  0.49776363831E+01  0.11271848189E+03  0.12785848701E+03  0.00000000000E+00 0.  1.
         11    1    1    2    0    0  0.28996639034E+02  0.25540077094E+02  0.10037736105E+03  0.10755796216E+03  0.00000000000E+00 0. -1.
</event>
<event>
 7    1  0.2943257E-009  0.1164619E+03  0.7561462E-02  0.1249051E+00
         -2   -1    0    0    0  501 -0.00000000000E+00  0.00000000000E+00  0.60837477664E+02  0.60837477664E+02  0.00000000000E+00 0. -1.
          2   -1    0    0  501    0  0.00000000000E+00 -0.00000000000E+00 -0.32888149966E+03  0.32888149966E+03  0.00000000000E+00 0.  1.
         25    2    1    2    0    0  0.47421478367E+02  0.58416640457E+02 -0.21747940253E+03  0.26192829898E+03  0.12509133778E+03 0.  0.
          5    1    3    3  502    0  0.19162053664E+02  0.85610370325E+02 -0.79647399686E+02  0.11856433057E+03  0.41800000000E+01 0.  1.
         -5    1    3    3    0  502  0.28259424702E+02 -0.27193729867E+02 -0.13783200284E+03  0.14336396840E+03  0.41800000000E+01 0.  1.
        -11    1    1    2    0    0  0.83661288740E+01  0.12736930991E+02  0.10658652564E+02  0.18596461972E+02  0.00000000000E+00 0. -1.
         11    1    1    2    0    0 -0.55787607241E+02 -0.71153571448E+02 -0.61223272031E+02  0.10919421637E+03  0.00000000000E+00 0.  1.
</event>
<event>
 7    1  0.2943257E-009  0.4937827E+02  0.7561462E-02  0.1448724E+00
          2   -1    0    0  501    0  0.00000000000E+00  0.00000000000E+00  0.37258021468E+02  0.37258021468E+02  0.00000000000E+00 0.  1.
         -2   -1    0    0    0  501 -0.00000000000E+00 -0.00000000000E+00 -0.51805460280E+03  0.51805460280E+03  0.00000000000E+00 0. -1.
         25    2    1    2    0    0 -0.19594858264E+02 -0.29426973116E+02 -0.41774752150E+03  0.43750733177E+03  0.12509903442E+03 0.  0.
          5    1    3    3  502    0 -0.16235456010E+02 -0.63147718326E+01 -0.41290319387E+03  0.41329164797E+03  0.41800000000E+01 0.  1.
         -5    1    3    3    0  502 -0.33594022536E+01 -0.23112201283E+02 -0.48443276361E+01  0.24215683800E+02  0.41800000000E+01 0.  1.
        -11    1    1    2    0    0  0.30760022154E+02  0.62486845982E+01 -0.80710542573E+02  0.86599172655E+02  0.00000000000E+00 0. -1.
         11    1    1    2    0    0 -0.11165163890E+02  0.23178288518E+02  0.17661482741E+02  0.31206119847E+02  0.00000000000E+00 0.  1.
</event>
<event>
 7    1  0.2943257E-009  0.1599461E+03  0.7561462E-02  0.1188758E+00
         -2   -1    0    0    0  501 -0.00000000000E+00  0.00000000000E+00  0.59553380384E+02  0.59553380384E+02  0.00000000000E+00 0.  1.
          2   -1    0    0  501    0  0.00000000000E+00 -0.00000000000E+00 -0.61817238954E+03  0.61817238954E+03  0.00000000000E+00 0. -1.
         25    2    1    2    0    0 -0.44779002506E+02  0.15087606770E+03 -0.28651073876E+03  0.35000700836E+03  0.12509098931E+03 0.  0.
          5    1    3    3  502    0 -0.72757011194E+01  0.23115879268E+02  0.87362695220E+01  0.26097404205E+02  0.41800000000E+01 0. -1.
         -5    1    3    3    0  502 -0.37503301386E+02  0.12776018843E+03 -0.29524700829E+03  0.32390960415E+03  0.41800000000E+01 0. -1.
        -11    1    1    2    0    0  0.41901824643E+02 -0.73123456827E+02 -0.64860044520E+02  0.10634673583E+03  0.00000000000E+00 0.  1.
         11    1    1    2    0    0  0.28771778629E+01 -0.77752610869E+02 -0.20724822587E+03  0.22137202573E+03  0.00000000000E+00 0. -1.
</event>
<event>
 7    1  0.2943257E-009  0.1089972E+03  0.7561462E-02  0.1262438E+00
         -2   -1    0    0    0  501 -0.00000000000E+00  0.00000000000E+00  0.98223406502E+02  0.98223406502E+02  0.00000000000E+00 0. -1.
          2   -1    0    0  501    0  0.00000000000E+00 -0.00000000000E+00 -0.22251505129E+03  0.22251505129E+03  0.00000000000E+00 0.  1.
         25    2    1    2    0    0 -0.63700276330E+02  0.76075515024E+02 -0.44683443977E+02  0.16579871696E+03  0.12508954868E+03 0.  0.
          5    1    3    3  502    0 -0.76925208307E+02  0.67670713904E+02 -0.77940371704E+02  0.12879824197E+03  0.41800000000E+01 0.  1.
         -5    1    3    3    0  502  0.13224931977E+02  0.84048011198E+01  0.33256927727E+02  0.37000474990E+02  0.41800000000E+01 0.  1.
        -11    1    1    2    0    0  0.25812222573E+02 -0.29537072493E+02 -0.86064565625E+02  0.94582339481E+02  0.00000000000E+00 0.  1.
         11    1    1    2    0    0  0.37888053758E+02 -0.46538442531E+02  0.64563648165E+01  0.60357401347E+02  0.00000000000E+00 0. -1.
</event>
<event>
 7    1  0.2943257E-009  0.1025313E+03  0.7561462E-02  0.1275061E+00
          3   -1    0    0  501    0  0.00000000000E+00  0.00000000000E+00  0.44295145316E+03  0.44295145316E+03  0.00000000000E+00 0. -1.
         -3   -1    0    0    0  501 -0.00000000000E+00 -0.00000000000E+00 -0.28530428812E+02  0.28530428812E+02  0.00000000000E+00 0.  1.
         25    2    1    2    0    0  0.88082745711E+01  0.18288614488E+02  0.20815880986E+03  0.24370029485E+03  0.12509070497E+03 0.  0.
          5    1    3    3  502    0 -0.49267944269E+02  0.39369925688E+02  0.85831882230E+02  0.10659224075E+03  0.41800000000E+01 0. -1.
         -5    1    3    3    0  502  0.58076218840E+02 -0.21081311200E+02  0.12232692763E+03  0.13710805410E+03  0.41800000000E+01 0. -1.
        -11    1    1    2    0    0  0.34378692029E+02 -0.11273015844E+02  0.32626505086E+02  0.48718212056E+02  0.00000000000E+00 0.  1.
         11    1    1    2    0    0 -0.43186966600E+02 -0.70155986439E+01  0.17363570941E+03  0.17906337506E+03  0.00000000000E+00 0. -1.
</event>
<event>
 7    1  0.2943257E-009  0.1086823E+03  0.7561462E-02  0.1263030E+00
          3   -1    0    0  501    0  0.00000000000E+00  0.00000000000E+00  0.11128930818E+03  0.11128930818E+03  0.00000000000E+00 0. -1.
         -3   -1    0    0    0  501 -0.00000000000E+00 -0.00000000000E+00 -0.11709448215E+03  0.11709448215E+03  0.00000000000E+00 0.  1.
         25    2    1    2    0    0  0.30197469127E+02 -0.19176912615E+02  0.11580232974E+01  0.13009711684E+03  0.12507708692E+03 0.  0.
          5    1    3    3  502    0 -0.23249138765E+02  0.36624001834E+02  0.23556397786E+02  0.49540046834E+02  0.41800000000E+01 0.  1.
         -5    1    3    3    0  502  0.53446607892E+02 -0.55800914449E+02 -0.22398374489E+02  0.80557070008E+02  0.41800000000E+01 0.  1.
        -11    1    1    2    0    0 -0.42161493586E+02  0.48778921157E+02 -0.13053391389E+02  0.65782715947E+02  0.00000000000E+00 0.  1.
         11    1    1    2    0    0  0.11964024459E+02 -0.29602008541E+02  0.60901941192E+01  0.32503957534E+02  0.00000000000E+00 0. -1.
</event>
<event>
 7    1  0.2943257E-009  0.1082193E+03  0.7561462E-02  0.1263903E+00
          2   -1    0    0  501    0  0.00000000000E+00  0.00000000000E+00  0.40105385424E+03  0.40105385424E+03  0.00000000000E+00 0. -1.
         -2   -1    0    0    0  501 -0.00000000000E+00 -0.00000000000E+00 -0.34243490071E+02  0.34243490071E+02  0.00000000000E+00 0.  1.
         25    2    1    2    0    0  0.44346930761E+01 -0.40528160073E+02  0.22020242762E+03  0.25651308705E+03  0.12509059292E+03 0.  0.
          5    1    3    3  502    0  0.48280097521E+02 -0.60707135509E+02  0.16914665918E+03  0.18613003205E+03  0.41800000000E+01 0.  1.
         -5    1    3    3    0  502 -0.43845404444E+02  0.20178975436E+02  0.51055768441E+02  0.70383055004E+02  0.41800000000E+01 0.  1.
        -11    1    1    2    0    0 -0.40234478785E+02  0.61885868136E+01  0.25817864316E+02  0.48204501944E+02  0.00000000000E+00 0.  1.
         11    1    1    2    0    0  0.35799785709E+02  0.34339573259E+02  0.12079007223E+03  0.13057975532E+03  0.00000000000E+00 0. -1.
</event>
<event>
 7    1  0.2943257E-009  0.9546641E+02  0.7561462E-02  0.1290129E+00
          1   -1    0    0  501    0  0.00000000000E+00  0.00000000000E+00  0.78439745748E+02  0.78439745748E+02  0.00000000000E+00 0. -1.
         -1   -1    0    0    0  501 -0.00000000000E+00 -0.00000000000E+00 -0.18161332244E+03  0.18161332244E+03  0.00000000000E+00 0.  1.
         25    2    1    2    0    0  0.37798445053E+02  0.12427889451E+02 -0.24245094293E+02  0.13348415881E+03  0.12508805367E+03 0.  0.
          5    1    3    3  502    0 -0.31259744396E+02 -0.15656554189E+02 -0.43897192357E+02  0.56273752368E+02  0.41800000000E+01 0.  1.
         -5    1    3    3    0  502  0.69058189449E+02  0.28084443640E+02  0.19652098064E+02  0.77210406441E+02  0.41800000000E+01 0.  1.
        -11    1    1    2    0    0 -0.15950399336E+02 -0.41631880583E+02 -0.59420579802E+01  0.44977069412E+02  0.00000000000E+00 0. -1.
         11    1    1    2    0    0 -0.21848045717E+02  0.29203991132E+02 -0.72986424418E+02  0.81591839966E+02  0.00000000000E+00 0.  1.
</event>
<event>
 7    1  0.2943257E-009  0.8737785E+02  0.7561462E-02  0.1309329E+00
         -4   -1    0    0    0  501 -0.00000000000E+00  0.00000000000E+00  0.13980833870E+03  0.13980833870E+03  0.00000000000E+00 0. -1.
          4   -1    0    0  501    0  0.00000000000E+00 -0.00000000000E+00 -0.18397146262E+03  0.18397146262E+03  0.00000000000E+00 0.  1.
         25    2    1    2    0    0 -0.31610949164E+02  0.69232022416E+02  0.67384600998E+02  0.16118454346E+03  0.12508975803E+03 0.  0.
          5    1    3    3  502    0 -0.24779864319E+01 -0.20621555381E+01 -0.33657078553E+02  0.34068522700E+02  0.41800000000E+01 0.  1.
         -5    1    3    3    0  502 -0.29132962732E+02  0.71294177954E+02  0.10104167955E+03  0.12711602076E+03  0.41800000000E+01 0.  1.
        -11    1    1    2    0    0  0.36506931455E+02 -0.17679967146E+02 -0.10222520990E+03  0.10997877441E+03  0.00000000000E+00 0.  1.
         11    1    1    2    0    0 -0.48959822917E+01 -0.51552055270E+02 -0.93225150210E+01  0.52616483458E+02  0.00000000000E+00 0. -1.
</event>
<event>
 7    1  0.2943257E-009  0.3750784E+03  0.7561462E-02  0.1052768E+00
          4   -1    0    0  501    0  0.00000000000E+00  0.00000000000E+00  0.83578719321E+03  0.83578719321E+03  0.00000000000E+00 0. -1.
         -4   -1    0    0    0  501 -0.00000000000E+00 -0.00000000000E+00 -0.18384729821E+03  0.18384729821E+03  0.00000000000E+00 0.  1.
         25    2    1    2    0    0 -0.16520262755E+03 -0.32442744219E+03  0.20572993316E+03  0.43648406744E+03  0.12509381414E+03 0.  0.
          5    1    3    3  502    0 -0.12903899907E+03 -0.31738886440E+03  0.20522615080E+03  0.39940205295E+03  0.41800000000E+01 0. -1.
         -5    1    3    3    0  502 -0.36163628484E+02 -0.70385777925E+01  0.50378236175E+00  0.37082014496E+02  0.41800000000E+01 0. -1.
        -11    1    1    2    0    0  0.14033277041E+01  0.55727026053E+02  0.36899451472E+02  0.66850880923E+02  0.00000000000E+00 0. -1.
         11    1    1    2    0    0  0.16379929985E+03  0.26870041614E+03  0.40931051037E+03  0.51629954306E+03  0.00000000000E+00 0.  1.
</event>
<event>
 6    1  0.2943257E-009  0.2009939E+03  0.7561462E-02  0.1148903E+00
          1   -1    0    0  501    0  0.00000000000E+00  0.00000000000E+00  0.27400190133E+03  0.27400190133E+03  0.00000000000E+00 0. -1.
         -1   -1    0    0    0  501 -0.00000000000E+00 -0.00000000000E+00 -0.18121096600E+03  0.18121096600E+03  0.00000000000E+00 0.  1.
          5    1    1    2  502    0  0.15648862850E+03 -0.39225943685E+02  0.11140445001E+03  0.19610147728E+03  0.41800000000E+01 0. -1.
         -5    1    1    2    0  502  0.12489490158E+02 -0.45369837191E+02 -0.15978626192E+02  0.49871819559E+02  0.41800000000E+01 0. -1.
        -11    1    1    2    0    0 -0.88988048189E+02  0.21675700483E+02 -0.41169619576E+02  0.10041736049E+03  0.00000000000E+00 0.  1.
         11    1    1    2    0    0 -0.79990070473E+02  0.62920080393E+02  0.38534731089E+02  0.10882221001E+03  0.00000000000E+00 0. -1.
</event>
<event>
 7    1  0.2943257E-009  0.1245630E+03  0.7561462E-02  0.1235754E+00
         -1   -1    0    0    0  501 -0.00000000000E+00  0.00000000000E+00  0.12082772954E+03  0.12082772954E+03  0.00000000000E+00 0.  1.
          1   -1    0    0  501    0  0.00000000000E+00 -0.00000000000E+00 -0.13656560840E+03  0.13656560840E+03  0.00000000000E+00 0. -1.
         25    2    1    2    0    0  0.53000561677E+02 -0.40728226181E+02 -0.25725908724E+02  0.14415033825E+03  0.12509855992E+03 0.  0.
          5    1    3    3  502    0  0.22485755482E+02  0.45054337291E+02 -0.58542779733E+01  0.50864992666E+02  0.41800000000E+01 0. -1.
         -5    1    3    3    0  502  0.30514806195E+02 -0.85782563472E+02 -0.19871630750E+02  0.93285345589E+02  0.41800000000E+01 0. -1.
        -11    1    1    2    0    0 -0.74773400750E+02  0.20021122899E+02  0.22625518532E+02  0.80646270284E+02  0.00000000000E+00 0. -1.
         11    1    1    2    0    0  0.21772839073E+02  0.20707103282E+02 -0.12637488675E+02  0.32596729401E+02  0.00000000000E+00 0.  1.
</event>
<event>
 7    1  0.2943257E-009  0.3098927E+03  0.7561462E-02  0.1080397E+00
          1   -1    0    0  501    0  0.00000000000E+00  0.00000000000E+00  0.18336889704E+03  0.18336889704E+03  0.00000000000E+00 0. -1.
         -1   -1    0    0    0  501 -0.00000000000E+00 -0.00000000000E+00 -0.55516906713E+03  0.55516906713E+03  0.00000000000E+00 0.  1.
         25    2    1    2    0    0 -0.79294488605E+02  0.28088785188E+03 -0.10663134243E+03  0.33496757158E+03  0.12508968607E+03 0.  0.
          5    1    3    3  502    0 -0.59010032826E+02  0.33595188005E+02 -0.35916445658E+02  0.76930384764E+02  0.41800000000E+01 0.  1.
         -5    1    3    3    0  502 -0.20284455779E+02  0.24729266387E+03 -0.70714896776E+02  0.25803718681E+03  0.41800000000E+01 0.  1.
        -11    1    1    2    0    0 -0.23020295478E+01 -0.14551161391E+03 -0.14012582611E+03  0.20202518720E+03  0.00000000000E+00 0.  1.
         11    1    1    2    0    0  0.81596518153E+02 -0.13537623797E+03 -0.12504300155E+03  0.20154520539E+03  0.00000000000E+00 0. -1.
</event>
<event>
 7    1  0.2943257E-009  0.1044023E+03  0.7561462E-02  0.1271302E+00
          2   -1    0    0  501    0  0.00000000000E+00  0.00000000000E+00  0.18197864547E+02  0.18197864547E+02  0.00000000000E+00 0. -1.
         -2   -1    0    0    0  501 -0.00000000000E+00 -0.00000000000E+00 -0.85129708129E+03  0.85129708129E+03  0.00000000000E+00 0.  1.
         25    2    1    2    0    0  0.51632663150E+02  0.71654982528E+01 -0.56821983554E+03  0.58415590775E+03  0.12508823602E+03 0.  0.
          5    1    3    3  502    0  0.36822813438E+02  0.48709170023E+02 -0.49356717352E+03  0.49734749422E+03  0.41800000000E+01 0. -1.
         -5    1    3    3    0  502  0.14809849712E+02 -0.41543671770E+02 -0.74652662019E+02  0.86808413527E+02  0.41800000000E+01 0. -1.
        -11    1    1    2    0    0 -0.46310047096E+02 -0.45307042732E+02 -0.19593028055E+03  0.20636381325E+03  0.00000000000E+00 0.  1.
         11    1    1    2    0    0 -0.53226160538E+01  0.38141544479E+02 -0.68949100657E+02  0.78975224839E+02  0.00000000000E+00 0. -1.
</event>
<event>
 7    1  0.2943257E-009  0.8375433E+02  0.7561462E-02  0.1318723E+00
         -1   -1    0    0    0  501 -0.00000000000E+00  0.00000000000E+00  0.10220494348E+03  0.10220494348E+03  0.00000000000E+00 0.  1.
          1   -1    0    0  501    0  0.00000000000E+00 -0.00000000000E+00 -0.12185257060E+03  0.12185257060E+03  0.00000000000E+00 0. -1.
         25    2    1    2    0    0  0.29554354138E+02 -0.10660816706E+02 -0.13231612288E+02  0.12965039890E+03  0.12508811898E+03 0.  0.
          5    1    3    3  502    0  0.46639250440E+02 -0.26129604844E+02 -0.58082928216E+02  0.79051090322E+02  0.41800000000E+01 0.  1.
         -5    1    3    3    0  502 -0.17084896302E+02  0.15468788137E+02  0.44851315928E+02  0.50599308578E+02  0.41800000000E+01 0.  1.
        -11    1    1    2    0    0  0.19504493743E+02  0.31589459710E+02  0.10272617549E+02  0.38520720557E+02  0.00000000000E+00 0.  1.
         11    1    1    2    0    0 -0.49058847881E+02 -0.20928643004E+02 -0.16688632380E+02  0.55886394625E+02  0.00000000000E+00 0. -1.
</event>
<event>
 7    1  0.2943257E-009  0.1005670E+03  0.7561462E-02  0.1279108E+00
          1   -1    0    0  501    0  0.00000000000E+00  0.00000000000E+00  0.12604852571E+03  0.12604852571E+03  0.00000000000E+00 0. -1.
         -1   -1    0    0    0  501 -0.00000000000E+00 -0.00000000000E+00 -0.14132306270E+03  0.14132306270E+03  0.00000000000E+00 0.  1.
         25    2    1    2    0    0 -0.10277712392E+02  0.58089931953E+02  0.41828538086E+02  0.14448591041E+03  0.12508589106E+03 0.  0.
          5    1    3    3  502    0  0.32355026211E+02  0.81902505689E+02  0.35614277661E+02  0.95082686819E+02  0.41800000000E+01 0. -1.
         -5    1    3    3    0  502 -0.42632738603E+02 -0.23812573737E+02  0.62142604249E+01  0.49403223593E+02  0.41800000000E+01 0. -1.
        -11    1    1    2    0    0  0.12335510041E+02 -0.10139934865E+02 -0.71116801746E+02  0.72887465161E+02  0.00000000000E+00 0.  1.
         11    1    1    2    0    0 -0.20577976497E+01 -0.47949997088E+02  0.14013726670E+02  0.49998212839E+02  0.00000000000E+00 0. -1.
</event>
<event>
 7    1  0.2943257E-009  0.9753704E+02  0.7561462E-02  0.1285562E+00
          2   -1    0    0  501    0  0.00000000000E+00  0.00000000000E+00  0.32087347779E+02  0.32087347779E+02  0.00000000000E+00 0. -1.
         -2   -1    0    0    0  501 -0.00000000000E+00 -0.00000000000E+00 -0.63103590033E+03  0.63103590033E+03  0.00000000000E+00 0.  1.
         25    2    1    2    0    0  0.18123597192E+02  0.62433722248E+02 -0.18073483923E+03  0.22921333659E+03  0.12508891682E+03 0.  0.
          5    1    3    3  502    0  0.17105726915E+02  0.70642254531E+02 -0.30896321549E+02  0.79088489072E+02  0.41800000000E+01 0. -1.
         -5    1    3    3    0  502  0.10178702774E+01 -0.82085322831E+01 -0.14983851768E+03  0.15012484752E+03  0.41800000000E+01 0. -1.
        -11    1    1    2    0    0 -0.54145339050E+02 -0.20937342926E+02 -0.26073302438E+03  0.26711757725E+03  0.00000000000E+00 0.  1.
         11    1    1    2    0    0  0.36021741858E+02 -0.41496379322E+02 -0.15748068893E+03  0.16679233427E+03  0.00000000000E+00 0. -1.
</event>
<event>
 7    1  0.2943257E-009  0.1253719E+03  0.7561462E-02  0.1234489E+00
          2   -1    0    0  501    0  0.00000000000E+00  0.00000000000E+00  0.22196206563E+02  0.22196206563E+02  0.00000000000E+00 0. -1.
         -2   -1    0    0    0  501 -0.00000000000E+00 -0.00000000000E+00 -0.73060006660E+03  0.73060006660E+03  0.00000000000E+00 0.  1.
         25    2    1    2    0    0 -0.40671747448E+02 -0.49899864379E+02 -0.34596478536E+03  0.37347448241E+03  0.12508944318E+03 0.  0.
          5    1    3    3  502    0 -0.41793069775E+02 -0.90537818852E+02 -0.24355640523E+03  0.26321275093E+03  0.41800000000E+01 0. -1.
         -5    1    3    3    0  502  0.11213223278E+01  0.40637954473E+02 -0.10240838013E+03  0.11026173147E+03  0.41800000000E+01 0. -1.
        -11    1    1    2    0    0 -0.10367654048E+02 -0.20583789633E+02 -0.51247201614E+02  0.56191247711E+02  0.00000000000E+00 0. -1.
         11    1    1    2    0    0  0.51039401495E+02  0.70483654013E+02 -0.31119187306E+03  0.32313054305E+03  0.00000000000E+00 0.  1.
</event>
<event>
 6    1  0.4414279E-009  0.1443782E+03  0.7561462E-02  0.1207556E+00
          1   -1    0    0  501    0  0.00000000000E+00  0.00000000000E+00  0.14233406282E+03  0.14233406282E+03  0.00000000000E+00 0. -1.
         -1   -1    0    0    0  501 -0.00000000000E+00 -0.00000000000E+00 -0.16805714683E+03  0.16805714683E+03  0.00000000000E+00 0.  1.
          5    1    1    2  502    0  0.33913611047E+02 -0.66680566980E+02  0.26150887485E+02  0.79358505173E+02  0.41800000000E+01 0.  1.
         -5    1    1    2    0  502  0.69961295372E+02  0.31217778339E+02 -0.43016039287E+02  0.87960130573E+02  0.41800000000E+01 0.  1.
        -11    1    1    2    0    0 -0.71904278840E+02 -0.18623975946E+02 -0.24701326281E+02  0.78276646042E+02  0.00000000000E+00 0.  1.
         11    1    1    2    0    0 -0.31970627579E+02  0.54086764586E+02  0.15843394073E+02  0.64795927858E+02  0.00000000000E+00 0. -1.
</event>
<event>
 7    1  0.2943257E-009  0.1148954E+03  0.7561462E-02  0.1251764E+00
          2   -1    0    0  501    0  0.00000000000E+00  0.00000000000E+00  0.96676057468E+03  0.96676057468E+03  0.00000000000E+00 0. -1.
         -2   -1    0    0    0  501 -0.00000000000E+00 -0.00000000000E+00 -0.14621706328E+02  0.14621706328E+02  0.00000000000E+00 0.  1.
         25    2    1    2    0    0  0.45437752149E+02  0.21190058296E+02  0.64811273326E+03  0.66196956968E+03  0.12505993875E+03 0.  0.
          5    1    3    3  502    0  0.16338309999E+02 -0.52416918675E+02  0.24060449730E+03  0.24682477643E+03  0.41800000000E+01 0.  1.
         -5    1    3    3    0  502  0.29099442150E+02  0.73606976971E+02  0.40750823596E+03  0.41514479326E+03  0.41800000000E+01 0.  1.
        -11    1    1    2    0    0 -0.17669829571E+02  0.31380663493E+02  0.81914257074E+02  0.89481363592E+02  0.00000000000E+00 0.  1.
         11    1    1    2    0    0 -0.27767922578E+02 -0.52570721789E+02  0.22211187802E+03  0.22993134773E+03  0.00000000000E+00 0. -1.
</event>
<event>
 7    1  0.2943257E-009  0.1085636E+03  0.7561462E-02  0.1263253E+00
         -3   -1    0    0    0  501 -0.00000000000E+00  0.00000000000E+00  0.31762411390E+03  0.31762411390E+03  0.00000000000E+00 0.  1.
          3   -1    0    0  501    0  0.00000000000E+00 -0.00000000000E+00 -0.46589265462E+02  0.46589265462E+02  0.00000000000E+00 0. -1.
         25    2    1    2    0    0  0.40362725587E+02  0.11337261260E+02  0.91838433860E+02  0.16078689191E+03  0.12514169396E+03 0.  0.
          5    1    3    3  502    0  0.22486868718E+02  0.66725490233E+02  0.32839658922E+02  0.77806592971E+02  0.41800000000E+01 0.  1.
         -5    1    3    3    0  502  0.17875856869E+02 -0.55388228973E+02  0.58998774938E+02  0.82980298938E+02  0.41800000000E+01 0.  1.
        -11    1    1    2    0    0 -0.26712793508E+02 -0.44766447509E+02  0.14339917895E+03  0.15258090536E+03  0.00000000000E+00 0.  1.
         11    1    1    2    0    0 -0.13649932079E+02  0.33429186249E+02  0.35797235635E+02  0.50845582091E+02  0.00000000000E+00 0. -1.
</event>
<event>
 7    1  0.2943257E-009  0.1188736E+03  0.7561462E-02  0.1244967E+00
          2   -1    0    0  501    0  0.00000000000E+00  0.00000000000E+00  0.49648812970E+03  0.49648812970E+03  0.00000000000E+00 0.  1.
         -2   -1    0    0    0  501 -0.00000000000E+00 -0.00000000000E+00 -0.31505552577E+02  0.31505552577E+02  0.00000000000E+00 0. -1.
         25    2    1    2    0    0  0.16113901632E+02  0.61018432960E+02  0.29986815436E+03  0.33098684439E+03  0.12509386147E+03 0.  0.
          5    1    3    3  502    0 -0.47121653862E+02  0.46448228311E+02  0.93524281455E+02  0.11463922452E+03  0.41800000000E+01 0.  1.
         -5    1    3    3    0  502  0.63235555493E+02  0.14570204649E+02  0.20634387290E+03  0.21634761988E+03  0.41800000000E+01 0.  1.
        -11    1    1    2    0    0 -0.94224631087E+01  0.21583307908E+02  0.26010915763E+02  0.35088313298E+02  0.00000000000E+00 0. -1.
         11    1    1    2    0    0 -0.66914385230E+01 -0.82601740869E+02  0.13910350700E+03  0.16191852459E+03  0.00000000000E+00 0.  1.
</event>
<event>
 7    1  0.2943257E-009  0.1617458E+03  0.7561462E-02  0.1186740E+00
         -1   -1    0    0    0  501 -0.00000000000E+00  0.00000000000E+00  0.21992461834E+03  0.21992461834E+03  0.00000000000E+00 0.  1.
          1   -1    0    0  501    0  0.00000000000E+00 -0.00000000000E+00 -0.14786975129E+03  0.14786975129E+03  0.00000000000E+00 0. -1.
         25    2    1    2    0    0  0.13154791843E+03 -0.46439503662E+02  0.40120048078E+01  0.18741719060E+03  0.12509046648E+03 0.  0.
          5    1    3    3  502    0 -0.55158865267E+01  0.13441445675E+02 -0.30335180395E+02  0.33893849525E+02  0.41800000000E+01 0.  1.
         -5    1    3    3    0  502  0.13706380496E+03 -0.59880949337E+02  0.34347185203E+02  0.15352334107E+03  0.41800000000E+01 0.  1.
        -11    1    1    2    0    0 -0.12017642289E+03  0.10026596091E+02  0.74408825593E+02  0.14170242967E+03  0.00000000000E+00 0.  1.
         11    1    1    2    0    0 -0.11371495543E+02  0.36412907571E+02 -0.63659633557E+01  0.38674749361E+02  0.00000000000E+00 0. -1.
</event>
<event>
 7    1  0.2943257E-009  0.1132318E+03  0.7561462E-02  0.1254699E+00
         -3   -1    0    0    0  501 -0.00000000000E+00  0.00000000000E+00  0.48659547434E+02  0.48659547434E+02  0.00000000000E+00 0.  1.
          3   -1    0    0  501    0  0.00000000000E+00 -0.00000000000E+00 -0.47330033581E+03  0.47330033581E+03  0.00000000000E+00 0. -1.
         25    2    1    2    0    0 -0.10056437676E+03  0.32271426801E+01 -0.17414423528E+03  0.23687983310E+03  0.12514884069E+03 0.  0.
          5    1    3    3  502    0 -0.60488712279E+02  0.16443767773E+02 -0.18306644067E+03  0.19354605630E+03  0.41800000000E+01 0.  1.
         -5    1    3    3    0  502 -0.40075664479E+02 -0.13216625093E+02  0.89222053913E+01  0.43333776795E+02  0.41800000000E+01 0.  1.
        -11    1    1    2    0    0  0.25557219945E+02  0.29817541013E+02 -0.15174792226E+03  0.15674721418E+03  0.00000000000E+00 0. -1.
         11    1    1    2    0    0  0.75007156814E+02 -0.33044683693E+02 -0.98748630831E+02  0.12833283596E+03  0.00000000000E+00 0.  1.
</event>
<event>
 7    1  0.2943257E-009  0.2174929E+03  0.7561462E-02  0.1135766E+00
         -4   -1    0    0    0  501 -0.00000000000E+00  0.00000000000E+00  0.27574172533E+03  0.27574172533E+03  0.00000000000E+00 0.  1.
          4   -1    0    0  501    0  0.00000000000E+00 -0.00000000000E+00 -0.20386621256E+03  0.20386621256E+03  0.00000000000E+00 0. -1.
         25    2    1    2    0    0  0.19005237558E+03  0.82855321945E+02  0.16218025280E+01  0.24214558821E+03  0.12508775242E+03 0.  0.
          5    1    3    3  502    0  0.96885070846E+02  0.52782551314E+02 -0.60721216012E+02  0.12600497272E+03  0.41800000000E+01 0.  1.
         -5    1    3    3    0  502  0.93167304737E+02  0.30072770631E+02  0.62343018540E+02  0.11614061549E+03  0.41800000000E+01 0.  1.
        -11    1    1    2    0    0 -0.11413457399E+03  0.10234841670E+00  0.40907030736E+02  0.12124395497E+03  0.00000000000E+00 0. -1.
         11    1    1    2    0    0 -0.75917801596E+02 -0.82957670361E+02  0.29346679499E+02  0.11621839471E+03  0.00000000000E+00 0.  1.
</event>
<event>
 7    1  0.2943257E-009  0.7855314E+02  0.7561462E-02  0.1333208E+00
         -2   -1    0    0    0  501 -0.00000000000E+00  0.00000000000E+00  0.47585172682E+02  0.47585172682E+02  0.00000000000E+00 0.  1.
          2   -1    0    0  501    0  0.00000000000E+00 -0.00000000000E+00 -0.28380216456E+03  0.28380216456E+03  0.00000000000E+00 0. -1.
         25    2    1    2    0    0  0.39175012991E+02  0.16293281738E+00 -0.10436284644E+03  0.16755632004E+03  0.12509519766E+03 0.  0.
          5    1    3    3  502    0 -0.72483041244E+01 -0.27009504649E+02 -0.10975090626E+03  0.11333483612E+03  0.41800000000E+01 0.  1.
         -5    1    3    3    0  502  0.46423317115E+02  0.27172437467E+02  0.53880598160E+01  0.54221483919E+02  0.41800000000E+01 0.  1.
        -11    1    1    2    0    0 -0.53211377022E+02 -0.14151145543E+02 -0.35620802072E+02  0.65578556747E+02  0.00000000000E+00 0.  1.
         11    1    1    2    0    0  0.14036364031E+02  0.13988212725E+02 -0.96233343367E+02  0.98252460458E+02  0.00000000000E+00 0. -1.
</event>
<event>
 6    1  0.2943257E-009  0.1221426E+03  0.7561462E-02  0.1239604E+00
          2   -1    0    0  501    0  0.00000000000E+00  0.00000000000E+00  0.92066875632E+03  0.92066875632E+03  0.00000000000E+00 0. -1.
         -2   -1    0    0    0  501 -0.00000000000E+00 -0.00000000000E+00 -0.18407443692E+02  0.18407443692E+02  0.00000000000E+00 0.  1.
          5    1    1    2  502    0  0.30148686738E+02 -0.27312030795E+02  0.30284027253E+03  0.30558892880E+03  0.41800000000E+01 0.  1.
         -5    1    1    2    0  502 -0.89583363257E+01  0.90715862867E+02  0.29326702061E+03  0.30713618696E+03  0.41800000000E+01 0.  1.
        -11    1    1    2    0    0  0.35070491381E+02 -0.33150155267E+02  0.11187168368E+03  0.12183655350E+03  0.00000000000E+00 0.  1.
         11    1    1    2    0    0 -0.56260841792E+02 -0.30253676805E+02  0.19428233581E+03  0.20451453074E+03  0.00000000000E+00 0. -1.
</event>
<event>
 7    1  0.2943257E-009  0.1288585E+03  0.7561462E-02  0.1229159E+00
          4   -1    0    0  501    0  0.00000000000E+00  0.00000000000E+00  0.25174410111E+03  0.25174410111E+03  0.00000000000E+00 0. -1.
         -4   -1    0    0    0  501 -0.00000000000E+00 -0.00000000000E+00 -0.12426288843E+03  0.12426288843E+03  0.00000000000E+00 0.  1.
         25    2    1    2    0    0  0.64979267558E+02 -0.37029547841E+02 -0.58317302489E+02  0.15697873829E+03  0.12509166191E+03 0.  0.
          5    1    3    3  502    0  0.10219431586E+03 -0.33829819389E+02 -0.48428973895E+02  0.11811423617E+03  0.41800000000E+01 0. -1.
         -5    1    3    3    0  502 -0.37215048304E+02 -0.31997284525E+01 -0.98883285945E+01  0.38864502118E+02  0.41800000000E+01 0. -1.
        -11    1    1    2    0    0  0.16505078156E+02 -0.90168883036E+01  0.14205366000E+02  0.23569350920E+02  0.00000000000E+00 0.  1.
         11    1    1    2    0    0 -0.81484345714E+02  0.46046436145E+02  0.17159314916E+03  0.19545890033E+03  0.00000000000E+00 0. -1.
</event>
<event>
 7    1  0.2943257E-009  0.8541443E+02  0.7561462E-02  0.1314352E+00
          1   -1    0    0  501    0  0.00000000000E+00  0.00000000000E+00  0.36090675746E+03  0.36090675746E+03  0.00000000000E+00 0. -1.
         -1   -1    0    0    0  501 -0.00000000000E+00 -0.00000000000E+00 -0.41498526359E+02  0.41498526359E+02  0.00000000000E+00 0.  1.
         25    2    1    2    0    0  0.16633907669E+02  0.56237032605E+02  0.17604262253E+03  0.22378082733E+03  0.12509021950E+03 0.  0.
          5    1    3    3  502    0  0.28757707968E+02  0.77977917952E+02  0.17993003035E+03  0.19824189688E+03  0.41800000000E+01 0. -1.
         -5    1    3    3    0  502 -0.12123800299E+02 -0.21740885347E+02 -0.38874078177E+01  0.25538930457E+02  0.41800000000E+01 0. -1.
        -11    1    1    2    0    0 -0.18016197375E+02 -0.23533267624E+02  0.14284509761E+03  0.14588735368E+03  0.00000000000E+00 0. -1.
         11    1    1    2    0    0  0.13822897057E+01 -0.32703764981E+02  0.52051096726E+00  0.32737102811E+02  0.00000000000E+00 0.  1.
</event>
<event>
 7    1  0.2943257E-009  0.1510091E+03  0.7561462E-02  0.1199238E+00
         -1   -1    0    0    0  501 -0.00000000000E+00  0.00000000000E+00  0.50849820987E+03  0.50849820987E+03  0.00000000000E+00 0.  1.
          1   -1    0    0  501    0  0.00000000000E+00 -0.00000000000E+00 -0.44982866784E+02  0.44982866784E+02  0.00000000000E+00 0. -1.
         25    2    1    2    0    0  0.38834831555E+02 -0.97509607058E+02  0.25352358624E+03  0.30157427340E+03  0.12512620025E+03 0.  0.
          5    1    3    3  502    0  0.84686995270E+02 -0.65700625473E+02  0.17133442148E+03  0.20214206821E+03  0.41800000000E+01 0. -1.
         -5    1    3    3    0  502 -0.45852163715E+02 -0.31808981586E+02  0.82189164754E+02  0.99432205194E+02  0.41800000000E+01 0. -1.
        -11    1    1    2    0    0 -0.66765774594E+02  0.49008134491E+02  0.13398182676E+03  0.15751379561E+03  0.00000000000E+00 0.  1.
         11    1    1    2    0    0  0.27930943039E+02  0.48501472568E+02  0.76009930087E+02  0.94393007644E+02  0.00000000000E+00 0. -1.
</event>
<event>
 7    1  0.2943257E-009  0.1280836E+03  0.7561462E-02  0.1230327E+00
         -1   -1    0    0    0  501 -0.00000000000E+00  0.00000000000E+00  0.28660993138E+02  0.28660993138E+02  0.00000000000E+00 0.  1.
          1   -1    0    0  501    0  0.00000000000E+00 -0.00000000000E+00 -0.75095245953E+03  0.75095245953E+03  0.00000000000E+00 0. -1.
         25    2    1    2    0    0 -0.88993289907E+02  0.16647851218E+02 -0.28589675770E+03  0.32493243349E+03  0.12508866323E+03 0.  0.
          5    1    3    3  502    0 -0.68430454075E+02  0.56857635146E+02 -0.25485730414E+03  0.26997265712E+03  0.41800000000E+01 0.  1.
         -5    1    3    3    0  502 -0.20562835832E+02 -0.40209783928E+02 -0.31039453561E+02  0.54959776367E+02  0.41800000000E+01 0.  1.
        -11    1    1    2    0    0  0.72417341238E+02  0.25244873213E+02 -0.20356049540E+03  0.21752804468E+03  0.00000000000E+00 0. -1.
         11    1    1    2    0    0  0.16575948670E+02 -0.41892724431E+02 -0.23283421329E+03  0.23715297450E+03  0.00000000000E+00 0.  1.
</event>
<event>
 7    1  0.2943257E-009  0.1031365E+03  0.7561462E-02  0.1273835E+00
         -2   -1    0    0    0  501 -0.00000000000E+00  0.00000000000E+00  0.30250390431E+02  0.30250390431E+02  0.00000000000E+00 0.  1.
          2   -1    0    0  501    0  0.00000000000E+00 -0.00000000000E+00 -0.48049950401E+03  0.48049950401E+03  0.00000000000E+00 0. -1.
         25    2    1    2    0    0  0.21681586444E+01 -0.34476435217E+02 -0.15581082135E+03  0.20277524616E+03  0.12508981936E+03 0.  0.
          5    1    3    3  502    0 -0.34983645284E+02 -0.61126847364E+02 -0.47274957935E+02  0.84927857348E+02  0.41800000000E+01 0. -1.
         -5    1    3    3    0  502  0.37151803928E+02  0.26650412147E+02 -0.10853586341E+03  0.11784738881E+03  0.41800000000E+01 0. -1.
        -11    1    1    2    0    0  0.19881167591E+02 -0.21716456908E+02 -0.81948552605E+02  0.87077153143E+02  0.00000000000E+00 0. -1.
         11    1    1    2    0    0 -0.22049326236E+02  0.56192892125E+02 -0.21248973963E+03  0.22089749514E+03  0.00000000000E+00 0.  1.
</event>
<event>
 7    1  0.2943257E-009  0.1066732E+03  0.7561462E-02  0.1266858E+00
          2   -1    0    0  501    0  0.00000000000E+00  0.00000000000E+00  0.18246238230E+03  0.18246238230E+03  0.00000000000E+00 0. -1.
         -2   -1    0    0    0  501 -0.00000000000E+00 -0.00000000000E+00 -0.14123529637E+03  0.14123529637E+03  0.00000000000E+00 0.  1.
         25    2    1    2    0    0  0.75641897244E+01 -0.83690823987E+02  0.10509137934E+03  0.18372033363E+03  0.12509033532E+03 0.  0.
          5    1    3    3  502    0  0.52874011903E+02 -0.45488864252E+02  0.85951879367E+01  0.70400621882E+02  0.41800000000E+01 0.  1.
         -5    1    3    3    0  502 -0.45309822179E+02 -0.38201959735E+02  0.96496191408E+02  0.11331971174E+03  0.41800000000E+01 0.  1.
        -11    1    1    2    0    0 -0.33228119934E+01  0.25640749456E+02 -0.76211047314E+02  0.80477405804E+02  0.00000000000E+00 0.  1.
         11    1    1    2    0    0 -0.42413777310E+01  0.58050074532E+02  0.12346753904E+02  0.59499939245E+02  0.00000000000E+00 0. -1.
</event>
<event>
 7    1  0.2943257E-009  0.1894717E+03  0.7561462E-02  0.1158939E+00
         -1   -1    0    0    0  501 -0.00000000000E+00  0.00000000000E+00  0.58470089021E+02  0.58470089021E+02  0.00000000000E+00 0.  1.
          1   -1    0    0  501    0  0.00000000000E+00 -0.00000000000E+00 -0.65490851707E+03  0.65490851707E+03  0.00000000000E+00 0. -1.
         25    2    1    2    0    0 -0.15944638669E+03 -0.22271309138E+02 -0.27479152611E+03  0.34215760037E+03  0.12506909782E+03 0.  0.
          5    1    3    3  502    0 -0.12429897483E+03  0.39496243875E+02 -0.20083780626E+03  0.23950675407E+03  0.41800000000E+01 0.  1.
         -5    1    3    3    0  502 -0.35147411860E+02 -0.61767553014E+02 -0.73953719847E+02  0.10265084629E+03  0.41800000000E+01 0.  1.
        -11    1    1    2    0    0  0.85741069760E+02  0.49126541506E+02 -0.12388586694E+03  0.15846973260E+03  0.00000000000E+00 0.  1.
         11    1    1    2    0    0  0.73705316926E+02 -0.26855232367E+02 -0.19776103500E+03  0.21275127312E+03  0.00000000000E+00 0. -1.
</event>
<event>
 7    1  0.2943257E-009  0.1381570E+03  0.7561462E-02  0.1215831E+00
          2   -1    0    0  501    0  0.00000000000E+00  0.00000000000E+00  0.63020207575E+02  0.63020207575E+02  0.00000000000E+00 0. -1.
         -2   -1    0    0    0  501 -0.00000000000E+00 -0.00000000000E+00 -0.36447958997E+03  0.36447958997E+03  0.00000000000E+00 0.  1.
         25    2    1    2    0    0  0.10430135236E+03  0.81719317765E+01 -0.18866482580E+03  0.24937420888E+03  0.12509007550E+03 0.  0.
          5    1    3    3  502    0 -0.11110245035E+01 -0.28549693059E+02 -0.10746282941E+03  0.11127466672E+03  0.41800000000E+01 0. -1.
         -5    1    3    3    0  502  0.10541237687E+03  0.36721624836E+02 -0.81201996391E+02  0.13809954216E+03  0.41800000000E+01 0. -1.
        -11    1    1    2    0    0 -0.10184453370E+03 -0.35833300506E+02 -0.76017933045E+02  0.13204188962E+03  0.00000000000E+00 0. -1.
         11    1    1    2    0    0 -0.24568186664E+01  0.27661368730E+02 -0.36776623548E+02  0.46083699044E+02  0.00000000000E+00 0.  1.
</event>
<event>
 6    1  0.2943257E-009  0.1125811E+03  0.7561462E-02  0.1255863E+00
          2   -1    0    0  501    0  0.00000000000E+00  0.00000000000E+00  0.23965842470E+03  0.23965842470E+03  0.00000000000E+00 0. -1.
         -2   -1    0    0    0  501 -0.00000000000E+00 -0.00000000000E+00 -0.76954862358E+02  0.76954862358E+02  0.00000000000E+00 0.  1.
          5    1    1    2  502    0 -0.44843452555E+02 -0.17833008984E+02 -0.42495472084E+01  0.48625944700E+02  0.41800000000E+01 0.  1.
         -5    1    1    2    0  502  0.11105088172E+02  0.88906730017E+02  0.66197931632E+02  0.11147810627E+03  0.41800000000E+01 0.  1.
        -11    1    1    2    0    0 -0.51294977658E+01 -0.30165821467E+02  0.94978627673E+02  0.99785912066E+02  0.00000000000E+00 0. -1.
         11    1    1    2    0    0  0.38867862149E+02 -0.40907899565E+02  0.57765502424E+01  0.56723324017E+02  0.00000000000E+00 0.  1.
</event>
<event>
 7    1  0.2943257E-009  0.1980109E+03  0.7561462E-02  0.1151428E+00
          2   -1    0    0  501    0  0.00000000000E+00  0.00000000000E+00  0.14640698507E+04  0.14640698507E+04  0.00000000000E+00 0. -1.
         -2   -1    0    0    0  501 -0.00000000000E+00 -0.00000000000E+00 -0.30173702560E+02  0.30173702560E+02  0.00000000000E+00 0.  1.
         25    2    1    2    0    0 -0.10062868863E+03 -0.13213365241E+03  0.50453954642E+03  0.54570443741E+03  0.12509094303E+03 0.  0.
          5    1    3    3  502    0 -0.49555379241E+02  0.15094719579E+02  0.12042085871E+03  0.13115731693E+03  0.41800000000E+01 0. -1.
         -5    1    3    3    0  502 -0.51073309387E+02 -0.14722837199E+03  0.38411868771E+03  0.41454712048E+03  0.41800000000E+01 0. -1.
        -11    1    1    2    0    0  0.42651591785E+02  0.12207997458E+03  0.57799847566E+03  0.59228786611E+03  0.00000000000E+00 0.  1.
         11    1    1    2    0    0  0.57977096843E+02  0.10053677825E+02  0.35135812610E+03  0.35625124978E+03  0.00000000000E+00 0. -1.
</event>
<event>
 7    1  0.2943257E-009  0.9777905E+02  0.7561462E-02  0.1285037E+00
          1   -1    0    0  501    0  0.00000000000E+00  0.00000000000E+00  0.39504200975E+02  0.39504200975E+02  0.00000000000E+00 0. -1.
         -1   -1    0    0    0  501 -0.00000000000E+00 -0.00000000000E+00 -0.39490328111E+03  0.39490328111E+03  0.00000000000E+00 0.  1.
         25    2    1    2    0    0  0.31742978574E+02 -0.48174122669E+02 -0.24118006750E+03  0.27774706862E+03  0.12508895388E+03 0.  0.
          5    1    3    3  502    0 -0.44844744774E+02  0.35535741233E+01 -0.82970850521E+02  0.94473877126E+02  0.41800000000E+01 0.  1.
         -5    1    3    3    0  502  0.76587723347E+02 -0.51727696793E+02 -0.15820921698E+03  0.18327319149E+03  0.41800000000E+01 0.  1.
        -11    1    1    2    0    0 -0.16670838302E+02  0.21249993841E+02  0.98980533518E+01  0.28765440169E+02  0.00000000000E+00 0. -1.
         11    1    1    2    0    0 -0.15072140271E+02  0.26924128828E+02 -0.12411706599E+03  0.12789497330E+03  0.00000000000E+00 0.  1.
</event>
<event>
 7    1  0.2943257E-009  0.1570604E+03  0.7561462E-02  0.1192056E+00
          2   -1    0    0  501    0  0.00000000000E+00  0.00000000000E+00  0.40774193418E+02  0.40774193418E+02  0.00000000000E+00 0. -1.
         -2   -1    0    0    0  501 -0.00000000000E+00 -0.00000000000E+00 -0.66105585818E+03  0.66105585818E+03  0.00000000000E+00 0.  1.
         25    2    1    2    0    0  0.38107938550E+02 -0.11465175592E+03 -0.29142451104E+03  0.33937106629E+03  0.12508890792E+03 0.  0.
          5    1    3    3  502    0 -0.29265558360E+02  0.10084501585E+02 -0.40613033593E+02  0.51235348891E+02  0.41800000000E+01 0.  1.
         -5    1    3    3    0  502  0.67373496909E+02 -0.12473625750E+03 -0.25081147744E+03  0.28813571740E+03  0.41800000000E+01 0.  1.
        -11    1    1    2    0    0 -0.59805553455E+02  0.75764848656E+02 -0.15181351425E+03  0.17990097172E+03  0.00000000000E+00 0. -1.
         11    1    1    2    0    0  0.21697614906E+02  0.38886907263E+02 -0.17704363947E+03  0.18255801359E+03  0.00000000000E+00 0.  1.
</event>
<event>
 7    1  0.2943257E-009  0.3733125E+03  0.7561462E-02  0.1053434E+00
         -2   -1    0    0    0  501 -0.00000000000E+00  0.00000000000E+00  0.13075363132E+03  0.13075363132E+03  0.00000000000E+00 0.  1.
          2   -1    0    0  501    0  0.00000000000E+00 -0.00000000000E+00 -0.11307325669E+04  0.11307325669E+04  0.00000000000E+00 0. -1.
         25    2    1    2    0    0 -0.25617511559E+03  0.25509537771E+03 -0.56263695161E+03  0.68037487512E+03  0.12510111831E+03 0.  0.
          5    1    3    3  502    0 -0.17319024363E+03  0.84397221505E+02 -0.28513278144E+03  0.34414521199E+03  0.41800000000E+01 0.  1.
         -5    1    3    3    0  502 -0.82984871965E+02  0.17069815620E+03 -0.27750417017E+03  0.33622966313E+03  0.41800000000E+01 0.  1.
        -11    1    1    2    0    0  0.21324012617E+02 -0.41312860566E+02 -0.13439551375E+03  0.14220977490E+03  0.00000000000E+00 0. -1.
         11    1    1    2    0    0  0.23485110297E+03 -0.21378251714E+03 -0.30294647026E+03  0.43890154824E+03  0.00000000000E+00 0.  1.
</event>
<event>
 7    1  0.2943257E-009  0.1428648E+03  0.7561462E-02  0.1209525E+00
         -3   -1    0    0    0  501 -0.00000000000E+00  0.00000000000E+00  0.11215480040E+04  0.11215480040E+04  0.00000000000E+00 0.  1.
          3   -1    0    0  501    0  0.00000000000E+00 -0.00000000000E+00 -0.24588141798E+02  0.24588141798E+02  0.00000000000E+00 0. -1.
         25    2    1    2    0    0 -0.90262281983E+02 -0.85274241347E+02  0.62410477835E+03  0.64851639441E+03  0.12509102160E+03 0.  0.
          5    1    3    3  502    0 -0.10391009853E+02 -0.58739598995E+02  0.46165014013E+03  0.46550686124E+03  0.41800000000E+01 0. -1.
         -5    1    3    3    0  502 -0.79871272130E+02 -0.26534642353E+02  0.16245463821E+03  0.18300953318E+03  0.41800000000E+01 0. -1.
        -11    1    1    2    0    0 -0.38800573052E+01  0.34471406718E+02  0.46290323465E+02  0.57845715246E+02  0.00000000000E+00 0.  1.
         11    1    1    2    0    0  0.94142339289E+02  0.50802834629E+02  0.42656476040E+03  0.43977403615E+03  0.00000000000E+00 0. -1.
</event>
<event>
 7    1  0.3684326E-009  0.6224002E+02  0.7561462E-02  0.1388665E+00
         -1   -1    0    0    0  501 -0.00000000000E+00  0.00000000000E+00  0.32199692857E+03  0.32199692857E+03  0.00000000000E+00 0.  1.
          1   -1    0    0  501    0  0.00000000000E+00 -0.00000000000E+00 -0.50907238727E+02  0.50907238727E+02  0.00000000000E+00 0. -1.
         25    2    1    2    0    0 -0.50929356351E+02 -0.34821719698E+02  0.19060760993E+03  0.23618787621E+03  0.12508837038E+03 0.  0.
          5    1    3    3  502    0 -0.39857823300E+02 -0.23820424673E+02  0.17642471964E+01  0.46654514015E+02  0.41800000000E+01 0. -1.
         -5    1    3    3    0  502 -0.11071533051E+02 -0.11001295025E+02  0.18884336274E+03  0.18953336220E+03  0.41800000000E+01 0. -1.
        -11    1    1    2    0    0  0.21211422826E+02  0.14020439657E+02  0.94474716671E+02  0.97836441455E+02  0.00000000000E+00 0.  1.
         11    1    1    2    0    0  0.29717933524E+02  0.20801280041E+02 -0.13992636755E+02  0.38879849635E+02  0.00000000000E+00 0. -1.
</event>
<event>
 7    1  0.2943257E-009  0.5566327E+02  0.7561462E-02  0.1416988E+00
          1   -1    0    0  501    0  0.00000000000E+00  0.00000000000E+00  0.26867985621E+02  0.26867985621E+02  0.00000000000E+00 0. -1.
         -1   -1    0    0    0  501 -0.00000000000E+00 -0.00000000000E+00 -0.51768767875E+03  0.51768767875E+03  0.00000000000E+00 0.  1.
         25    2    1    2    0    0 -0.26075680516E+02 -0.11329761946E+02 -0.34100431422E+03  0.36433436520E+03  0.12508909915E+03 0.  0.
          5    1    3    3  502    0  0.89091371901E+01 -0.36114601756E+01 -0.32449881124E+03  0.32466808631E+03  0.41800000000E+01 0.  1.
         -5    1    3    3    0  502 -0.34984817706E+02 -0.77183017702E+01 -0.16505502976E+02  0.39666278885E+02  0.41800000000E+01 0.  1.
        -11    1    1    2    0    0 -0.14143066858E+02  0.19146182690E+02 -0.13432777046E+03  0.13642049908E+03  0.00000000000E+00 0.  1.
         11    1    1    2    0    0  0.40218747373E+02 -0.78164207439E+01 -0.15487608445E+02  0.43800800094E+02  0.00000000000E+00 0. -1.
</event>
<event>
 7    1  0.2943257E-009  0.1052563E+03  0.7561462E-02  0.1269615E+00
          2   -1    0    0  501    0  0.00000000000E+00  0.00000000000E+00  0.67023589401E+03  0.67023589401E+03  0.00000000000E+00 0. -1.
         -2   -1    0    0    0  501 -0.00000000000E+00 -0.00000000000E+00 -0.21893987418E+02  0.21893987418E+02  0.00000000000E+00 0.  1.
         25    2    1    2    0    0 -0.21332930627E+02 -0.13554801920E+02  0.49682418085E+03  0.51295416983E+03  0.12509551186E+03 0.  0.
          5    1    3    3  502    0 -0.68153272310E+02 -0.33742410852E+02  0.27968843823E+03  0.28987327178E+03  0.41800000000E+01 0.  1.
         -5    1    3    3    0  502  0.46820341683E+02  0.20187608932E+02  0.21713574262E+03  0.22308089805E+03  0.41800000000E+01 0.  1.
        -11    1    1    2    0    0  0.87157313452E+01  0.46814218931E+02  0.40219104900E+02  0.62330662325E+02  0.00000000000E+00 0. -1.
         11    1    1    2    0    0  0.12617199282E+02 -0.33259417011E+02  0.11129862085E+03  0.11684504928E+03  0.00000000000E+00 0.  1.
</event>
<event>
 6    1  0.2943257E-009  0.8931055E+02  0.7561462E-02  0.1304530E+00
          1   -1    0    0  501    0  0.00000000000E+00  0.00000000000E+00  0.54152130754E+02  0.54152130754E+02  0.00000000000E+00 0. -1.
         -1   -1    0    0    0  501 -0.00000000000E+00 -0.00000000000E+00 -0.17582827300E+03  0.17582827300E+03  0.00000000000E+00 0.  1.
          5    1    1    2  502    0  0.34278698884E+02  0.50410941848E+02 -0.17519232439E+02  0.63566407484E+02  0.41800000000E+01 0.  1.
         -5    1    1    2    0  502 -0.17075509154E+02 -0.63380403541E+02 -0.27184965034E+02  0.71169820077E+02  0.41800000000E+01 0.  1.
        -11    1    1    2    0    0  0.10852889300E+02 -0.10548084544E+02 -0.41887747340E+02  0.44537968869E+02  0.00000000000E+00 0. -1.
         11    1    1    2    0    0 -0.28056079030E+02  0.23517546237E+02 -0.35084197429E+02  0.50706207320E+02  0.00000000000E+00 0.  1.
</event>
<event>
 7    1  0.2943257E-009  0.9589157E+02  0.7561462E-02  0.1289181E+00
          1   -1    0    0  501    0  0.00000000000E+00  0.00000000000E+00  0.38507915804E+03  0.38507915804E+03  0.00000000000E+00 0. -1.
         -1   -1    0    0    0  501 -0.00000000000E+00 -0.00000000000E+00 -0.39580708323E+02  0.39580708323E+02  0.00000000000E+00 0.  1.
         25    2    1    2    0    0  0.33672083761E+02 -0.33329331470E+02  0.14226951712E+03  0.19527571553E+03  0.12508931215E+03 0.  0.
          5    1    3    3  502    0  0.68624873637E+02 -0.24490263565E+02  0.14122168265E+03  0.15896597856E+03  0.41800000000E+01 0.  1.
         -5    1    3    3    0  502 -0.34952789876E+02 -0.88390679047E+01  0.10478344727E+01  0.36309736967E+02  0.41800000000E+01 0.  1.
        -11    1    1    2    0    0  0.19082139258E+02  0.20910442082E+02  0.12216783234E+02  0.30832197770E+02  0.00000000000E+00 0.  1.
         11    1    1    2    0    0 -0.52754223020E+02  0.12418889388E+02  0.19101214936E+03  0.19855195306E+03  0.00000000000E+00 0. -1.
</event>
<event>
 7    1  0.2943257E-009  0.1134662E+03  0.7561462E-02  0.1254282E+00
         -2   -1    0    0    0  501 -0.00000000000E+00  0.00000000000E+00  0.57707191216E+02  0.57707191216E+02  0.00000000000E+00 0.  1.
          2   -1    0    0  501    0  0.00000000000E+00 -0.00000000000E+00 -0.42058010061E+03  0.42058010061E+03  0.00000000000E+00 0. -1.
         25    2    1    2    0    0 -0.93379122377E+02 -0.40933168654E+02 -0.13433077583E+03  0.20997043869E+03  0.12509053920E+03 0.  0.
          5    1    3    3  502    0 -0.17946919008E+02  0.16366748022E+02  0.18014008859E+02  0.30527680191E+02  0.41800000000E+01 0.  1.
         -5    1    3    3    0  502 -0.75432203369E+02 -0.57299916676E+02 -0.15234478468E+03  0.17944275850E+03  0.41800000000E+01 0.  1.
        -11    1    1    2    0    0  0.77597951957E+02  0.18050546356E+02 -0.22688996422E+03  0.24047103825E+03  0.00000000000E+00 0. -1.
         11    1    1    2    0    0  0.15781170420E+02  0.22882622298E+02 -0.16521693411E+01  0.27845814885E+02  0.00000000000E+00 0.  1.
</event>
<event>
 7    1  0.2943257E-009  0.3632035E+03  0.7561462E-02  0.1057323E+00
         -2   -1    0    0    0  501 -0.00000000000E+00  0.00000000000E+00  0.12486292393E+03  0.12486292393E+03  0.00000000000E+00 0.  1.
          2   -1    0    0  501    0  0.00000000000E+00 -0.00000000000E+00 -0.13213027082E+04  0.13213027082E+04  0.00000000000E+00 0. -1.
         25    2    1    2    0    0  0.23495297720E+03 -0.25866618629E+03 -0.91853578480E+03  0.99069100478E+03  0.12509828768E+03 0.  0.
          5    1    3    3  502    0  0.29921085946E+02  0.84381533650E+01 -0.48511189118E+02  0.57769210537E+02  0.41800000000E+01 0.  1.
         -5    1    3    3    0  502  0.20503189125E+03 -0.26710433965E+03 -0.87002459568E+03  0.93292179425E+03  0.41800000000E+01 0.  1.
        -11    1    1    2    0    0 -0.87132312394E+02  0.15476247751E+03 -0.11059368110E+03  0.20922338925E+03  0.00000000000E+00 0.  1.
         11    1    1    2    0    0 -0.14782066481E+03  0.10390370878E+03 -0.16731031841E+03  0.24625123814E+03  0.00000000000E+00 0. -1.
</event>
<event>
 7    1  0.2943257E-009  0.9791359E+02  0.7561462E-02  0.1284746E+00
          1   -1    0    0  501    0  0.00000000000E+00  0.00000000000E+00  0.26421614120E+03  0.26421614120E+03  0.00000000000E+00 0. -1.
         -1   -1    0    0    0  501 -0.00000000000E+00 -0.00000000000E+00 -0.90967572655E+02  0.90967572655E+02  0.00000000000E+00 0.  1.
         25    2    1    2    0    0 -0.11792774001E+02 -0.88279579893E+02  0.35022454762E+02  0.15749620657E+03  0.12508448746E+03 0.  0.
          5    1    3    3  502    0 -0.12925741970E+02 -0.47315414280E+02 -0.45509658808E+02  0.67040470455E+02  0.41800000000E+01 0. -1.
         -5    1    3    3    0  502  0.11329679686E+01 -0.40964165613E+02  0.80532113570E+02  0.90455736119E+02  0.41800000000E+01 0. -1.
        -11    1    1    2    0    0 -0.14983727318E+02  0.73116481445E+02  0.14770316556E+03  0.16548944697E+03  0.00000000000E+00 0. -1.
         11    1    1    2    0    0  0.26776501319E+02  0.15163098448E+02 -0.94770517733E+01  0.32198060310E+02  0.00000000000E+00 0.  1.
</event>
<event>
 7    1  0.2943257E-009  0.6404077E+02  0.7561462E-02  0.1381617E+00
          2   -1    0    0  501    0  0.00000000000E+00  0.00000000000E+00  0.49460615702E+03  0.49460615702E+03  0.00000000000E+00 0.  1.
         -2   -1    0    0    0  501 -0.00000000000E+00 -0.00000000000E+00 -0.24280578467E+02  0.24280578467E+02  0.00000000000E+00 0. -1.
         25    2    1    2    0    0 -0.39146599541E+02 -0.39039456739E+02  0.31992082487E+03  0.34792556693E+03  0.12508529288E+03 0.  0.
          5    1    3    3  502    0 -0.99511499054E+01  0.45448803906E+01 -0.90321921737E+01  0.14789665908E+02  0.41800000000E+01 0.  1.
         -5    1    3    3    0  502 -0.29195449636E+02 -0.43584337130E+02  0.32895301705E+03  0.33313590102E+03  0.41800000000E+01 0.  1.
        -11    1    1    2    0    0  0.43905406698E+01  0.26398794458E+02  0.12039646839E+03  0.12333484016E+03  0.00000000000E+00 0.  1.
         11    1    1    2    0    0  0.34756058872E+02  0.12640662282E+02  0.30008285292E+02  0.47626328405E+02  0.00000000000E+00 0. -1.
</event>
<event>
 7    1  0.2943257E-009  0.1143086E+03  0.7561462E-02  0.1252793E+00
          2   -1    0    0  501    0  0.00000000000E+00  0.00000000000E+00  0.51517417272E+03  0.51517417272E+03  0.00000000000E+00 0.  1.
         -2   -1    0    0    0  501 -0.00000000000E+00 -0.00000000000E+00 -0.70998996211E+02  0.70998996211E+02  0.00000000000E+00 0. -1.
         25    2    1    2    0    0 -0.43104146081E+02  0.72055242405E+01  0.46269136608E+03  0.48129115882E+03  0.12509193547E+03 0.  0.
          5    1    3    3  502    0  0.41002849642E+02  0.17604551943E+02  0.11572495764E+03  0.12410033098E+03  0.41800000000E+01 0.  1.
         -5    1    3    3    0  502 -0.84106995722E+02 -0.10399027703E+02  0.34696640844E+03  0.35719082784E+03  0.41800000000E+01 0.  1.
        -11    1    1    2    0    0 -0.27045196820E+02  0.56562393334E+01  0.80450982655E+01  0.28777757393E+02  0.00000000000E+00 0.  1.
         11    1    1    2    0    0  0.70149342901E+02 -0.12861763574E+02 -0.26561287833E+02  0.76104252726E+02  0.00000000000E+00 0. -1.
</event>
<event>
 7    1  0.2943257E-009  0.1038450E+03  0.7561462E-02  0.1272412E+00
          2   -1    0    0  501    0  0.00000000000E+00  0.00000000000E+00  0.26353617266E+03  0.26353617266E+03  0.00000000000E+00 0. -1.
         -2   -1    0    0    0  501 -0.00000000000E+00 -0.00000000000E+00 -0.54675498778E+02  0.54675498778E+02  0.00000000000E+00 0.  1.
         25    2    1    2    0    0  0.19527179622E+02 -0.46478844009E+02  0.13287129084E+03  0.18932363726E+03  0.12508823291E+03 0.  0.
          5    1    3    3  502    0  0.56441544222E+02 -0.62045219566E+02  0.51460578362E+02  0.98493252107E+02  0.41800000000E+01 0.  1.
         -5    1    3    3    0  502 -0.36914364600E+02  0.15566375557E+02  0.81410712477E+02  0.90830385158E+02  0.41800000000E+01 0.  1.
        -11    1    1    2    0    0  0.58693844037E+01  0.56000269175E+02  0.83530540643E+02  0.10073644346E+03  0.00000000000E+00 0. -1.
         11    1    1    2    0    0 -0.25396564026E+02 -0.95214251653E+01 -0.75411576044E+01  0.28151590710E+02  0.00000000000E+00 0.  1.
</event>
<event>
 7    1  0.2943257E-009  0.1529057E+03  0.7561462E-02  0.1196947E+00
         -2   -1    0    0    0  501 -0.00000000000E+00  0.00000000000E+00  0.42410099917E+02  0.42410099917E+02  0.00000000000E+00 0.  1.
          2   -1    0    0  501    0  0.00000000000E+00 -0.00000000000E+00 -0.10178082526E+04  0.10178082526E+04  0.00000000000E+00 0. -1.
         25    2    1    2    0    0  0.89123086115E+02  0.94733311980E+02 -0.81348547748E+03  0.83326030889E+03  0.12508715126E+03 0.  0.
          5    1    3    3  502    0  0.68989314008E+00  0.85701757432E+02 -0.29629980669E+03  0.30847417238E+03  0.41800000000E+01 0. -1.
         -5    1    3    3    0  502  0.88433192975E+02  0.90315545471E+01 -0.51718567079E+03  0.52478613651E+03  0.41800000000E+01 0. -1.
        -11    1    1    2    0    0 -0.42505024001E+02 -0.56615757204E+02 -0.14958358169E+03  0.16549099353E+03  0.00000000000E+00 0. -1.
         11    1    1    2    0    0 -0.46618062114E+02 -0.38117554776E+02 -0.12329093470E+02  0.61467050060E+02  0.00000000000E+00 0.  1.
</event>
<event>
 7    1  0.2943257E-009  0.2046650E+03  0.7561462E-02  0.1145862E+00
         -2   -1    0    0    0  501 -0.00000000000E+00  0.00000000000E+00  0.45607878290E+02  0.45607878290E+02  0.00000000000E+00 0.  1.
          2   -1    0    0  501    0  0.00000000000E+00 -0.00000000000E+00 -0.10740959692E+04  0.10740959692E+04  0.00000000000E+00 0. -1.
         25    2    1    2    0    0 -0.18683446761E+03  0.35001755470E+02 -0.61415760030E+03  0.65495776227E+03  0.12509145127E+03 0.  0.
          5    1    3    3  502    0 -0.91280011017E+02 -0.37447789515E+02 -0.18966804090E+03  0.21383595463E+03  0.41800000000E+01 0.  1.
         -5    1    3    3    0  502 -0.95554456592E+02  0.72449544985E+02 -0.42448955940E+03  0.44112180765E+03  0.41800000000E+01 0.  1.
        -11    1    1    2    0    0  0.15560211590E+03 -0.23807774798E+02 -0.23817113733E+03  0.28548961324E+03  0.00000000000E+00 0.  1.
         11    1    1    2    0    0  0.31232351707E+02 -0.11193980672E+02 -0.17615935328E+03  0.17925647197E+03  0.00000000000E+00 0. -1.
</event>
<event>
 7    1  0.2943257E-009  0.1002374E+03  0.7561462E-02  0.1279797E+00
          1   -1    0    0  501    0  0.00000000000E+00  0.00000000000E+00  0.25341672163E+02  0.25341672163E+02  0.00000000000E+00 0. -1.
         -1   -1    0    0    0  501 -0.00000000000E+00 -0.00000000000E+00 -0.76512228191E+03  0.76512228191E+03  0.00000000000E+00 0.  1.
         25    2    1    2    0    0  0.20770522586E+02  0.20804854353E+02 -0.63718071190E+03  0.65000846071E+03  0.12508989887E+03 0.  0.
          5    1    3    3  502    0  0.72719877481E+02  0.13855324189E+01 -0.35467309472E+03  0.36207813631E+03  0.41800000000E+01 0.  1.
         -5    1    3    3    0  502 -0.51949354894E+02  0.19419321934E+02 -0.28250761719E+03  0.28793032440E+03  0.41800000000E+01 0.  1.
        -11    1    1    2    0    0 -0.35609005948E+02  0.10698235876E+02 -0.98631959911E+02  0.10540738623E+03  0.00000000000E+00 0.  1.
         11    1    1    2    0    0  0.14838483362E+02 -0.31503090229E+02 -0.39679379356E+01  0.35048107137E+02  0.00000000000E+00 0. -1.
</event>
<event>
 7    1  0.2943257E-009  0.2103462E+03  0.7561462E-02  0.1141292E+00
         -1   -1    0    0    0  501 -0.00000000000E+00  0.00000000000E+00  0.68951111557E+02  0.68951111557E+02  0.00000000000E+00 0.  1.
          1   -1    0    0  501    0  0.00000000000E+00 -0.00000000000E+00 -0.85207411284E+03  0.85207411284E+03  0.00000000000E+00 0. -1.
         25    2    1    2    0    0  0.53912170432E+02  0.18628018661E+03 -0.58803918073E+03  0.63169902968E+03  0.12508699362E+03 0.  0.
          5    1    3    3  502    0  0.37827885263E+02  0.10871720063E+02 -0.41012122948E+02  0.56996577347E+02  0.41800000000E+01 0.  1.
         -5    1    3    3    0  502  0.16084285169E+02  0.17540846655E+03 -0.54702705779E+03  0.57470245233E+03  0.41800000000E+01 0.  1.
        -11    1    1    2    0    0 -0.69210634737E+02 -0.13997186333E+03 -0.17997110160E+03  0.23826840306E+03  0.00000000000E+00 0. -1.
         11    1    1    2    0    0  0.15298464305E+02 -0.46308323279E+02 -0.15112718944E+02  0.51057791657E+02  0.00000000000E+00 0.  1.
</event>
<event>
 7    1  0.2943257E-009  0.7113804E+02  0.7561462E-02  0.1356265E+00
          1   -1    0    0  501    0  0.00000000000E+00  0.00000000000E+00  0.10405644565E+03  0.10405644565E+03  0.00000000000E+00 0. -1.
         -1   -1    0    0    0  501 -0.00000000000E+00 -0.00000000000E+00 -0.15964239101E+03  0.15964239101E+03  0.00000000000E+00 0.  1.
         25    2    1    2    0    0  0.34149247695E+02 -0.15179043804E+01  0.19349722484E+02  0.13111003614E+03  0.12508778784E+03 0.  0.
          5    1    3    3  502    0  0.20771303206E+02 -0.18034760754E+02  0.70375670419E+02  0.75676330641E+02  0.41800000000E+01 0.  1.
         -5    1    3    3    0  502  0.13377944489E+02  0.16516856374E+02 -0.51025947934E+02  0.55433705503E+02  0.41800000000E+01 0.  1.
        -11    1    1    2    0    0 -0.63448836351E+02  0.21196275153E+01 -0.14054336745E+02  0.65021319861E+02  0.00000000000E+00 0.  1.
         11    1    1    2    0    0  0.29299588656E+02 -0.60172313491E+00 -0.60881331094E+02  0.67567480654E+02  0.00000000000E+00 0. -1.
</event>
<event>
 7    1  0.2943257E-009  0.7449769E+02  0.7561462E-02  0.1345434E+00
         -2   -1    0    0    0  501 -0.00000000000E+00  0.00000000000E+00  0.14446160726E+03  0.14446160726E+03  0.00000000000E+00 0. -1.
          2   -1    0    0  501    0  0.00000000000E+00 -0.00000000000E+00 -0.11584237958E+03  0.11584237958E+03  0.00000000000E+00 0.  1.
         25    2    1    2    0    0 -0.33274781745E+02  0.24429902258E+02  0.73261617117E+02  0.15072986585E+03  0.12509275235E+03 0.  0.
          5    1    3    3  502    0 -0.27812684453E+02  0.30448740941E+02 -0.27378099356E+02  0.49675989831E+02  0.41800000000E+01 0.  1.
         -5    1    3    3    0  502 -0.54620972922E+01 -0.60188386831E+01  0.10063971647E+03  0.10105387601E+03  0.41800000000E+01 0.  1.
        -11    1    1    2    0    0  0.68325093119E+01 -0.56459282500E+02 -0.35513156010E+02  0.67048624249E+02  0.00000000000E+00 0.  1.
         11    1    1    2    0    0  0.26442272433E+02  0.32029380242E+02 -0.91292334276E+01  0.42525496741E+02  0.00000000000E+00 0. -1.
</event>
<event>
 7    1  0.2943257E-009  0.1188737E+03  0.7561462E-02  0.1244967E+00
          1   -1    0    0  501    0  0.00000000000E+00  0.00000000000E+00  0.96573597322E+02  0.96573597322E+02  0.00000000000E+00 0. -1.
         -1   -1    0    0    0  501 -0.00000000000E+00 -0.00000000000E+00 -0.22169302979E+03  0.22169302979E+03  0.00000000000E+00 0.  1.
         25    2    1    2    0    0 -0.36389327357E+02  0.69625503569E+02 -0.55153219990E+01  0.14781516368E+03  0.12508800880E+03 0.  0.
          5    1    3    3  502    0 -0.31939797909E+02  0.10533045968E+03 -0.12734551996E+02  0.11087965387E+03  0.41800000000E+01 0. -1.
         -5    1    3    3    0  502 -0.44495294486E+01 -0.35704956115E+02  0.72192299967E+01  0.36935509814E+02  0.41800000000E+01 0. -1.
        -11    1    1    2    0    0  0.47784441830E+02 -0.56390798140E+02 -0.13042019295E+03  0.14990897813E+03  0.00000000000E+00 0.  1.
         11    1    1    2    0    0 -0.11395114473E+02 -0.13234705429E+02  0.10816082485E+02  0.20542485292E+02  0.00000000000E+00 0. -1.
</event>
<event>
 7    1  0.2943257E-009  0.1079922E+03  0.7561462E-02  0.1264334E+00
         -1   -1    0    0    0  501 -0.00000000000E+00  0.00000000000E+00  0.28289641505E+02  0.28289641505E+02  0.00000000000E+00 0.  1.
          1   -1    0    0  501    0  0.00000000000E+00 -0.00000000000E+00 -0.89469298054E+03  0.89469298054E+03  0.00000000000E+00 0. -1.
         25    2    1    2    0    0 -0.22154171675E+02 -0.28170308237E+02 -0.78752816140E+03  0.79820674301E+03  0.12509606709E+03 0.  0.
          5    1    3    3  502    0 -0.44844815772E+02 -0.69444894600E+02 -0.51379103387E+03  0.52041555489E+03  0.41800000000E+01 0. -1.
         -5    1    3    3    0  502  0.22690644097E+02  0.41274586363E+02 -0.27373712754E+03  0.27779118813E+03  0.41800000000E+01 0. -1.
        -11    1    1    2    0    0  0.47758893070E+02  0.35253318581E+02 -0.24423097504E+02  0.64188753142E+02  0.00000000000E+00 0.  1.
         11    1    1    2    0    0 -0.25604721395E+02 -0.70830103444E+01 -0.54452080134E+02  0.60587125894E+02  0.00000000000E+00 0. -1.
</event>
<event>
 7    1  0.2943257E-009  0.1173661E+03  0.7561462E-02  0.1247506E+00
          4   -1    0    0  501    0  0.00000000000E+00  0.00000000000E+00  0.10592890418E+03  0.10592890418E+03  0.00000000000E+00 0. -1.
         -4   -1    0    0    0  501 -0.00000000000E+00 -0.00000000000E+00 -0.22654516636E+03  0.22654516636E+03  0.00000000000E+00 0.  1.
         25    2    1    2    0    0  0.21522427521E+02 -0.83216780568E+02 -0.13998560897E+03  0.20647575666E+03  0.12509204577E+03 0.  0.
          5    1    3    3  502    0 -0.18189925690E+02  0.18142721846E+02 -0.75542108954E+02  0.79900653175E+02  0.41800000000E+01 0. -1.
         -5    1    3    3    0  502  0.39712353211E+02 -0.10135950241E+03 -0.64443500016E+02  0.12657510348E+03  0.41800000000E+01 0. -1.
        -11    1    1    2    0    0  0.15674402480E+02  0.38676528587E+02 -0.28697375585E+02  0.50646817493E+02  0.00000000000E+00 0.  1.
         11    1    1    2    0    0 -0.37196830001E+02  0.44540251981E+02  0.48066722374E+02  0.75351496391E+02  0.00000000000E+00 0. -1.
</event>
<event>
 7    1  0.2943257E-009  0.1259984E+03  0.7561462E-02  0.1233517E+00
          1   -1    0    0  501    0  0.00000000000E+00  0.00000000000E+00  0.35862648886E+03  0.35862648886E+03  0.00000000000E+00 0. -1.
         -1   -1    0    0    0  501 -0.00000000000E+00 -0.00000000000E+00 -0.62923040482E+02  0.62923040482E+02  0.00000000000E+00 0.  1.
         25    2    1    2    0    0 -0.89172863528E+02  0.47519097470E+02  0.12879986630E+03  0.20602660239E+03  0.12509073155E+03 0.  0.
          5    1    3    3  502    0  0.27857133653E+01 -0.71387209312E+01 -0.20516739828E+02  0.22296424571E+02  0.41800000000E+01 0. -1.
         -5    1    3    3    0  502 -0.91958576893E+02  0.54657818402E+02  0.14931660613E+03  0.18373017782E+03  0.41800000000E+01 0. -1.
        -11    1    1    2    0    0  0.57015879903E+02  0.20808066178E+02  0.69415983127E+02  0.92208269113E+02  0.00000000000E+00 0.  1.
         11    1    1    2    0    0  0.32156983625E+02 -0.68327163648E+02  0.97487598944E+02  0.12331465783E+03  0.00000000000E+00 0. -1.
</event>
<event>
 7    1  0.2943257E-009  0.1350880E+03  0.7561462E-02  0.1220096E+00
          2   -1    0    0  501    0  0.00000000000E+00  0.00000000000E+00  0.10703742913E+03  0.10703742913E+03  0.00000000000E+00 0. -1.
         -2   -1    0    0    0  501 -0.00000000000E+00 -0.00000000000E+00 -0.31653920562E+03  0.31653920562E+03  0.00000000000E+00 0.  1.
         25    2    1    2    0    0 -0.99425715425E+02  0.31688861230E+02  0.14824923555E+02  0.16357597992E+03  0.12509063128E+03 0.  0.
          5    1    3    3  502    0 -0.53655280767E+02  0.73128493121E+02  0.36707846304E+02  0.97936734889E+02  0.41800000000E+01 0. -1.
         -5    1    3    3    0  502 -0.45770434658E+02 -0.41439631892E+02 -0.21882922749E+02  0.65639245030E+02  0.41800000000E+01 0. -1.
        -11    1    1    2    0    0  0.10007833317E+01 -0.18109678972E+02 -0.96039221668E+02  0.97736861718E+02  0.00000000000E+00 0.  1.
         11    1    1    2    0    0  0.98424932093E+02 -0.13579182257E+02 -0.12828747837E+03  0.16226379311E+03  0.00000000000E+00 0. -1.
</event>
<event>
 7    1  0.2943257E-009  0.9863661E+02  0.7561462E-02  0.1283189E+00
          2   -1    0    0  501    0  0.00000000000E+00  0.00000000000E+00  0.44971513062E+02  0.44971513062E+02  0.00000000000E+00 0. -1.
         -2   -1    0    0    0  501 -0.00000000000E+00 -0.00000000000E+00 -0.32661890672E+03  0.32661890672E+03  0.00000000000E+00 0.  1.
         25    2    1    2    0    0  0.17834087825E+02  0.30556622186E+02 -0.93635116652E+02  0.16020727505E+03  0.12508826509E+03 0.  0.
          5    1    3    3  502    0  0.81645597895E+01  0.68764797935E+02 -0.98284188760E+02  0.12030175241E+03  0.41800000000E+01 0.  1.
         -5    1    3    3    0  502  0.96695280353E+01 -0.38208175749E+02  0.46490721074E+01  0.39905522650E+02  0.41800000000E+01 0.  1.
        -11    1    1    2    0    0 -0.45815433090E+02 -0.37761470861E+02 -0.16188168412E+03  0.17242581664E+03  0.00000000000E+00 0.  1.
         11    1    1    2    0    0  0.27981345265E+02  0.72048486751E+01 -0.26130592892E+02  0.38957328093E+02  0.00000000000E+00 0. -1.
</event>
<event>
 7    1  0.2943257E-009  0.6142679E+02  0.7561462E-02  0.1391940E+00
          2   -1    0    0  501    0  0.00000000000E+00  0.00000000000E+00  0.79835326526E+03  0.79835326526E+03  0.00000000000E+00 0.  1.
         -2   -1    0    0    0  501 -0.00000000000E+00 -0.00000000000E+00 -0.14746006968E+02  0.14746006968E+02  0.00000000000E+00 0. -1.
         25    2    1    2    0    0 -0.76496848814E+01  0.71878178622E+01  0.45754749381E+03  0.47445496323E+03  0.12509044981E+03 0.  0.
          5    1    3    3  502    0 -0.16744771756E+02 -0.31043977531E+01  0.45961542993E+03  0.45994982389E+03  0.41800000000E+01 0.  1.
         -5    1    3    3    0  502  0.90950868745E+01  0.10292215615E+02 -0.20679361155E+01  0.14505139341E+02  0.41800000000E+01 0.  1.
        -11    1    1    2    0    0 -0.37001517196E+02 -0.23029436973E+02  0.13864738115E+03  0.14533603663E+03  0.00000000000E+00 0. -1.
         11    1    1    2    0    0  0.44651202078E+02  0.15841619111E+02  0.18741238333E+03  0.19330827237E+03  0.00000000000E+00 0.  1.
</event>
<event>
 7    1  0.2943257E-009  0.1453430E+03  0.7561462E-02  0.1206315E+00
         -1   -1    0    0    0  501 -0.00000000000E+00  0.00000000000E+00  0.17091759109E+03  0.17091759109E+03  0.00000000000E+00 0.  1.
          1   -1    0    0  501    0  0.00000000000E+00 -0.00000000000E+00 -0.23797563629E+03  0.23797563629E+03  0.00000000000E+00 0. -1.
         25    2    1    2    0    0 -0.11722181463E+02 -0.12042526752E+03  0.85761205924E+02  0.19401591163E+03  0.12509010724E+03 0.  0.
          5    1    3    3  502    0  0.31164195032E+02 -0.86259228403E+02 -0.38728482954E+00  0.91812221006E+02  0.41800000000E+01 0. -1.
         -5    1    3    3    0  502 -0.42886376495E+02 -0.34166039118E+02  0.86148490753E+02  0.10220369062E+03  0.41800000000E+01 0. -1.
        -11    1    1    2    0    0  0.58253785011E+01 -0.10935499547E+02 -0.39149870342E+02  0.41063761796E+02  0.00000000000E+00 0. -1.
         11    1    1    2    0    0  0.58968029620E+01  0.13136076707E+03 -0.11366938078E+03  0.17381355395E+03  0.00000000000E+00 0.  1.
</event>
<event>
 7    1  0.2943257E-009  0.8716431E+02  0.7561462E-02  0.1309868E+00
         -2   -1    0    0    0  501 -0.00000000000E+00  0.00000000000E+00  0.42710566430E+02  0.42710566430E+02  0.00000000000E+00 0.  1.
          2   -1    0    0  501    0  0.00000000000E+00 -0.00000000000E+00 -0.38785098844E+03  0.38785098844E+03  0.00000000000E+00 0. -1.
         25    2    1    2    0    0  0.52395019975E+01 -0.28517543101E+02 -0.30125276744E+03  0.32747695463E+03  0.12508886152E+03 0.  0.
          5    1    3    3  502    0 -0.59607157117E+02 -0.12587723449E+02 -0.15725088989E+03  0.16869137125E+03  0.41800000000E+01 0. -1.
         -5    1    3    3    0  502  0.64846659114E+02 -0.15929819652E+02 -0.14400187755E+03  0.15878558338E+03  0.41800000000E+01 0. -1.
        -11    1    1    2    0    0  0.94601064894E+01 -0.43056469890E+01 -0.61966280492E+02  0.62831935580E+02  0.00000000000E+00 0. -1.
         11    1    1    2    0    0 -0.14699608487E+02  0.32823190090E+02  0.18078625919E+02  0.40252664663E+02  0.00000000000E+00 0.  1.
</event>
<event>
 7    1  0.2943257E-009  0.1206971E+03  0.7561462E-02  0.1241951E+00
         -2   -1    0    0    0  501 -0.00000000000E+00  0.00000000000E+00  0.79756760064E+02  0.79756760064E+02  0.00000000000E+00 0.  1.
          2   -1    0    0  501    0  0.00000000000E+00 -0.00000000000E+00 -0.21586087272E+03  0.21586087272E+03  0.00000000000E+00 0. -1.
         25    2    1    2    0    0 -0.33823353150E+02  0.58409272702E+02 -0.39263056132E+02  0.14746194993E+03  0.12509107380E+03 0.  0.
          5    1    3    3  502    0  0.26970830617E+02 -0.21340747136E+02 -0.31450501568E+02  0.46791662092E+02  0.41800000000E+01 0. -1.
         -5    1    3    3    0  502 -0.60794183766E+02  0.79750019838E+02 -0.78125545638E+01  0.10067028784E+03  0.41800000000E+01 0. -1.
        -11    1    1    2    0    0  0.45534377302E+02  0.12822153689E+01 -0.18976056942E+02  0.49346877607E+02  0.00000000000E+00 0.  1.
         11    1    1    2    0    0 -0.11711024152E+02 -0.59691488071E+02 -0.77864999586E+02  0.98808805252E+02  0.00000000000E+00 0. -1.
</event>
<event>
 7    1  0.2943257E-009  0.9893448E+02  0.7561462E-02  0.1282553E+00
          1   -1    0    0  501    0  0.00000000000E+00  0.00000000000E+00  0.49179252190E+03  0.49179252190E+03  0.00000000000E+00 0. -1.
         -1   -1    0    0    0  501 -0.00000000000E+00 -0.00000000000E+00 -0.43538693850E+02  0.43538693850E+02  0.00000000000E+00 0.  1.
         25    2    1    2    0    0 -0.54973866146E+01  0.24718504853E+02  0.42023610644E+03  0.43918879622E+03  0.12508871983E+03 0.  0.
          5    1    3    3  502    0 -0.54767484144E+02 -0.21002898308E+02  0.22943300319E+03  0.23684926517E+03  0.41800000000E+01 0. -1.
         -5    1    3    3    0  502  0.49270097529E+02  0.45721403161E+02  0.19080310325E+03  0.20233953105E+03  0.41800000000E+01 0. -1.
        -11    1    1    2    0    0 -0.30328518770E+02 -0.47366647886E+01 -0.17121283935E+02  0.35148163646E+02  0.00000000000E+00 0.  1.
         11    1    1    2    0    0  0.35825905385E+02 -0.19981840065E+02  0.45139005543E+02  0.60994255881E+02  0.00000000000E+00 0. -1.
</event>
<event>
 7    1  0.2943257E-009  0.1064128E+03  0.7561462E-02  0.1267361E+00
          3   -1    0    0  501    0  0.00000000000E+00  0.00000000000E+00  0.36720148410E+02  0.36720148410E+02  0.00000000000E+00 0. -1.
         -3   -1    0    0    0  501 -0.00000000000E+00 -0.00000000000E+00 -0.33274856117E+03  0.33274856117E+03  0.00000000000E+00 0.  1.
         25    2    1    2    0    0  0.89759220954E+01 -0.11918912631E+02 -0.13809933169E+03  0.18693135439E+03  0.12509707505E+03 0.  0.
          5    1    3    3  502    0 -0.26134837712E+01 -0.68136674696E+02 -0.70929770113E+02  0.98478126629E+02  0.41800000000E+01 0.  1.
         -5    1    3    3    0  502  0.11589405867E+02  0.56217762065E+02 -0.67169561574E+02  0.88453227764E+02  0.41800000000E+01 0.  1.
        -11    1    1    2    0    0  0.16240980094E+02 -0.32244214380E+02 -0.94992703203E+02  0.10162220455E+03  0.00000000000E+00 0.  1.
         11    1    1    2    0    0 -0.25216902189E+02  0.44163127011E+02 -0.62936377869E+02  0.80915150638E+02  0.00000000000E+00 0. -1.
</event>
<event>
 7    1  0.2943257E-009  0.1059191E+03  0.7561462E-02  0.1268319E+00
          1   -1    0    0  501    0  0.00000000000E+00  0.00000000000E+00  0.10530242844E+03  0.10530242844E+03  0.00000000000E+00 0. -1.
         -1   -1    0    0    0  501 -0.00000000000E+00 -0.00000000000E+00 -0.16200355628E+03  0.16200355628E+03  0.00000000000E+00 0.  1.
         25    2    1    2    0    0 -0.43737310751E+02 -0.24907830981E+01  0.28727615375E+02  0.13561759349E+03  0.12509076475E+03 0.  0.
          5    1    3    3  502    0 -0.85175068161E+01  0.59473579958E+02  0.21098820123E+02  0.63814475207E+02  0.41800000000E+01 0. -1.
         -5    1    3    3    0  502 -0.35219803935E+02 -0.61964363056E+02  0.76287952513E+01  0.71803118283E+02  0.41800000000E+01 0. -1.
        -11    1    1    2    0    0  0.39776083598E+02 -0.28525713182E+02 -0.87597039054E+02  0.10034487725E+03  0.00000000000E+00 0.  1.
         11    1    1    2    0    0  0.39612271531E+01  0.31016496280E+02  0.21682958310E+01  0.31343513984E+02  0.00000000000E+00 0. -1.
</event>
<event>
 7    1  0.2943257E-009  0.9137120E+02  0.7561462E-02  0.1299565E+00
          1   -1    0    0  501    0  0.00000000000E+00  0.00000000000E+00  0.15163697641E+04  0.15163697641E+04  0.00000000000E+00 0. -1.
         -1   -1    0    0    0  501 -0.00000000000E+00 -0.00000000000E+00 -0.10960545111E+02  0.10960545111E+02  0.00000000000E+00 0.  1.
         25    2    1    2    0    0 -0.16210473898E+02  0.13541924108E+02  0.12308830816E+04  0.12374027094E+04  0.12508453740E+03 0.  0.
          5    1    3    3  502    0  0.34630389343E+02 -0.59031096115E+01  0.11819131922E+03  0.12337248845E+03  0.41800000000E+01 0. -1.
         -5    1    3    3    0  502 -0.50840863241E+02  0.19445033719E+02  0.11126917624E+04  0.11140302210E+04  0.41800000000E+01 0. -1.
        -11    1    1    2    0    0  0.44346320887E+02  0.20291428731E+02  0.12977642645E+03  0.13863714912E+03  0.00000000000E+00 0.  1.
         11    1    1    2    0    0 -0.28135846989E+02 -0.33833352839E+02  0.14474971094E+03  0.15129045069E+03  0.00000000000E+00 0. -1.
</event>
<event>
 7    1  0.2943257E-009  0.1118584E+03  0.7561462E-02  0.1257167E+00
          1   -1    0    0  501    0  0.00000000000E+00  0.00000000000E+00  0.13164172099E+04  0.13164172099E+04  0.00000000000E+00 0. -1.
         -1   -1    0    0    0  501 -0.00000000000E+00 -0.00000000000E+00 -0.17935138305E+02  0.17935138305E+02  0.00000000000E+00 0.  1.
         25    2    1    2    0    0 -0.36333753147E+02 -0.53745972256E+02  0.99470202790E+03  0.10046334212E+04  0.12508963014E+03 0.  0.
          5    1    3    3  502    0 -0.61398284728E+02 -0.81538172971E+02  0.77888855501E+03  0.78555908533E+03  0.41800000000E+01 0.  1.
         -5    1    3    3    0  502  0.25064531582E+02  0.27792200715E+02  0.21581347290E+03  0.21907433589E+03  0.41800000000E+01 0.  1.
        -11    1    1    2    0    0 -0.10426844035E+02  0.29380537424E+02  0.12310427395E+02  0.33518378220E+02  0.00000000000E+00 0.  1.
         11    1    1    2    0    0  0.46760597182E+02  0.24365434832E+02  0.29146961629E+03  0.29620054876E+03  0.00000000000E+00 0. -1.
</event>
<event>
 7    1  0.2943257E-009  0.1176406E+03  0.7561462E-02  0.1247041E+00
         -1   -1    0    0    0  501 -0.00000000000E+00  0.00000000000E+00  0.62777305377E+02  0.62777305377E+02  0.00000000000E+00 0.  1.
          1   -1    0    0  501    0  0.00000000000E+00 -0.00000000000E+00 -0.42424865757E+03  0.42424865757E+03  0.00000000000E+00 0. -1.
         25    2    1    2    0    0 -0.29913563178E+02 -0.40176819140E+02 -0.26851744691E+02  0.13739222097E+03  0.12508640267E+03 0.  0.
          5    1    3    3  502    0 -0.59104031901E+02 -0.70494773109E+02 -0.23043163446E+02  0.94927653528E+02  0.41800000000E+01 0.  1.
         -5    1    3    3    0  502  0.29190468723E+02  0.30317953969E+02 -0.38085812448E+01  0.42464567444E+02  0.41800000000E+01 0.  1.
        -11    1    1    2    0    0 -0.22260446650E+02  0.43242065546E+02 -0.14474440448E+03  0.15269691008E+03  0.00000000000E+00 0.  1.
         11    1    1    2    0    0  0.52174009828E+02 -0.30652464065E+01 -0.18987520301E+03  0.19693683189E+03  0.00000000000E+00 0. -1.
</event>
<event>
 7    1  0.2943257E-009  0.7363131E+02  0.7561462E-02  0.1348163E+00
         -2   -1    0    0    0  501 -0.00000000000E+00  0.00000000000E+00  0.38897620269E+02  0.38897620269E+02  0.00000000000E+00 0. -1.
          2   -1    0    0  501    0  0.00000000000E+00 -0.00000000000E+00 -0.31528258047E+03  0.31528258047E+03  0.00000000000E+00 0.  1.
         25    2    1    2    0    0 -0.20454179702E+02  0.85708089678E+01 -0.16968217438E+03  0.21196862326E+03  0.12508726837E+03 0.  0.
          5    1    3    3  502    0  0.14753940065E+02  0.16621669320E+02 -0.17390228653E+03  0.17536657691E+03  0.41800000000E+01 0.  1.
         -5    1    3    3    0  502 -0.35208119767E+02 -0.80508603518E+01  0.42201121461E+01  0.36602046342E+02  0.41800000000E+01 0.  1.
        -11    1    1    2    0    0  0.49253301166E+02  0.14550555132E+02 -0.36895874648E+02  0.63236950405E+02  0.00000000000E+00 0.  1.
         11    1    1    2    0    0 -0.28799121465E+02 -0.23121364100E+02 -0.69806911173E+02  0.78974627080E+02  0.00000000000E+00 0. -1.
</event>
<event>
 7    1  0.2943257E-009  0.1067995E+03  0.7561462E-02  0.1266614E+00
          2   -1    0    0  501    0  0.00000000000E+00  0.00000000000E+00  0.51381361009E+02  0.51381361009E+02  0.00000000000E+00 0. -1.
         -2   -1    0    0    0  501 -0.00000000000E+00 -0.00000000000E+00 -0.38612204345E+03  0.38612204345E+03  0.00000000000E+00 0.  1.
         25    2    1    2    0    0  0.18216897876E+02 -0.83948947071E+02 -0.14942253277E+03  0.21296746498E+03  0.12509503091E+03 0.  0.
          5    1    3    3  502    0 -0.16826617275E+02 -0.81440494921E+02 -0.30147164983E+02  0.88555142248E+02  0.41800000000E+01 0.  1.
         -5    1    3    3    0  502  0.35043515152E+02 -0.25084521500E+01 -0.11927536779E+03  0.12441232273E+03  0.41800000000E+01 0.  1.
        -11    1    1    2    0    0  0.10301676559E+02  0.47856825262E+02 -0.16864789395E+03  0.17560897585E+03  0.00000000000E+00 0.  1.
         11    1    1    2    0    0 -0.28518574436E+02  0.36092121810E+02 -0.16670255717E+02  0.48926963632E+02  0.00000000000E+00 0. -1.
</event>
<event>
 7    1  0.2943257E-009  0.1323831E+03  0.7561462E-02  0.1223962E+00
         -1   -1    0    0    0  501 -0.00000000000E+00  0.00000000000E+00  0.25559353104E+02  0.25559353104E+02  0.00000000000E+00 0.  1.
          1   -1    0    0  501    0  0.00000000000E+00 -0.00000000000E+00 -0.95953113818E+03  0.95953113818E+03  0.00000000000E+00 0. -1.
         25    2    1    2    0    0 -0.80589559533E+01 -0.10906160287E+03 -0.62415319503E+03  0.64588986398E+03  0.12508847081E+03 0.  0.
          5    1    3    3  502    0  0.30905840519E+02  0.11154687970E+01 -0.43250290167E+02  0.53333622119E+02  0.41800000000E+01 0. -1.
         -5    1    3    3    0  502 -0.38964796473E+02 -0.11017707166E+03 -0.58090290487E+03  0.59255624186E+03  0.41800000000E+01 0. -1.
        -11    1    1    2    0    0  0.22614842206E+02  0.39176451180E+02 -0.40951466115E+02  0.61018423382E+02  0.00000000000E+00 0.  1.
         11    1    1    2    0    0 -0.14555886253E+02  0.69885151685E+02 -0.26886712393E+03  0.27818220392E+03  0.00000000000E+00 0. -1.
</event>
<event>
 7    1  0.2943257E-009  0.1509295E+03  0.7561462E-02  0.1199336E+00
         -1   -1    0    0    0  501 -0.00000000000E+00  0.00000000000E+00  0.34903042626E+03  0.34903042626E+03  0.00000000000E+00 0.  1.
          1   -1    0    0  501    0  0.00000000000E+00 -0.00000000000E+00 -0.86724455163E+02  0.86724455163E+02  0.00000000000E+00 0. -1.
         25    2    1    2    0    0  0.61588592023E+02 -0.11123797830E+03  0.19525108278E+03  0.26446181418E+03  0.12510005335E+03 0.  0.
          5    1    3    3  502    0  0.53663124005E+01 -0.10842710493E+03  0.76178810106E+02  0.13268729367E+03  0.41800000000E+01 0.  1.
         -5    1    3    3    0  502  0.56222279622E+02 -0.28108733673E+01  0.11907227267E+03  0.13177452050E+03  0.41800000000E+01 0.  1.
        -11    1    1    2    0    0 -0.70399210498E+02  0.94312431233E+02  0.18514932709E+02  0.11913725806E+03  0.00000000000E+00 0. -1.
         11    1    1    2    0    0  0.88106184750E+01  0.16925547069E+02  0.48539955610E+02  0.52155809188E+02  0.00000000000E+00 0.  1.
</event>
<event>
 7    1  0.2943257E-009  0.1272179E+03  0.7561462E-02  0.1231643E+00
          2   -1    0    0  501    0  0.00000000000E+00  0.00000000000E+00  0.11001970920E+03  0.11001970920E+03  0.00000000000E+00 0.  1.
         -2   -1    0    0    0  501 -0.00000000000E+00 -0.00000000000E+00 -0.18073593362E+03  0.18073593362E+03  0.00000000000E+00 0. -1.
         25    2    1    2    0    0  0.63481515000E+02 -0.56096468166E+02 -0.71607241827E+01  0.15124973756E+03  0.12509392732E+03 0.  0.
          5    1    3    3  502    0  0.45329633082E+02 -0.94297549859E+02  0.10480129446E+02  0.10523359282E+03  0.41800000000E+01 0.  1.
         -5    1    3    3    0  502  0.18151881919E+02  0.38201081693E+02 -0.17640853629E+02  0.46016144737E+02  0.41800000000E+01 0.  1.
        -11    1    1    2    0    0  0.85151039994E+01 -0.73599832972E+01  0.12670273672E+02  0.16947335637E+02  0.00000000000E+00 0.  1.
         11    1    1    2    0    0 -0.71996619000E+02  0.63456451463E+02 -0.76225773910E+02  0.12255856962E+03  0.00000000000E+00 0. -1.
</event>
<event>
 7    1  0.2943257E-009  0.1009497E+03  0.7561462E-02  0.1278311E+00
         -2   -1    0    0    0  501 -0.00000000000E+00  0.00000000000E+00  0.24875817411E+02  0.24875817411E+02  0.00000000000E+00 0. -1.
          2   -1    0    0  501    0  0.00000000000E+00 -0.00000000000E+00 -0.96828731254E+03  0.96828731254E+03  0.00000000000E+00 0.  1.
         25    2    1    2    0    0  0.40403055041E+01 -0.29799718265E+02 -0.85210409904E+03  0.86176194466E+03  0.12509159198E+03 0.  0.
          5    1    3    3  502    0  0.35239457351E+02  0.33647811746E+02 -0.20309597635E+03  0.20890055673E+03  0.41800000000E+01 0. -1.
         -5    1    3    3    0  502 -0.31199151847E+02 -0.63447530011E+02 -0.64900812268E+03  0.65286138793E+03  0.41800000000E+01 0. -1.
        -11    1    1    2    0    0  0.36267695291E+02  0.14199407726E+02 -0.11448226609E+02  0.40595945536E+02  0.00000000000E+00 0. -1.
         11    1    1    2    0    0 -0.40308000795E+02  0.15600310539E+02 -0.79859169483E+02  0.90805239758E+02  0.00000000000E+00 0.  1.
</event>
<event>
 7    1  0.2943257E-009  0.7928386E+02  0.7561462E-02  0.1331096E+00
         -1   -1    0    0    0  501 -0.00000000000E+00  0.00000000000E+00  0.92970018835E+02  0.92970018835E+02  0.00000000000E+00 0.  1.
          1   -1    0    0  501    0  0.00000000000E+00 -0.00000000000E+00 -0.15693690220E+03  0.15693690220E+03  0.00000000000E+00 0. -1.
         25    2    1    2    0    0  0.13194999186E+02 -0.45246421843E+00  0.18170406213E+02  0.12708115864E+03  0.12508055201E+03 0.  0.
          5    1    3    3  502    0 -0.37571371229E+02  0.39186280145E+02 -0.12122756232E+02  0.55781772169E+02  0.41800000000E+01 0.  1.
         -5    1    3    3    0  502  0.50766370415E+02 -0.39638744363E+02  0.30293162445E+02  0.71299386468E+02  0.41800000000E+01 0.  1.
        -11    1    1    2    0    0 -0.10027531821E+02  0.18612043505E+02  0.13725887028E+02  0.25206339135E+02  0.00000000000E+00 0.  1.
         11    1    1    2    0    0 -0.31674673644E+01 -0.18159579286E+02 -0.95863176608E+02  0.97619423266E+02  0.00000000000E+00 0. -1.
</event>
<event>
 7    1  0.2943257E-009  0.3225445E+03  0.7561462E-02  0.1074484E+00
          1   -1    0    0  501    0  0.00000000000E+00  0.00000000000E+00  0.55147064191E+02  0.55147064191E+02  0.00000000000E+00 0. -1.
         -1   -1    0    0    0  501 -0.00000000000E+00 -0.00000000000E+00 -0.19857028975E+04  0.19857028975E+04  0.00000000000E+00 0.  1.
         25    2    1    2    0    0  0.26636838972E+03  0.16287049449E+03 -0.10196347677E+04  0.10736760521E+04  0.12508512446E+03 0.  0.
          5    1    3    3  502    0  0.11438070818E+03  0.65340332803E+01 -0.42943727701E+03  0.44447664425E+03  0.41800000000E+01 0.  1.
         -5    1    3    3    0  502  0.15198768155E+03  0.15633646121E+03 -0.59019749067E+03  0.62919940785E+03  0.41800000000E+01 0. -1.
        -11    1    1    2    0    0 -0.20927411572E+03 -0.12324828326E+03 -0.57584011811E+03  0.62496210802E+03  0.00000000000E+00 0. -1.
         11    1    1    2    0    0 -0.57094274000E+02 -0.39622211229E+02 -0.33508094749E+03  0.34221180154E+03  0.00000000000E+00 0.  1.
</event>
<event>
 7    1  0.2943257E-009  0.3680725E+03  0.7561462E-02  0.1055432E+00
         -2   -1    0    0    0  501 -0.00000000000E+00  0.00000000000E+00  0.22162797337E+03  0.22162797337E+03  0.00000000000E+00 0. -1.
          2   -1    0    0  501    0  0.00000000000E+00 -0.00000000000E+00 -0.75099822835E+03  0.75099822835E+03  0.00000000000E+00 0.  1.
         25    2    1    2    0    0 -0.17053018717E+03 -0.31078942268E+03 -0.64896820308E+02  0.38149444128E+03  0.12512314517E+03 0.  0.
          5    1    3    3  502    0 -0.82866465071E+02 -0.41637434416E+02 -0.15544740218E+02  0.94125651799E+02  0.41800000000E+01 0.  1.
         -5    1    3    3    0  502 -0.87663722095E+02 -0.26915198827E+03 -0.49352080090E+02  0.28736878948E+03  0.41800000000E+01 0.  1.
        -11    1    1    2    0    0  0.38924303197E+02  0.13573127817E+03 -0.13392611339E+03  0.19461316785E+03  0.00000000000E+00 0. -1.
         11    1    1    2    0    0  0.13160588397E+03  0.17505814452E+03 -0.33054732128E+03  0.39651859258E+03  0.00000000000E+00 0.  1.
</event>
<event>
 7    1  0.2943257E-009  0.8724286E+02  0.7561462E-02  0.1309669E+00
          1   -1    0    0  501    0  0.00000000000E+00  0.00000000000E+00  0.54515954538E+03  0.54515954538E+03  0.00000000000E+00 0. -1.
         -1   -1    0    0    0  501 -0.00000000000E+00 -0.00000000000E+00 -0.41801702869E+02  0.41801702869E+02  0.00000000000E+00 0.  1.
         25    2    1    2    0    0  0.36674005507E+02  0.51221132858E+02  0.43511651666E+03  0.45710144010E+03  0.12508699508E+03 0.  0.
          5    1    3    3  502    0  0.25374674033E+02  0.50790738428E+02  0.44030984786E+03  0.44397500798E+03  0.41800000000E+01 0.  1.
         -5    1    3    3    0  502  0.11299331474E+02  0.43039443005E+00 -0.51933311987E+01  0.13126432115E+02  0.41800000000E+01 0.  1.
        -11    1    1    2    0    0 -0.62982263602E+02 -0.47594656674E+02  0.32593226763E+02  0.85406880888E+02  0.00000000000E+00 0.  1.
         11    1    1    2    0    0  0.26308258095E+02 -0.36264761840E+01  0.35648099087E+02  0.44452927260E+02  0.00000000000E+00 0. -1.
</event>
<event>
 7    1  0.2943257E-009  0.1009886E+03  0.7561462E-02  0.1278231E+00
         -1   -1    0    0    0  501 -0.00000000000E+00  0.00000000000E+00  0.19374122830E+03  0.19374122830E+03  0.00000000000E+00 0.  1.
          1   -1    0    0  501    0  0.00000000000E+00 -0.00000000000E+00 -0.87588634765E+02  0.87588634765E+02  0.00000000000E+00 0. -1.
         25    2    1    2    0    0  0.33074525659E+02 -0.56649599741E+02  0.88895184584E+02  0.16689031058E+03  0.12508765136E+03 0.  0.
          5    1    3    3  502    0 -0.18384947190E+02 -0.24637036535E+02 -0.23641018828E+02  0.39004615414E+02  0.41800000000E+01 0. -1.
         -5    1    3    3    0  502  0.51459472849E+02 -0.32012563205E+02  0.11253620341E+03  0.12788569516E+03  0.41800000000E+01 0. -1.
        -11    1    1    2    0    0  0.26399881153E+02  0.40901351629E+02  0.20519171729E+02  0.52829070581E+02  0.00000000000E+00 0.  1.
         11    1    1    2    0    0 -0.59474406812E+02  0.15748248111E+02 -0.32617627803E+01  0.61610481906E+02  0.00000000000E+00 0. -1.
</event>
<event>
 7    1  0.2943257E-009  0.1141352E+03  0.7561462E-02  0.1253098E+00
         -2   -1    0    0    0  501 -0.00000000000E+00  0.00000000000E+00  0.31981388511E+02  0.31981388511E+02  0.00000000000E+00 0.  1.
          2   -1    0    0  501    0  0.00000000000E+00 -0.00000000000E+00 -0.62207290650E+03  0.62207290650E+03  0.00000000000E+00 0. -1.
         25    2    1    2    0    0  0.71531690531E+02  0.37569355566E+02 -0.41731831752E+03  0.44309219735E+03  0.12509147844E+03 0.  0.
          5    1    3    3  502    0  0.94021045163E+01 -0.43790657225E+02 -0.15765715103E+03  0.16394898872E+03  0.41800000000E+01 0. -1.
         -5    1    3    3    0  502  0.62129586014E+02  0.81360012791E+02 -0.25966116649E+03  0.27914320863E+03  0.41800000000E+01 0. -1.
        -11    1    1    2    0    0 -0.25046827707E+02 -0.14438027674E+02  0.16673335102E+01  0.28958249642E+02  0.00000000000E+00 0.  1.
         11    1    1    2    0    0 -0.46484862824E+02 -0.23131327893E+02 -0.17444053398E+03  0.18200384803E+03  0.00000000000E+00 0. -1.
</event>
<event>
 7    1  0.2943257E-009  0.1103596E+03  0.7561462E-02  0.1259905E+00
          1   -1    0    0  501    0  0.00000000000E+00  0.00000000000E+00  0.18537870340E+03  0.18537870340E+03  0.00000000000E+00 0. -1.
         -1   -1    0    0    0  501 -0.00000000000E+00 -0.00000000000E+00 -0.78536985186E+02  0.78536985186E+02  0.00000000000E+00 0.  1.
         25    2    1    2    0    0 -0.30313148787E+02  0.25012302345E+01  0.10688865529E+03  0.16732312547E+03  0.12508677207E+03 0.  0.
          5    1    3    3  502    0 -0.75649796147E+02 -0.13605018838E+02  0.83816467574E+02  0.11380097026E+03  0.41800000000E+01 0. -1.
         -5    1    3    3    0  502  0.45336647360E+02  0.16106249072E+02  0.23072187717E+02  0.53522155216E+02  0.41800000000E+01 0. -1.
        -11    1    1    2    0    0  0.61125731495E+02  0.10471650468E+02 -0.71099403951E+01  0.62422446017E+02  0.00000000000E+00 0.  1.
         11    1    1    2    0    0 -0.30812582707E+02 -0.12972880702E+02  0.70630033239E+01  0.34170117102E+02  0.00000000000E+00 0. -1.
</event>
<event>
 7    1  0.2943257E-009  0.1171547E+03  0.7561462E-02  0.1247866E+00
         -2   -1    0    0    0  501 -0.00000000000E+00  0.00000000000E+00  0.10956611394E+04  0.10956611394E+04  0.00000000000E+00 0.  1.
          2   -1    0    0  501    0  0.00000000000E+00 -0.00000000000E+00 -0.38759113264E+02  0.38759113264E+02  0.00000000000E+00 0. -1.
         25    2    1    2    0    0  0.37088726535E+02  0.72077979132E+02  0.97965374917E+03  0.99092860180E+03  0.12508883602E+03 0.  0.
          5    1    3    3  502    0  0.79733140562E+02  0.44532568190E+02  0.75820144967E+03  0.76369328531E+03  0.41800000000E+01 0. -1.
         -5    1    3    3    0  502 -0.42644414027E+02  0.27545410941E+02  0.22145229950E+03  0.22723531650E+03  0.41800000000E+01 0. -1.
        -11    1    1    2    0    0 -0.17390113680E+02 -0.70014846202E+02  0.93341853539E+02  0.11797116751E+03  0.00000000000E+00 0.  1.
         11    1    1    2    0    0 -0.19698612854E+02 -0.20631329299E+01 -0.16093576543E+02  0.25520483377E+02  0.00000000000E+00 0. -1.
</event>
<event>
 7    1  0.2943257E-009  0.7652414E+02  0.7561462E-02  0.1339215E+00
         -2   -1    0    0    0  501 -0.00000000000E+00  0.00000000000E+00  0.21739669897E+02  0.21739669897E+02  0.00000000000E+00 0.  1.
          2   -1    0    0  501    0  0.00000000000E+00 -0.00000000000E+00 -0.69474989171E+03  0.69474989171E+03  0.00000000000E+00 0. -1.
         25    2    1    2    0    0 -0.63107602156E+01  0.38613064778E+02 -0.46482390203E+03  0.48294891319E+03  0.12509036091E+03 0.  0.
          5    1    3    3  502    0 -0.15040005014E+02 -0.10589954716E+02 -0.38456876600E+01  0.19251249447E+02  0.41800000000E+01 0. -1.
         -5    1    3    3    0  502  0.87292447981E+01  0.49203019495E+02 -0.46097821437E+03  0.46369766375E+03  0.41800000000E+01 0. -1.
        -11    1    1    2    0    0  0.39507116191E+02 -0.11413345104E+02 -0.31731759946E+02  0.51942095313E+02  0.00000000000E+00 0.  1.
         11    1    1    2    0    0 -0.33196355976E+02 -0.27199719675E+02 -0.17645455984E+03  0.18159855310E+03  0.00000000000E+00 0. -1.
</event>
<event>
 7    1  0.2943257E-009  0.8119443E+02  0.7561462E-02  0.1325696E+00
          2   -1    0    0  501    0  0.00000000000E+00  0.00000000000E+00  0.73403242070E+02  0.73403242070E+02  0.00000000000E+00 0.  1.
         -2   -1    0    0    0  501 -0.00000000000E+00 -0.00000000000E+00 -0.21513219913E+03  0.21513219913E+03  0.00000000000E+00 0. -1.
         25    2    1    2    0    0 -0.50733012113E+01 -0.88226554847E+01 -0.14871279212E+03  0.19459588814E+03  0.12509391474E+03 0.  0.
          5    1    3    3  502    0  0.81024124373E+01  0.30541819639E+02  0.76366771301E+01  0.32775647541E+02  0.41800000000E+01 0. -1.
         -5    1    3    3    0  502 -0.13175713649E+02 -0.39364475124E+02 -0.15634946925E+03  0.16182024060E+03  0.41800000000E+01 0. -1.
        -11    1    1    2    0    0  0.89989334555E+01  0.48295539671E+02  0.18719395382E+02  0.52572385516E+02  0.00000000000E+00 0.  1.
         11    1    1    2    0    0 -0.39256322442E+01 -0.39472884186E+02 -0.11735560317E+02  0.41367167542E+02  0.00000000000E+00 0. -1.
</event>
<event>
 7    1  0.2943257E-009  0.9253742E+02  0.7561462E-02  0.1296821E+00
         -2   -1    0    0    0  501 -0.00000000000E+00  0.00000000000E+00  0.31213545516E+02  0.31213545516E+02  0.00000000000E+00 0.  1.
          2   -1    0    0  501    0  0.00000000000E+00 -0.00000000000E+00 -0.39782831790E+03  0.39782831790E+03  0.00000000000E+00 0. -1.
         25    2    1    2    0    0  0.62437409251E+01 -0.23574927704E+02 -0.18788675608E+03  0.22703196908E+03  0.12508924958E+03 0.  0.
          5    1    3    3  502    0  0.10208283795E+02  0.42916396281E+02 -0.13436056387E+03  0.14147883111E+03  0.41800000000E+01 0.  1.
         -5    1    3    3    0  502 -0.39645428697E+01 -0.66491323985E+02 -0.53526192202E+02  0.85553137973E+02  0.41800000000E+01 0.  1.
        -11    1    1    2    0    0 -0.34636815350E+02 -0.34708202615E+01 -0.14842591003E+03  0.15245329232E+03  0.00000000000E+00 0. -1.
         11    1    1    2    0    0  0.28393074425E+02  0.27045747965E+02 -0.30302106283E+02  0.49556602017E+02  0.00000000000E+00 0.  1.
</event>
<event>
 7    1  0.2943257E-009  0.1160947E+03  0.7561462E-02  0.1249682E+00
         -1   -1    0    0    0  501 -0.00000000000E+00  0.00000000000E+00  0.10048168654E+03  0.10048168654E+03  0.00000000000E+00 0.  1.
          1   -1    0    0  501    0  0.00000000000E+00 -0.00000000000E+00 -0.27071127647E+03  0.27071127647E+03  0.00000000000E+00 0. -1.
         25    2    1    2    0    0 -0.88933180536E+02 -0.28728995583E+02  0.20791539408E+01  0.15616096634E+03  0.12508980270E+03 0.  0.
          5    1    3    3  502    0  0.35714809867E+01 -0.37284595170E+02 -0.39234627838E+02  0.54403354079E+02  0.41800000000E+01 0.  1.
         -5    1    3    3    0  502 -0.92504661522E+02  0.85555995879E+01  0.41313781778E+02  0.10175761226E+03  0.41800000000E+01 0.  1.
        -11    1    1    2    0    0  0.20766194243E+02  0.26015339036E+02 -0.41289778243E+01  0.33542229299E+02  0.00000000000E+00 0.  1.
         11    1    1    2    0    0  0.68166986293E+02  0.27136565466E+01 -0.16817976605E+03  0.18148976737E+03  0.00000000000E+00 0. -1.
</event>
<event>
 7    1  0.2943257E-009  0.1078899E+03  0.7561462E-02  0.1264528E+00
          2   -1    0    0  501    0  0.00000000000E+00  0.00000000000E+00  0.33874718317E+03  0.33874718317E+03  0.00000000000E+00 0. -1.
         -2   -1    0    0    0  501 -0.00000000000E+00 -0.00000000000E+00 -0.65569945456E+02  0.65569945456E+02  0.00000000000E+00 0.  1.
         25    2    1    2    0    0  0.36142314066E+01 -0.83743438485E+02  0.70563886922E+02  0.16629183003E+03  0.12509070484E+03 0.  0.
          5    1    3    3  502    0 -0.10754285596E+02 -0.72918910466E+02  0.10432777490E+03  0.12780680412E+03  0.41800000000E+01 0. -1.
         -5    1    3    3    0  502  0.14368517003E+02 -0.10824528019E+02 -0.33763887981E+02  0.38485025910E+02  0.41800000000E+01 0. -1.
        -11    1    1    2    0    0 -0.41004057790E+02  0.74390663270E+02  0.12183143558E+03  0.14852003983E+03  0.00000000000E+00 0. -1.
         11    1    1    2    0    0  0.37389826383E+02  0.93527752157E+01  0.80781915218E+02  0.89505258770E+02  0.00000000000E+00 0.  1.
</event>
<event>
 7    1  0.2943257E-009  0.9270763E+02  0.7561462E-02  0.1296424E+00
         -1   -1    0    0    0  501 -0.00000000000E+00  0.00000000000E+00  0.46071933524E+03  0.46071933524E+03  0.00000000000E+00 0.  1.
          1   -1    0    0  501    0  0.00000000000E+00 -0.00000000000E+00 -0.28944228671E+02  0.28944228671E+02  0.00000000000E+00 0. -1.
         25    2    1    2    0    0 -0.29766704166E+02 -0.26013471883E+02  0.22832372981E+03  0.26332698152E+03  0.12508643494E+03 0.  0.
          5    1    3    3  502    0  0.79197768701E+01 -0.54153172605E+02  0.36835840704E+02  0.66103256570E+02  0.41800000000E+01 0. -1.
         -5    1    3    3    0  502 -0.37686481036E+02  0.28139700721E+02  0.19148788911E+03  0.19722372495E+03  0.41800000000E+01 0. -1.
        -11    1    1    2    0    0 -0.16060764082E+02  0.33237783564E+02  0.15468007431E+03  0.15902397237E+03  0.00000000000E+00 0.  1.
         11    1    1    2    0    0  0.45827468248E+02 -0.72243116808E+01  0.48771302446E+02  0.67312610019E+02  0.00000000000E+00 0. -1.
</event>
<event>
 7    1  0.2943257E-009  0.5681079E+02  0.7561462E-02  0.1411725E+00
         -2   -1    0    0    0  501 -0.00000000000E+00  0.00000000000E+00  0.24824497056E+02  0.24824497056E+02  0.00000000000E+00 0.  1.
          2   -1    0    0  501    0  0.00000000000E+00 -0.00000000000E+00 -0.50172678580E+03  0.50172678580E+03  0.00000000000E+00 0. -1.
         25    2    1    2    0    0  0.14659065317E+02 -0.98511762155E+00 -0.22212726997E+03  0.25535057501E+03  0.12509010129E+03 0.  0.
          5    1    3    3  502    0 -0.24151882882E+01 -0.32550758489E+01 -0.23396443761E+03  0.23403687555E+03  0.41800000000E+01 0. -1.
         -5    1    3    3    0  502  0.17074253605E+02  0.22699582273E+01  0.11837167643E+02  0.21313699453E+02  0.41800000000E+01 0. -1.
        -11    1    1    2    0    0 -0.21865525165E+02 -0.41539992371E+02 -0.99017604071E+02  0.10958174151E+03  0.00000000000E+00 0.  1.
         11    1    1    2    0    0  0.72064598479E+01  0.42525109993E+02 -0.15575741471E+03  0.16161896634E+03  0.00000000000E+00 0. -1.
</event>
<event>
 7    1  0.2943257E-009  0.9113306E+02  0.7561462E-02  0.1300131E+00
         -1   -1    0    0    0  501 -0.00000000000E+00  0.00000000000E+00  0.18035170480E+02  0.18035170480E+02  0.00000000000E+00 0.  1.
          1   -1    0    0  501    0  0.00000000000E+00 -0.00000000000E+00 -0.87345734645E+03  0.87345734645E+03  0.00000000000E+00 0. -1.
         25    2    1    2    0    0  0.12268726426E+02 -0.55700141811E+01 -0.69425824501E+03  0.70556648351E+03  0.12509198687E+03 0.  0.
          5    1    3    3  502    0  0.68062696084E+02  0.14916825574E+01 -0.42808244791E+03  0.43348219148E+03  0.41800000000E+01 0.  1.
         -5    1    3    3    0  502 -0.55793969658E+02 -0.70616967385E+01 -0.26617579709E+03  0.27208429203E+03  0.41800000000E+01 0.  1.
        -11    1    1    2    0    0 -0.25984208705E+02 -0.17144415564E+02 -0.10365380680E+02  0.32810839728E+02  0.00000000000E+00 0.  1.
         11    1    1    2    0    0  0.13715482279E+02  0.22714429745E+02 -0.15079855028E+03  0.15311519369E+03  0.00000000000E+00 0. -1.
</event>
<event>
 7    1  0.2943257E-009  0.8783429E+02  0.7561462E-02  0.1308183E+00
          3   -1    0    0  501    0  0.00000000000E+00  0.00000000000E+00  0.76997432318E+02  0.76997432318E+02  0.00000000000E+00 0. -1.
         -3   -1    0    0    0  501 -0.00000000000E+00 -0.00000000000E+00 -0.20769292791E+03  0.20769292791E+03  0.00000000000E+00 0.  1.
         25    2    1    2    0    0  0.43932594625E+02 -0.20447211572E+02 -0.12092859883E+03  0.18061935578E+03  0.12510581256E+03 0.  0.
          5    1    3    3  502    0  0.57267498016E+02 -0.40628367407E+02 -0.15049378569E+02  0.71931820237E+02  0.41800000000E+01 0.  1.
         -5    1    3    3    0  502 -0.13334903391E+02  0.20181155835E+02 -0.10587922026E+03  0.10868753554E+03  0.41800000000E+01 0.  1.
        -11    1    1    2    0    0 -0.44914112869E+02 -0.13438469797E+02  0.26967887020E+02  0.54084535087E+02  0.00000000000E+00 0. -1.
         11    1    1    2    0    0  0.98151824326E+00  0.33885681369E+02 -0.36734783781E+02  0.49986469362E+02  0.00000000000E+00 0.  1.
</event>
<event>
 7    1  0.2943257E-009  0.9571449E+02  0.7561462E-02  0.1289575E+00
         -1   -1    0    0    0  501 -0.00000000000E+00  0.00000000000E+00  0.31943657464E+03  0.31943657464E+03  0.00000000000E+00 0.  1.
          1   -1    0    0  501    0  0.00000000000E+00 -0.00000000000E+00 -0.50241165830E+02  0.50241165830E+02  0.00000000000E+00 0. -1.
         25    2    1    2    0    0  0.17530348477E+02  0.51155301850E+02  0.94839546865E+02  0.16603573220E+03  0.12509654948E+03 0.  0.
          5    1    3    3  502    0 -0.35286955110E+02  0.58307557388E+02  0.14936731667E+02  0.69896486338E+02  0.41800000000E+01 0. -1.
         -5    1    3    3    0  502  0.52817303587E+02 -0.71522555388E+01  0.79902815198E+02  0.96139245858E+02  0.41800000000E+01 0. -1.
        -11    1    1    2    0    0  0.69658446480E+01 -0.43449697758E+02  0.22112258361E+02  0.49247854743E+02  0.00000000000E+00 0. -1.
         11    1    1    2    0    0 -0.24496193125E+02 -0.77056040912E+01  0.15224360359E+03  0.15439415353E+03  0.00000000000E+00 0.  1.
</event>
<event>
 7    1  0.2943257E-009  0.1056183E+03  0.7561462E-02  0.1268906E+00
         -1   -1    0    0    0  501 -0.00000000000E+00  0.00000000000E+00  0.64584017219E+02  0.64584017219E+02  0.00000000000E+00 0.  1.
          1   -1    0    0  501    0  0.00000000000E+00 -0.00000000000E+00 -0.25256224192E+03  0.25256224192E+03  0.00000000000E+00 0. -1.
         25    2    1    2    0    0  0.65741301989E+02  0.17857308569E+02 -0.10038292475E+03  0.17425757048E+03  0.12509263380E+03 0.  0.
          5    1    3    3  502    0  0.84393374424E+02 -0.67435762072E+01 -0.11247450200E+03  0.14083928240E+03  0.41800000000E+01 0.  1.
         -5    1    3    3    0  502 -0.18652072435E+02  0.24600884776E+02  0.12091577250E+02  0.33418288081E+02  0.41800000000E+01 0.  1.
        -11    1    1    2    0    0 -0.98386217090E+01  0.23699225508E+02 -0.64640070393E+02  0.69547037803E+02  0.00000000000E+00 0. -1.
         11    1    1    2    0    0 -0.55902680280E+02 -0.41556534076E+02 -0.22955229566E+02  0.73341650864E+02  0.00000000000E+00 0.  1.
</event>
<event>
 7    1  0.2943257E-009  0.9259719E+02  0.7561462E-02  0.1296681E+00
         -2   -1    0    0    0  501 -0.00000000000E+00  0.00000000000E+00  0.11774534623E+03  0.11774534623E+03  0.00000000000E+00 0. -1.
          2   -1    0    0  501    0  0.00000000000E+00 -0.00000000000E+00 -0.16352472550E+03  0.16352472550E+03  0.00000000000E+00 0.  1.
         25    2    1    2    0    0 -0.74920706743E+02 -0.34826462925E+02 -0.14866998950E+01  0.14991947566E+03  0.12509054355E+03 0.  0.
          5    1    3    3  502    0 -0.42999410603E+02 -0.27846479557E+02  0.60705026772E+02  0.79542117216E+02  0.41800000000E+01 0.  1.
         -5    1    3    3    0  502 -0.31921296140E+02 -0.69799833687E+01 -0.62191726666E+02  0.70377358439E+02  0.41800000000E+01 0.  1.
        -11    1    1    2    0    0  0.73046715270E+02  0.48091859466E+02 -0.63396468911E+02  0.10801741447E+03  0.00000000000E+00 0.  1.
         11    1    1    2    0    0  0.18739914727E+01 -0.13265396540E+02  0.19103789530E+02  0.23333181605E+02  0.00000000000E+00 0. -1.
</event>
<event>
 7    1  0.2943257E-009  0.1144457E+03  0.7561462E-02  0.1252552E+00
          2   -1    0    0  501    0  0.00000000000E+00  0.00000000000E+00  0.56899815411E+03  0.56899815411E+03  0.00000000000E+00 0.  1.
         -2   -1    0    0    0  501 -0.00000000000E+00 -0.00000000000E+00 -0.30960302522E+02  0.30960302522E+02  0.00000000000E+00 0. -1.
         25    2    1    2    0    0  0.57178600387E+02  0.36939318588E+02  0.38030110264E+03  0.40609297798E+03  0.12509465413E+03 0.  0.
          5    1    3    3  502    0  0.44999028320E+02  0.81509964400E+02  0.28940115561E+03  0.30403830041E+03  0.41800000000E+01 0.  1.
         -5    1    3    3    0  502  0.12179572066E+02 -0.44570645812E+02  0.90899947031E+02  0.10205467757E+03  0.41800000000E+01 0.  1.
        -11    1    1    2    0    0  0.96300248756E+01  0.45538670416E+01 -0.59962434324E+01  0.12224157208E+02  0.00000000000E+00 0. -1.
         11    1    1    2    0    0 -0.66808625262E+02 -0.41493185630E+02  0.16373299237E+03  0.18164132144E+03  0.00000000000E+00 0.  1.
</event>
<event>
 7    1  0.3046356E-009  0.1575779E+03  0.7561462E-02  0.1191459E+00
         -2   -1    0    0    0  501 -0.00000000000E+00  0.00000000000E+00  0.24794209643E+02  0.24794209643E+02  0.00000000000E+00 0.  1.
          2   -1    0    0  501    0  0.00000000000E+00 -0.00000000000E+00 -0.13600342642E+04  0.13600342642E+04  0.00000000000E+00 0. -1.
         25    2    1    2    0    0  0.94677140231E+01 -0.14749861612E+03 -0.71279366641E+03  0.73862571757E+03  0.12509060879E+03 0.  0.
          5    1    3    3  502    0 -0.57517749550E+01 -0.12240313662E+03 -0.29078803120E+03  0.31558004097E+03  0.41800000000E+01 0.  1.
         -5    1    3    3    0  502  0.15219488978E+02 -0.25095479497E+02 -0.42200563521E+03  0.42304567659E+03  0.41800000000E+01 0.  1.
        -11    1    1    2    0    0  0.27622318795E+02  0.92713058250E+02 -0.25271254563E+03  0.27059625715E+03  0.00000000000E+00 0.  1.
         11    1    1    2    0    0 -0.37090032818E+02  0.54785557865E+02 -0.36973384251E+03  0.37560649913E+03  0.00000000000E+00 0. -1.
</event>
<event>
 7    1  0.2943257E-009  0.2499710E+03  0.7561462E-02  0.1113323E+00
         -2   -1    0    0    0  501 -0.00000000000E+00  0.00000000000E+00  0.59589293384E+02  0.59589293384E+02  0.00000000000E+00 0.  1.
          2   -1    0    0  501    0  0.00000000000E+00 -0.00000000000E+00 -0.11236326356E+04  0.11236326356E+04  0.00000000000E+00 0. -1.
         25    2    1    2    0    0 -0.13226060587E+03  0.19442957291E+03 -0.57301523259E+03  0.63189376037E+03  0.12509013124E+03 0.  0.
          5    1    3    3  502    0 -0.99152653669E+02  0.41861599776E+02 -0.19265887015E+03  0.22072280107E+03  0.41800000000E+01 0.  1.
         -5    1    3    3    0  502 -0.33107952200E+02  0.15256797313E+03 -0.38035636244E+03  0.41117095930E+03  0.41800000000E+01 0.  1.
        -11    1    1    2    0    0  0.61491092266E+02 -0.10875376291E+03 -0.35095419346E+03  0.37252836306E+03  0.00000000000E+00 0.  1.
         11    1    1    2    0    0  0.70769513603E+02 -0.85675809996E+02 -0.14007391614E+03  0.17879980553E+03  0.00000000000E+00 0. -1.
</event>
<event>
 7    1  0.2943257E-009  0.9643741E+02  0.7561462E-02  0.1287971E+00
          2   -1    0    0  501    0  0.00000000000E+00  0.00000000000E+00  0.11333719230E+04  0.11333719230E+04  0.00000000000E+00 0. -1.
         -2   -1    0    0    0  501 -0.00000000000E+00 -0.00000000000E+00 -0.13439693018E+02  0.13439693018E+02  0.00000000000E+00 0.  1.
         25    2    1    2    0    0  0.72843989641E+01 -0.93479230093E+01  0.85901652348E+03  0.86815760894E+03  0.12509116761E+03 0.  0.
          5    1    3    3  502    0 -0.31148065588E+02  0.31510679190E+02  0.65555602172E+03  0.65706490920E+03  0.41800000000E+01 0. -1.
         -5    1    3    3    0  502  0.38432464552E+02 -0.40858602199E+02  0.20346050176E+03  0.21109269974E+03  0.41800000000E+01 0. -1.
        -11    1    1    2    0    0 -0.95511583778E+01 -0.40810000018E+02  0.73307352511E+02  0.84443168225E+02  0.00000000000E+00 0.  1.
         11    1    1    2    0    0  0.22667594137E+01  0.50157923027E+02  0.18760835398E+03  0.19421083884E+03  0.00000000000E+00 0. -1.
</event>
<event>
 7    1  0.3430590E-009  0.1241130E+03  0.7561462E-02  0.1236462E+00
         -1   -1    0    0    0  501 -0.00000000000E+00  0.00000000000E+00  0.12157500247E+03  0.12157500247E+03  0.00000000000E+00 0.  1.
          1   -1    0    0  501    0  0.00000000000E+00 -0.00000000000E+00 -0.19226763862E+03  0.19226763862E+03  0.00000000000E+00 0. -1.
         25    2    1    2    0    0  0.64645671292E+02  0.85844311112E+02 -0.37866696197E+02  0.16922615848E+03  0.12512113118E+03 0.  0.
          5    1    3    3  502    0 -0.17649594314E+02  0.31875619639E+02 -0.58062559011E+02  0.68675297347E+02  0.41800000000E+01 0.  1.
         -5    1    3    3    0  502  0.82295265606E+02  0.53968691473E+02  0.20195862813E+02  0.10055086114E+03  0.41800000000E+01 0.  1.
        -11    1    1    2    0    0 -0.41456252846E+02 -0.26164067807E+02 -0.57890293625E+02  0.75858192967E+02  0.00000000000E+00 0. -1.
         11    1    1    2    0    0 -0.23189418446E+02 -0.59680243305E+02  0.25064353670E+02  0.68758289636E+02  0.00000000000E+00 0.  1.
</event>
<event>
 7    1  0.2943257E-009  0.9890763E+02  0.7561462E-02  0.1282610E+00
          2   -1    0    0  501    0  0.00000000000E+00  0.00000000000E+00  0.47792893345E+03  0.47792893345E+03  0.00000000000E+00 0.  1.
         -2   -1    0    0    0  501 -0.00000000000E+00 -0.00000000000E+00 -0.26525749624E+02  0.26525749624E+02  0.00000000000E+00 0. -1.
         25    2    1    2    0    0 -0.16941919180E+02  0.64635065712E-01  0.32330362827E+03  0.34707190098E+03  0.12508651244E+03 0.  0.
          5    1    3    3  502    0  0.22801201605E+02 -0.42387277523E+02  0.58230015643E+02  0.75662297164E+02  0.41800000000E+01 0. -1.
         -5    1    3    3    0  502 -0.39743120785E+02  0.42451912588E+02  0.26507361263E+03  0.27140960382E+03  0.41800000000E+01 0. -1.
        -11    1    1    2    0    0  0.46260224058E+02  0.25040570925E+02  0.68309069335E+02  0.86215819172E+02  0.00000000000E+00 0. -1.
         11    1    1    2    0    0 -0.29318304878E+02 -0.25105205991E+02  0.59790486214E+02  0.71166962914E+02  0.00000000000E+00 0.  1.
</event>
<event>
 7    1  0.2943257E-009  0.8759930E+02  0.7561462E-02  0.1308772E+00
          2   -1    0    0  501    0  0.00000000000E+00  0.00000000000E+00  0.31645479342E+03  0.31645479342E+03  0.00000000000E+00 0. -1.
         -2   -1    0    0    0  501 -0.00000000000E+00 -0.00000000000E+00 -0.38460414813E+02  0.38460414813E+02  0.00000000000E+00 0.  1.
         25    2    1    2    0    0  0.83777027291E+01  0.15915279010E+02  0.14931161921E+03  0.19560803525E+03  0.12508022152E+03 0.  0.
          5    1    3    3  502    0  0.43819024677E+02 -0.18154444577E+02  0.11152474699E+02  0.48903383048E+02  0.41800000000E+01 0. -1.
         -5    1    3    3    0  502 -0.35441321948E+02  0.34069723587E+02  0.13815914451E+03  0.14670465221E+03  0.41800000000E+01 0. -1.
        -11    1    1    2    0    0  0.12961327278E+02 -0.42340416074E+02  0.26446219250E+02  0.51576247933E+02  0.00000000000E+00 0.  1.
         11    1    1    2    0    0 -0.21339030008E+02  0.26425137065E+02  0.10223654014E+03  0.10773092504E+03  0.00000000000E+00 0. -1.
</event>
<event>
 6    1  0.2943257E-009  0.1163355E+03  0.7561462E-02  0.1249268E+00
         -1   -1    0    0    0  501 -0.00000000000E+00  0.00000000000E+00  0.24278583033E+02  0.24278583033E+02  0.00000000000E+00 0.  1.
          1   -1    0    0  501    0  0.00000000000E+00 -0.00000000000E+00 -0.70559895477E+03  0.70559895477E+03  0.00000000000E+00 0. -1.
          5    1    1    2  502    0 -0.28286785579E+02 -0.28631954442E+01 -0.25854820638E+03  0.26014032281E+03  0.41800000000E+01 0.  1.
         -5    1    1    2    0  502  0.82684334948E+02  0.42047618715E+02 -0.21061379657E+03  0.23017459718E+03  0.41800000000E+01 0.  1.
        -11    1    1    2    0    0 -0.35832926732E+02 -0.67963376023E+02 -0.14026960118E+03  0.15993304891E+03  0.00000000000E+00 0.  1.
         11    1    1    2    0    0 -0.18564622636E+02  0.28778952752E+02 -0.71888767610E+02  0.79629568903E+02  0.00000000000E+00 0. -1.
</event>
<event>
 7    1  0.2943257E-009  0.2095314E+03  0.7561462E-02  0.1141938E+00
          4   -1    0    0  501    0  0.00000000000E+00  0.00000000000E+00  0.31360797399E+03  0.31360797399E+03  0.00000000000E+00 0.  1.
         -4   -1    0    0    0  501 -0.00000000000E+00 -0.00000000000E+00 -0.16150801009E+03  0.16150801009E+03  0.00000000000E+00 0. -1.
         25    2    1    2    0    0 -0.83565872688E+00 -0.19310227678E+03  0.11863042021E+03  0.25886262966E+03  0.12508995488E+03 0.  0.
          5    1    3    3  502    0  0.28582518988E+02 -0.19199025340E+03  0.79694005598E+02  0.20987097160E+03  0.41800000000E+01 0. -1.
         -5    1    3    3    0  502 -0.29418177715E+02 -0.11120233762E+01  0.38936414616E+02  0.48991658058E+02  0.41800000000E+01 0. -1.
        -11    1    1    2    0    0 -0.13116466715E+02  0.64498971253E+02 -0.29800761779E+02  0.72251258774E+02  0.00000000000E+00 0. -1.
         11    1    1    2    0    0  0.13952125442E+02  0.12860330553E+03  0.63270305457E+02  0.14400209564E+03  0.00000000000E+00 0.  1.
</event>
<event>
 7    1  0.2943257E-009  0.1749613E+03  0.7561462E-02  0.1172771E+00
         -2   -1    0    0    0  501 -0.00000000000E+00  0.00000000000E+00  0.25520962645E+02  0.25520962645E+02  0.00000000000E+00 0.  1.
          2   -1    0    0  501    0  0.00000000000E+00 -0.00000000000E+00 -0.20050384534E+04  0.20050384534E+04  0.00000000000E+00 0. -1.
         25    2    1    2    0    0 -0.14172511759E+03 -0.63670522103E+01 -0.16411574787E+04  0.16520206497E+04  0.12509120252E+03 0.  0.
          5    1    3    3  502    0  0.19509949228E+02 -0.21547200474E+01 -0.38809442803E+03  0.38861296736E+03  0.41800000000E+01 0. -1.
         -5    1    3    3    0  502 -0.16123506682E+03 -0.42123321629E+01 -0.12530630506E+04  0.12634076823E+04  0.41800000000E+01 0. -1.
        -11    1    1    2    0    0 -0.12669834762E+02 -0.51702428472E+01 -0.16968332126E+02  0.21798633424E+02  0.00000000000E+00 0.  1.
         11    1    1    2    0    0  0.15439495235E+03  0.11537295057E+02 -0.32139168000E+03  0.35674013296E+03  0.00000000000E+00 0. -1.
</event>
<event>
 7    1  0.2943257E-009  0.2176553E+03  0.7561462E-02  0.1135643E+00
          3   -1    0    0  501    0  0.00000000000E+00  0.00000000000E+00  0.22496532123E+03  0.22496532123E+03  0.00000000000E+00 0. -1.
         -3   -1    0    0    0  501 -0.00000000000E+00 -0.00000000000E+00 -0.24495218538E+03  0.24495218538E+03  0.00000000000E+00 0.  1.
         25    2    1    2    0    0 -0.18996092713E+03  0.83240953485E+02 -0.26461521305E+02  0.24364160716E+03  0.12508721140E+03 0.  0.
          5    1    3    3  502    0 -0.13721734761E+03  0.85392739291E+02 -0.68938815503E+02  0.17575708547E+03  0.41800000000E+01 0. -1.
         -5    1    3    3    0  502 -0.52743579522E+02 -0.21517858058E+01  0.42477294198E+02  0.67884521692E+02  0.41800000000E+01 0. -1.
        -11    1    1    2    0    0  0.61189301087E+02  0.95967252762E+01 -0.20522028632E+02  0.65248611960E+02  0.00000000000E+00 0.  1.
         11    1    1    2    0    0  0.12877162605E+03 -0.92837678761E+02  0.26996685786E+02  0.16102728749E+03  0.00000000000E+00 0. -1.
</event>
<event>
 7    1  0.2943257E-009  0.1037268E+03  0.7561462E-02  0.1272649E+00
         -1   -1    0    0    0  501 -0.00000000000E+00  0.00000000000E+00  0.35615319852E+02  0.35615319852E+02  0.00000000000E+00 0.  1.
          1   -1    0    0  501    0  0.00000000000E+00 -0.00000000000E+00 -0.51567103131E+03  0.51567103131E+03  0.00000000000E+00 0. -1.
         25    2    1    2    0    0 -0.64897415722E+02  0.46876957921E+02 -0.26698079459E+03  0.30550860925E+03  0.12509053480E+03 0.  0.
          5    1    3    3  502    0 -0.84394030789E+02  0.10695068759E+02 -0.24355215348E+03  0.25801523365E+03  0.41800000000E+01 0. -1.
         -5    1    3    3    0  502  0.19496615066E+02  0.36181889161E+02 -0.23428641111E+02  0.47493375608E+02  0.41800000000E+01 0. -1.
        -11    1    1    2    0    0  0.41006662382E+02 -0.22232698834E+02 -0.21873221366E+02  0.51519676533E+02  0.00000000000E+00 0.  1.
         11    1    1    2    0    0  0.23890753340E+02 -0.24644259087E+02 -0.19120169550E+03  0.19425806538E+03  0.00000000000E+00 0. -1.
</event>
<event>
 7    1  0.2943257E-009  0.1254786E+03  0.7561462E-02  0.1234323E+00
          2   -1    0    0  501    0  0.00000000000E+00  0.00000000000E+00  0.25386918352E+03  0.25386918352E+03  0.00000000000E+00 0. -1.
         -2   -1    0    0    0  501 -0.00000000000E+00 -0.00000000000E+00 -0.10918533815E+03  0.10918533815E+03  0.00000000000E+00 0.  1.
         25    2    1    2    0    0 -0.58018367859E+02  0.83568926845E+02 -0.43061529681E+01  0.16129317313E+03  0.12508816171E+03 0.  0.
          5    1    3    3  502    0 -0.44963250588E+02  0.10325512026E+03 -0.38876768531E+02  0.11921488706E+03  0.41800000000E+01 0. -1.
         -5    1    3    3    0  502 -0.13055117271E+02 -0.19686193419E+02  0.34570615563E+02  0.42078286071E+02  0.41800000000E+01 0. -1.
        -11    1    1    2    0    0  0.67433566895E+02 -0.66105774550E+02  0.15458696931E+03  0.18114742740E+03  0.00000000000E+00 0.  1.
         11    1    1    2    0    0 -0.94151990360E+01 -0.17463152295E+02 -0.55969709678E+01  0.20613921145E+02  0.00000000000E+00 0. -1.
</event>
<event>
 7    1  0.2943257E-009  0.1571222E+03  0.7561462E-02  0.1191985E+00
         -1   -1    0    0    0  501 -0.00000000000E+00  0.00000000000E+00  0.28801638149E+03  0.28801638149E+03  0.00000000000E+00 0.  1.
          1   -1    0    0  501    0  0.00000000000E+00 -0.00000000000E+00 -0.87627045179E+02  0.87627045179E+02  0.00000000000E+00 0. -1.
         25    2    1    2    0    0 -0.95443296767E+02  0.63154759507E+02  0.12453327987E+03  0.21036826966E+03  0.12509326336E+03 0.  0.
          5    1    3    3  502    0  0.13286727718E+02  0.57629189324E+02  0.56637827685E+02  0.81993759034E+02  0.41800000000E+01 0.  1.
         -5    1    3    3    0  502 -0.10873002448E+03  0.55255701832E+01  0.67895452186E+02  0.12837451062E+03  0.41800000000E+01 0.  1.
        -11    1    1    2    0    0  0.15148812960E+02 -0.63936840844E+02  0.25429643173E+02  0.70456177182E+02  0.00000000000E+00 0.  1.
         11    1    1    2    0    0  0.80294483806E+02  0.78208133624E+00  0.50426413265E+02  0.94818979829E+02  0.00000000000E+00 0. -1.
</event>
<event>
 7    1  0.2943257E-009  0.1432107E+03  0.7561462E-02  0.1209073E+00
          1   -1    0    0  501    0  0.00000000000E+00  0.00000000000E+00  0.60242636256E+03  0.60242636256E+03  0.00000000000E+00 0. -1.
         -1   -1    0    0    0  501 -0.00000000000E+00 -0.00000000000E+00 -0.37019371777E+02  0.37019371777E+02  0.00000000000E+00 0.  1.
         25    2    1    2    0    0 -0.94910115147E+02 -0.26093796585E+02  0.38816005364E+03  0.41952897223E+03  0.12509002805E+03 0.  0.
          5    1    3    3  502    0 -0.11289572655E+03 -0.52113027268E+02  0.33703786282E+03  0.35926759672E+03  0.41800000000E+01 0.  1.
         -5    1    3    3    0  502  0.17985611400E+02  0.26019230683E+02  0.51122190829E+02  0.60261375506E+02  0.41800000000E+01 0.  1.
        -11    1    1    2    0    0  0.55754626746E+01 -0.26065801324E+02  0.33308635148E+02  0.42661187959E+02  0.00000000000E+00 0.  1.
         11    1    1    2    0    0  0.89334652473E+02  0.52159597909E+02  0.14393830199E+03  0.17725557415E+03  0.00000000000E+00 0. -1.
</event>
<event>
 7    1  0.2943257E-009  0.1156347E+03  0.7561462E-02  0.1250477E+00
         -2   -1    0    0    0  501 -0.00000000000E+00  0.00000000000E+00  0.49449921578E+02  0.49449921578E+02  0.00000000000E+00 0.  1.
          2   -1    0    0  501    0  0.00000000000E+00 -0.00000000000E+00 -0.29712661088E+03  0.29712661088E+03  0.00000000000E+00 0. -1.
         25    2    1    2    0    0  0.48556116264E+01 -0.52917061717E+02 -0.14965250250E+03  0.20216095686E+03  0.12509751631E+03 0.  0.
          5    1    3    3  502    0  0.51128242927E+02 -0.61283012174E+02 -0.56965062912E+02  0.98143749666E+02  0.41800000000E+01 0. -1.
         -5    1    3    3    0  502 -0.46272631300E+02  0.83659504570E+01 -0.92687439586E+02  0.10401720719E+03  0.41800000000E+01 0. -1.
        -11    1    1    2    0    0  0.23292227924E+02  0.68231213423E+02 -0.54553854915E+02  0.90411002942E+02  0.00000000000E+00 0.  1.
         11    1    1    2    0    0 -0.28147839551E+02 -0.15314151706E+02 -0.43470331892E+02  0.54004572664E+02  0.00000000000E+00 0. -1.
</event>
<event>
 6    1  0.2943257E-009  0.1278595E+03  0.7561462E-02  0.1230667E+00
          1   -1    0    0  501    0  0.00000000000E+00  0.00000000000E+00  0.50798633288E+03  0.50798633288E+03  0.00000000000E+00 0. -1.
         -1   -1    0    0    0  501 -0.00000000000E+00 -0.00000000000E+00 -0.60400712518E+02  0.60400712518E+02  0.00000000000E+00 0.  1.
          5    1    1    2  502    0 -0.34979137422E+02  0.29361415865E+02 -0.20476453517E+02  0.50223404355E+02  0.41800000000E+01 0. -1.
         -5    1    1    2    0  502 -0.74892015699E+02 -0.12675552406E+02  0.12741518751E+03  0.14839671847E+03  0.41800000000E+01 0. -1.
        -11    1    1    2    0    0  0.33189068581E+02  0.29386285714E+02  0.18506071094E+03  0.19029591377E+03  0.00000000000E+00 0. -1.
         11    1    1    2    0    0  0.76682084540E+02 -0.46072149172E+02  0.15558617542E+03  0.17947100880E+03  0.00000000000E+00 0.  1.
</event>
<event>
 7    1  0.2943257E-009  0.1243112E+03  0.7561462E-02  0.1236150E+00
          2   -1    0    0  501    0  0.00000000000E+00  0.00000000000E+00  0.75875326575E+03  0.75875326575E+03  0.00000000000E+00 0. -1.
         -2   -1    0    0    0  501 -0.00000000000E+00 -0.00000000000E+00 -0.22598191224E+02  0.22598191224E+02  0.00000000000E+00 0.  1.
         25    2    1    2    0    0 -0.14165081291E+02  0.66780710398E+02  0.32901468638E+03  0.35855041014E+03  0.12508964764E+03 0.  0.
          5    1    3    3  502    0 -0.55802870136E+02 -0.52882530075E+01  0.16952108963E+03  0.17859674735E+03  0.41800000000E+01 0.  1.
         -5    1    3    3    0  502  0.41637788845E+02  0.72068963406E+02  0.15949359675E+03  0.17995366279E+03  0.41800000000E+01 0.  1.
        -11    1    1    2    0    0  0.21994121544E+02  0.15191930947E+02  0.54878391339E+02  0.61042394976E+02  0.00000000000E+00 0.  1.
         11    1    1    2    0    0 -0.78290402538E+01 -0.81972641345E+02  0.35226199681E+03  0.36175865186E+03  0.00000000000E+00 0. -1.
</event>
<event>
 7    1  0.2943257E-009  0.9827051E+02  0.7561462E-02  0.1283975E+00
         -1   -1    0    0    0  501 -0.00000000000E+00  0.00000000000E+00  0.76603609473E+02  0.76603609473E+02  0.00000000000E+00 0.  1.
          1   -1    0    0  501    0  0.00000000000E+00 -0.00000000000E+00 -0.17990312888E+03  0.17990312888E+03  0.00000000000E+00 0. -1.
         25    2    1    2    0    0  0.56886348748E+01  0.27483704465E+02 -0.21220087343E+02  0.12992909456E+03  0.12507422967E+03 0.  0.
          5    1    3    3  502    0 -0.24643651799E+00 -0.49012312984E+02 -0.19940242253E+02  0.53078745428E+02  0.41800000000E+01 0. -1.
         -5    1    3    3    0  502  0.59350713928E+01  0.76496017449E+02 -0.12798450898E+01  0.76850349130E+02  0.41800000000E+01 0. -1.
        -11    1    1    2    0    0  0.63165554723E+01  0.20290504662E+02 -0.73583680850E+02  0.76590871126E+02  0.00000000000E+00 0. -1.
         11    1    1    2    0    0 -0.12005190347E+02 -0.47774209127E+02 -0.84957512118E+01  0.49986772666E+02  0.00000000000E+00 0.  1.
</event>
<event>
 7    1  0.2943257E-009  0.1225125E+03  0.7561462E-02  0.1239009E+00
         -4   -1    0    0    0  501 -0.00000000000E+00  0.00000000000E+00  0.75568632996E+02  0.75568632996E+02  0.00000000000E+00 0.  1.
          4   -1    0    0  501    0  0.00000000000E+00 -0.00000000000E+00 -0.36319830035E+03  0.36319830035E+03  0.00000000000E+00 0. -1.
         25    2    1    2    0    0 -0.25951851719E+02  0.70946690253E+02 -0.28184330787E+03  0.31747494357E+03  0.12509099943E+03 0.  0.
          5    1    3    3  502    0 -0.38189353522E+02 -0.26946954969E+02 -0.10290828497E+03  0.11310239883E+03  0.41800000000E+01 0.  1.
         -5    1    3    3    0  502  0.12237501803E+02  0.97893645222E+02 -0.17893502289E+03  0.20437254474E+03  0.41800000000E+01 0.  1.
        -11    1    1    2    0    0  0.45272827211E+02 -0.30668570720E+02  0.31497305818E+02  0.63105232648E+02  0.00000000000E+00 0.  1.
         11    1    1    2    0    0 -0.19320975492E+02 -0.40278119532E+02 -0.37283665308E+02  0.58186757134E+02  0.00000000000E+00 0. -1.
</event>
<event>
 7    1  0.2943257E-009  0.3040796E+03  0.7561462E-02  0.1083219E+00
         -2   -1    0    0    0  501 -0.00000000000E+00  0.00000000000E+00  0.72095863357E+02  0.72095863357E+02  0.00000000000E+00 0. -1.
          2   -1    0    0  501    0  0.00000000000E+00 -0.00000000000E+00 -0.29836713583E+04  0.29836713583E+04  0.00000000000E+00 0.  1.
         25    2    1    2    0    0  0.23083886337E+03  0.16947515820E+03 -0.26124228364E+04  0.26310471417E+04  0.12509027140E+03 0.  0.
          5    1    3    3  502    0  0.20140701128E+03  0.18681723084E+03 -0.21773507313E+04  0.21946159439E+04  0.41800000000E+01 0. -1.
         -5    1    3    3    0  502  0.29431852089E+02 -0.17342072633E+02 -0.43507210506E+03  0.43643119779E+03  0.41800000000E+01 0. -1.
        -11    1    1    2    0    0 -0.15046354365E+03 -0.57302679253E+02 -0.18803367163E+03  0.24754703934E+03  0.00000000000E+00 0.  1.
         11    1    1    2    0    0 -0.80375319713E+02 -0.11217247895E+03 -0.11111898698E+03  0.17717304061E+03  0.00000000000E+00 0. -1.
</event>
<event>
 7    1  0.2943257E-009  0.9757740E+02  0.7561462E-02  0.1285474E+00
          3   -1    0    0  501    0  0.00000000000E+00  0.00000000000E+00  0.26290668127E+02  0.26290668127E+02  0.00000000000E+00 0. -1.
         -3   -1    0    0    0  501 -0.00000000000E+00 -0.00000000000E+00 -0.62447743247E+03  0.62447743247E+03  0.00000000000E+00 0.  1.
         25    2    1    2    0    0  0.28820328803E+02  0.47273055666E+02 -0.43652062962E+03  0.45745333904E+03  0.12509174301E+03 0.  0.
          5    1    3    3  502    0 -0.18371495973E+02  0.56405675095E+02 -0.91844706167E+02  0.10941679258E+03  0.41800000000E+01 0.  1.
         -5    1    3    3    0  502  0.47191824776E+02 -0.91326194291E+01 -0.34467592346E+03  0.34803654646E+03  0.41800000000E+01 0.  1.
        -11    1    1    2    0    0  0.20508617731E+02 -0.27470198144E+02 -0.12272100043E+03  0.12741922592E+03  0.00000000000E+00 0.  1.
         11    1    1    2    0    0 -0.49328946534E+02 -0.19802857522E+02 -0.38945134294E+02  0.65895535641E+02  0.00000000000E+00 0. -1.
</event>
<event>
 7    1  0.2943257E-009  0.1025709E+03  0.7561462E-02  0.1274981E+00
          2   -1    0    0  501    0  0.00000000000E+00  0.00000000000E+00  0.16038409653E+03  0.16038409653E+03  0.00000000000E+00 0.  1.
         -2   -1    0    0    0  501 -0.00000000000E+00 -0.00000000000E+00 -0.86224540548E+02  0.86224540548E+02  0.00000000000E+00 0. -1.
         25    2    1    2    0    0  0.41916510363E+02  0.26058704086E+02  0.32606277380E+02  0.13837315913E+03  0.12509161420E+03 0.  0.
          5    1    3    3  502    0 -0.26460892100E+01  0.52959135177E+02 -0.26564873267E+02  0.59454492500E+02  0.41800000000E+01 0. -1.
         -5    1    3    3    0  502  0.44562599573E+02 -0.26900431091E+02  0.59171150646E+02  0.78918666628E+02  0.41800000000E+01 0. -1.
        -11    1    1    2    0    0 -0.68788640306E+02 -0.13634974581E+02  0.32382007810E+02  0.77242371771E+02  0.00000000000E+00 0.  1.
         11    1    1    2    0    0  0.26872129943E+02 -0.12423729505E+02  0.91712707882E+01  0.30993106175E+02  0.00000000000E+00 0. -1.
</event>
<event>
 7    1  0.2943257E-009  0.1155371E+03  0.7561462E-02  0.1250646E+00
          2   -1    0    0  501    0  0.00000000000E+00  0.00000000000E+00  0.99845942772E+03  0.99845942772E+03  0.00000000000E+00 0. -1.
         -2   -1    0    0    0  501 -0.00000000000E+00 -0.00000000000E+00 -0.23818811414E+02  0.23818811414E+02  0.00000000000E+00 0.  1.
         25    2    1    2    0    0  0.85778374619E+02 -0.41048226953E+02  0.35860630159E+03  0.39151965649E+03  0.12508507262E+03 0.  0.
          5    1    3    3  502    0  0.26823610488E+02 -0.62244294251E+01  0.30001346956E+03  0.30130350798E+03  0.41800000000E+01 0.  1.
         -5    1    3    3    0  502  0.58954764131E+02 -0.34823797528E+02  0.58592832031E+02  0.90216148518E+02  0.41800000000E+01 0.  1.
        -11    1    1    2    0    0 -0.35060871245E+02  0.68501253334E+02  0.38686234877E+03  0.39444158414E+03  0.00000000000E+00 0.  1.
         11    1    1    2    0    0 -0.50717503374E+02 -0.27453026381E+02  0.22917196594E+03  0.23631699850E+03  0.00000000000E+00 0. -1.
</event>
<event>
 7    1  0.2943257E-009  0.1374949E+03  0.7561462E-02  0.1216740E+00
          2   -1    0    0  501    0  0.00000000000E+00  0.00000000000E+00  0.53353909426E+02  0.53353909426E+02  0.00000000000E+00 0. -1.
         -2   -1    0    0    0  501 -0.00000000000E+00 -0.00000000000E+00 -0.36872068459E+03  0.36872068459E+03  0.00000000000E+00 0.  1.
         25    2    1    2    0    0  0.82995033555E+02 -0.33456294439E+02 -0.19866243243E+03  0.25124068671E+03  0.12509045273E+03 0.  0.
          5    1    3    3  502    0  0.32404157201E+02  0.47653478406E+02 -0.82973320676E+02  0.10110849495E+03  0.41800000000E+01 0.  1.
         -5    1    3    3    0  502  0.50590876354E+02 -0.81109772844E+02 -0.11568911176E+03  0.15013219175E+03  0.41800000000E+01 0.  1.
        -11    1    1    2    0    0 -0.98522070094E+02  0.37603707486E+02 -0.11255044457E+03  0.15423436609E+03  0.00000000000E+00 0.  1.
         11    1    1    2    0    0  0.15527036539E+02 -0.41474130476E+01 -0.41538981672E+01  0.16599541218E+02  0.00000000000E+00 0. -1.
</event>
<event>
 7    1  0.2943257E-009  0.1968566E+03  0.7561462E-02  0.1152419E+00
         -1   -1    0    0    0  501 -0.00000000000E+00  0.00000000000E+00  0.48671353862E+02  0.48671353862E+02  0.00000000000E+00 0.  1.
          1   -1    0    0  501    0  0.00000000000E+00 -0.00000000000E+00 -0.92280251708E+03  0.92280251708E+03  0.00000000000E+00 0. -1.
         25    2    1    2    0    0  0.63655671747E+02  0.17041572585E+03 -0.45858806369E+03  0.50895600988E+03  0.12505856096E+03 0.  0.
          5    1    3    3  502    0 -0.27251885646E+02  0.26272784498E+02 -0.16616949856E+03  0.17047785524E+03  0.41800000000E+01 0. -1.
         -5    1    3    3    0  502  0.90907557393E+02  0.14414294135E+03 -0.29241856513E+03  0.33847815464E+03  0.41800000000E+01 0. -1.
        -11    1    1    2    0    0 -0.49885119974E+02 -0.84311425235E+02 -0.31268646100E+03  0.32767325877E+03  0.00000000000E+00 0. -1.
         11    1    1    2    0    0 -0.13770551772E+02 -0.86104300610E+02 -0.10285663854E+03  0.13484460230E+03  0.00000000000E+00 0.  1.
</event>
<event>
 7    1  0.2943257E-009  0.2169164E+03  0.7561462E-02  0.1136203E+00
         -2   -1    0    0    0  501 -0.00000000000E+00  0.00000000000E+00  0.21124966058E+02  0.21124966058E+02  0.00000000000E+00 0. -1.
          2   -1    0    0  501    0  0.00000000000E+00 -0.00000000000E+00 -0.24062302914E+04  0.24062302914E+04  0.00000000000E+00 0.  1.
         25    2    1    2    0    0 -0.11438765004E+03  0.14927910891E+03 -0.15662303106E+04  0.15824325132E+04  0.12508591577E+03 0.  0.
          5    1    3    3  502    0 -0.13597847533E+03  0.91790080758E+02 -0.11681238063E+04  0.11795958053E+04  0.41800000000E+01 0. -1.
         -5    1    3    3    0  502  0.21590825294E+02  0.57489028154E+02 -0.39810650431E+03  0.40283670794E+03  0.41800000000E+01 0. -1.
        -11    1    1    2    0    0  0.10744405502E+03 -0.69225343098E+02 -0.49873838599E+03  0.51485566010E+03  0.00000000000E+00 0.  1.
         11    1    1    2    0    0  0.69435950140E+01 -0.80053765814E+02 -0.32013662873E+03  0.33006708407E+03  0.00000000000E+00 0. -1.
</event>
<event>
 7    1  0.2943257E-009  0.1026313E+03  0.7561462E-02  0.1274858E+00
         -2   -1    0    0    0  501 -0.00000000000E+00  0.00000000000E+00  0.16030318985E+03  0.16030318985E+03  0.00000000000E+00 0.  1.
          2   -1    0    0  501    0  0.00000000000E+00 -0.00000000000E+00 -0.11583341016E+03  0.11583341016E+03  0.00000000000E+00 0. -1.
         25    2    1    2    0    0 -0.28494844032E+02  0.24820618638E+02 -0.50076606430E+02  0.13994182709E+03  0.12509208293E+03 0.  0.
          5    1    3    3  502    0 -0.21965994323E+01  0.62789941730E+02  0.10306041069E+02  0.63805083763E+02  0.41800000000E+01 0.  1.
         -5    1    3    3    0  502 -0.26298244599E+02 -0.37969323092E+02 -0.60382647499E+02  0.76136743324E+02  0.41800000000E+01 0.  1.
        -11    1    1    2    0    0  0.27484375752E+02 -0.57233455181E+02  0.75262403796E+02  0.98465672838E+02  0.00000000000E+00 0.  1.
         11    1    1    2    0    0  0.10104682792E+01  0.32412836542E+02  0.19283982320E+02  0.37729100082E+02  0.00000000000E+00 0. -1.
</event>
<event>
 7    1  0.2943257E-009  0.1344526E+03  0.7561462E-02  0.1220995E+00
          2   -1    0    0  501    0  0.00000000000E+00  0.00000000000E+00  0.72893019314E+03  0.72893019314E+03  0.00000000000E+00 0.  1.
         -2   -1    0    0    0  501 -0.00000000000E+00 -0.00000000000E+00 -0.26968517035E+02  0.26968517035E+02  0.00000000000E+00 0. -1.
         25    2    1    2    0    0  0.62553529645E+02 -0.57278575087E+02  0.44794968440E+03  0.47275844351E+03  0.12509135431E+03 0.  0.
          5    1    3    3  502    0 -0.94128975258E+00  0.33656278168E+02  0.17220711402E+03  0.17551750227E+03  0.41800000000E+01 0.  1.
         -5    1    3    3    0  502  0.63494819397E+02 -0.90934853255E+02  0.27574257038E+03  0.29724094124E+03  0.41800000000E+01 0.  1.
        -11    1    1    2    0    0  0.15136853933E+02  0.42222693018E+02  0.11048188846E+03  0.11923979131E+03  0.00000000000E+00 0.  1.
         11    1    1    2    0    0 -0.77690383578E+02  0.15055882069E+02  0.14353010324E+03  0.16390047536E+03  0.00000000000E+00 0. -1.
</event>
<event>
 7    1  0.2943257E-009  0.7789816E+02  0.7561462E-02  0.1335124E+00
          1   -1    0    0  501    0  0.00000000000E+00  0.00000000000E+00  0.49042612989E+03  0.49042612989E+03  0.00000000000E+00 0.  1.
         -1   -1    0    0    0  501 -0.00000000000E+00 -0.00000000000E+00 -0.24469649436E+02  0.24469649436E+02  0.00000000000E+00 0. -1.
         25    2    1    2    0    0  0.83665929832E+00 -0.37835310337E+01  0.30361214988E+03  0.32839426726E+03  0.12508973624E+03 0.  0.
          5    1    3    3  502    0 -0.36127617894E+02 -0.27551400191E+02  0.38697839746E+02  0.59827081060E+02  0.41800000000E+01 0.  1.
         -5    1    3    3    0  502  0.36964277192E+02  0.23767869157E+02  0.26491431013E+03  0.26856718620E+03  0.41800000000E+01 0.  1.
        -11    1    1    2    0    0  0.20144085368E+02 -0.23921044383E+02  0.14370014811E+03  0.14706370424E+03  0.00000000000E+00 0.  1.
         11    1    1    2    0    0 -0.20980744667E+02  0.27704575416E+02  0.18644182472E+02  0.39437807822E+02  0.00000000000E+00 0. -1.
</event>
<event>
 7    1  0.2943257E-009  0.1407358E+03  0.7561462E-02  0.1212342E+00
          2   -1    0    0  501    0  0.00000000000E+00  0.00000000000E+00  0.15802002930E+04  0.15802002930E+04  0.00000000000E+00 0. -1.
         -2   -1    0    0    0  501 -0.00000000000E+00 -0.00000000000E+00 -0.15167304042E+02  0.15167304042E+02  0.00000000000E+00 0.  1.
         25    2    1    2    0    0  0.97476375805E+02  0.63635650961E+01  0.94868089141E+03  0.96186520189E+03  0.12508834504E+03 0.  0.
          5    1    3    3  502    0  0.21755864849E+02  0.45204234892E+02  0.14127580520E+03  0.14997688503E+03  0.41800000000E+01 0.  1.
         -5    1    3    3    0  502  0.75720510956E+02 -0.38840669796E+02  0.80740508621E+03  0.81188831686E+03  0.41800000000E+01 0.  1.
        -11    1    1    2    0    0 -0.33885116920E+02 -0.55866148640E+02  0.25066050258E+03  0.25903651339E+03  0.00000000000E+00 0.  1.
         11    1    1    2    0    0 -0.63591258884E+02  0.49502583544E+02  0.36569159498E+03  0.37446588179E+03  0.00000000000E+00 0. -1.
</event>
<event>
 7    1  0.2943257E-009  0.6810040E+02  0.7561462E-02  0.1366674E+00
          1   -1    0    0  501    0  0.00000000000E+00  0.00000000000E+00  0.49613076234E+03  0.49613076234E+03  0.00000000000E+00 0. -1.
         -1   -1    0    0    0  501 -0.00000000000E+00 -0.00000000000E+00 -0.42324890521E+02  0.42324890521E+02  0.00000000000E+00 0.  1.
         25    2    1    2    0    0 -0.64997351654E+01  0.43504594266E+02  0.40468856054E+03  0.42586339508E+03  0.12510756954E+03 0.  0.
          5    1    3    3  502    0 -0.93678363344E+01  0.24750681929E+02  0.40553395420E+03  0.40641802744E+03  0.41800000000E+01 0.  1.
         -5    1    3    3    0  502  0.28681011690E+01  0.18753912337E+02 -0.84539366360E+00  0.19445367641E+02  0.41800000000E+01 0.  1.
        -11    1    1    2    0    0 -0.34538802375E+02 -0.32657790630E+02 -0.18526426907E+00  0.47534140164E+02  0.00000000000E+00 0.  1.
         11    1    1    2    0    0  0.41038537540E+02 -0.10846803636E+02  0.49302575551E+02  0.65058117622E+02  0.00000000000E+00 0. -1.
</event>
<event>
 7    1  0.2943257E-009  0.2970170E+03  0.7561462E-02  0.1086741E+00
         -1   -1    0    0    0  501 -0.00000000000E+00  0.00000000000E+00  0.30882237021E+02  0.30882237021E+02  0.00000000000E+00 0. -1.
          1   -1    0    0  501    0  0.00000000000E+00 -0.00000000000E+00 -0.32041957589E+04  0.32041957589E+04  0.00000000000E+00 0.  1.
         25    2    1    2    0    0 -0.12075969331E+03 -0.26605301863E+03 -0.18455639773E+04  0.18727309908E+04  0.12509139601E+03 0.  0.
          5    1    3    3  502    0 -0.10742366859E+03 -0.19767002499E+03 -0.10354915300E+04  0.10596572392E+04  0.41800000000E+01 0. -1.
         -5    1    3    3    0  502 -0.13336024724E+02 -0.68382993634E+02 -0.81007244727E+03  0.81307375163E+03  0.41800000000E+01 0. -1.
        -11    1    1    2    0    0  0.55371098627E+02  0.19479520676E+03 -0.10142067633E+04  0.10342274846E+04  0.00000000000E+00 0.  1.
         11    1    1    2    0    0  0.65388594683E+02  0.71257811866E+02 -0.31354278135E+03  0.32811952061E+03  0.00000000000E+00 0. -1.
</event>
<event>
 6    1  0.2943257E-009  0.1810728E+03  0.7561462E-02  0.1166769E+00
          2   -1    0    0  501    0  0.00000000000E+00  0.00000000000E+00  0.80395540226E+03  0.80395540226E+03  0.00000000000E+00 0.  1.
         -2   -1    0    0    0  501 -0.00000000000E+00 -0.00000000000E+00 -0.55884553934E+02  0.55884553934E+02  0.00000000000E+00 0. -1.
          5    1    1    2  502    0 -0.68853939120E+02  0.49615570391E+02  0.41222319540E+03  0.42088954012E+03  0.41800000000E+01 0.  1.
         -5    1    1    2    0  502 -0.72375776020E+02  0.48777087140E+02  0.94287542962E+02  0.12854987492E+03  0.41800000000E+01 0.  1.
        -11    1    1    2    0    0  0.13993561112E+03 -0.11007641625E+03  0.20263976181E+03  0.26974370380E+03  0.00000000000E+00 0. -1.
         11    1    1    2    0    0  0.12941040220E+01  0.11683758717E+02  0.38920348158E+02  0.40656837355E+02  0.00000000000E+00 0.  1.
</event>
<event>
 7    1  0.2943257E-009  0.1214208E+03  0.7561462E-02  0.1240771E+00
          2   -1    0    0  501    0  0.00000000000E+00  0.00000000000E+00  0.61423329790E+03  0.61423329790E+03  0.00000000000E+00 0.  1.
         -2   -1    0    0    0  501 -0.00000000000E+00 -0.00000000000E+00 -0.26883663326E+02  0.26883663326E+02  0.00000000000E+00 0. -1.
         25    2    1    2    0    0  0.60058301259E+02  0.52794469838E+01  0.39913692732E+03  0.42260264930E+03  0.12509132796E+03 0.  0.
          5    1    3    3  502    0  0.83234859391E+02 -0.30814897278E+02  0.19990606733E+03  0.21876358899E+03  0.41800000000E+01 0. -1.
         -5    1    3    3    0  502 -0.23176558132E+02  0.36094344262E+02  0.19923085999E+03  0.20383906031E+03  0.41800000000E+01 0. -1.
        -11    1    1    2    0    0 -0.27458403813E+01 -0.42475877773E+02  0.77361215871E+02  0.88297777736E+02  0.00000000000E+00 0.  1.
         11    1    1    2    0    0 -0.57312460878E+02  0.37196430789E+02  0.11085149138E+03  0.13021653419E+03  0.00000000000E+00 0. -1.
</event>
<event>
 7    1  0.2943257E-009  0.1084664E+03  0.7561462E-02  0.1263436E+00
         -3   -1    0    0    0  501 -0.00000000000E+00  0.00000000000E+00  0.92155304925E+02  0.92155304925E+02  0.00000000000E+00 0.  1.
          3   -1    0    0  501    0  0.00000000000E+00 -0.00000000000E+00 -0.19498565076E+03  0.19498565076E+03  0.00000000000E+00 0. -1.
         25    2    1    2    0    0 -0.65326445788E+02  0.27569532980E+02 -0.94005053149E+02  0.17178891761E+03  0.12508740355E+03 0.  0.
          5    1    3    3  502    0 -0.14157077959E+02  0.56933999490E+02  0.22001228288E+01  0.58857591649E+02  0.41800000000E+01 0.  1.
         -5    1    3    3    0  502 -0.51169367829E+02 -0.29364466510E+02 -0.96205175977E+02  0.11293132596E+03  0.41800000000E+01 0.  1.
        -11    1    1    2    0    0  0.44043545819E+02 -0.50955102552E+02  0.22334731306E+02  0.70958414772E+02  0.00000000000E+00 0.  1.
         11    1    1    2    0    0  0.21282899968E+02  0.23385569571E+02 -0.31160023989E+02  0.44393623306E+02  0.00000000000E+00 0. -1.
</event>
<event>
 7    1  0.2943257E-009  0.1140993E+03  0.7561462E-02  0.1253162E+00
         -3   -1    0    0    0  501 -0.00000000000E+00  0.00000000000E+00  0.11805105207E+03  0.11805105207E+03  0.00000000000E+00 0.  1.
          3   -1    0    0  501    0  0.00000000000E+00 -0.00000000000E+00 -0.19043291159E+03  0.19043291159E+03  0.00000000000E+00 0. -1.
         25    2    1    2    0    0  0.79098699984E+02  0.68693585862E+02 -0.39156144441E+02  0.16777861191E+03  0.12506416709E+03 0.  0.
          5    1    3    3  502    0  0.19308921843E+02  0.59599558809E+02  0.35088946409E+02  0.71928078196E+02  0.41800000000E+01 0. -1.
         -5    1    3    3    0  502  0.59789778142E+02  0.90940270530E+01 -0.74245090849E+02  0.95850533715E+02  0.41800000000E+01 0. -1.
        -11    1    1    2    0    0 -0.20448618511E+02 -0.16455361239E+02 -0.53498431615E+02  0.59590327217E+02  0.00000000000E+00 0. -1.
         11    1    1    2    0    0 -0.58650081473E+02 -0.52238224623E+02  0.20272716532E+02  0.81115024528E+02  0.00000000000E+00 0.  1.
</event>
<event>
 7    1  0.2943257E-009  0.1864295E+03  0.7561462E-02  0.1161722E+00
          2   -1    0    0  501    0  0.00000000000E+00  0.00000000000E+00  0.88191960815E+03  0.88191960815E+03  0.00000000000E+00 0. -1.
         -2   -1    0    0    0  501 -0.00000000000E+00 -0.00000000000E+00 -0.55633834902E+02  0.55633834902E+02  0.00000000000E+00 0.  1.
         25    2    1    2    0    0  0.11551617658E+03 -0.11511639347E+03  0.64521980144E+03  0.67716647006E+03  0.12510021946E+03 0.  0.
          5    1    3    3  502    0  0.35893612682E+01  0.21301428410E+02  0.14628414537E+03  0.14792957093E+03  0.41800000000E+01 0. -1.
         -5    1    3    3    0  502  0.11192681531E+03 -0.13641782188E+03  0.49893565606E+03  0.52923689913E+03  0.41800000000E+01 0. -1.
        -11    1    1    2    0    0 -0.81817759772E+02  0.11439536252E+03  0.99933709405E+02  0.17253171029E+03  0.00000000000E+00 0.  1.
         11    1    1    2    0    0 -0.33698416806E+02  0.72103095026E+00  0.81132262408E+02  0.87855262701E+02  0.00000000000E+00 0. -1.
</event>
<event>
 7    1  0.2943257E-009  0.1276208E+03  0.7561462E-02  0.1231029E+00
          2   -1    0    0  501    0  0.00000000000E+00  0.00000000000E+00  0.11725021657E+04  0.11725021657E+04  0.00000000000E+00 0. -1.
         -2   -1    0    0    0  501 -0.00000000000E+00 -0.00000000000E+00 -0.15901096579E+02  0.15901096579E+02  0.00000000000E+00 0.  1.
         25    2    1    2    0    0 -0.10162074675E+02  0.74586329143E+02  0.79174696653E+03  0.80509403989E+03  0.12508703290E+03 0.  0.
          5    1    3    3  502    0  0.48946372056E+02 -0.17095426145E+01  0.28886181018E+03  0.29301414242E+03  0.41800000000E+01 0.  1.
         -5    1    3    3    0  502 -0.59108446731E+02  0.76295871758E+02  0.50288515634E+03  0.51207989747E+03  0.41800000000E+01 0.  1.
        -11    1    1    2    0    0  0.43699532505E+02 -0.56347808977E+02  0.29712700581E+03  0.30556371234E+03  0.00000000000E+00 0. -1.
         11    1    1    2    0    0 -0.33537457829E+02 -0.18238520166E+02  0.67727096831E+02  0.77745510100E+02  0.00000000000E+00 0.  1.
</event>
<event>
 7    1  0.2943257E-009  0.2326895E+03  0.7561462E-02  0.1124761E+00
         -1   -1    0    0    0  501 -0.00000000000E+00  0.00000000000E+00  0.41498687990E+02  0.41498687990E+02  0.00000000000E+00 0.  1.
          1   -1    0    0  501    0  0.00000000000E+00 -0.00000000000E+00 -0.16164048818E+04  0.16164048818E+04  0.00000000000E+00 0. -1.
         25    2    1    2    0    0  0.15680681902E+03  0.15899214655E+03 -0.10453984858E+04  0.10762777202E+04  0.12509538680E+03 0.  0.
          5    1    3    3  502    0  0.15357529524E+03  0.14033415294E+03 -0.10318522675E+04  0.10526232090E+04  0.41800000000E+01 0. -1.
         -5    1    3    3    0  502  0.32315237822E+01  0.18657993602E+02 -0.13546218304E+02  0.23654511231E+02  0.41800000000E+01 0. -1.
        -11    1    1    2    0    0 -0.16614861466E+02 -0.69798728028E+02 -0.20228823074E+03  0.21463560830E+03  0.00000000000E+00 0. -1.
         11    1    1    2    0    0 -0.14019195755E+03 -0.89193418518E+02 -0.32721947725E+03  0.36699024123E+03  0.00000000000E+00 0.  1.
</event>
<event>
 7    1  0.2943257E-009  0.1154016E+03  0.7561462E-02  0.1250882E+00
         -2   -1    0    0    0  501 -0.00000000000E+00  0.00000000000E+00  0.36236278222E+03  0.36236278222E+03  0.00000000000E+00 0.  1.
          2   -1    0    0  501    0  0.00000000000E+00 -0.00000000000E+00 -0.97601549672E+02  0.97601549672E+02  0.00000000000E+00 0. -1.
         25    2    1    2    0    0 -0.68565419423E+02 -0.90263886423E+02  0.26737493504E+03  0.31620479177E+03  0.12508928217E+03 0.  0.
          5    1    3    3  502    0 -0.22592041137E+02 -0.10437758117E+02 -0.74581855983E+01  0.26314331640E+02  0.41800000000E+01 0.  1.
         -5    1    3    3    0  502 -0.45973378287E+02 -0.79826128305E+02  0.27483312064E+03  0.28989046013E+03  0.41800000000E+01 0.  1.
        -11    1    1    2    0    0  0.20754284162E+02  0.27894105833E+02  0.41099708816E+02  0.53833145144E+02  0.00000000000E+00 0.  1.
         11    1    1    2    0    0  0.47811135261E+02  0.62369780590E+02 -0.43713411311E+02  0.89926394981E+02  0.00000000000E+00 0. -1.
</event>
<event>
 7    1  0.2943257E-009  0.1000461E+03  0.7561462E-02  0.1280199E+00
          1   -1    0    0  501    0  0.00000000000E+00  0.00000000000E+00  0.26839063743E+03  0.26839063743E+03  0.00000000000E+00 0. -1.
         -1   -1    0    0    0  501 -0.00000000000E+00 -0.00000000000E+00 -0.49473424548E+02  0.49473424548E+02  0.00000000000E+00 0.  1.
         25    2    1    2    0    0  0.20760927252E+02  0.70651975677E+01  0.17112427206E+03  0.21309501900E+03  0.12508012440E+03 0.  0.
          5    1    3    3  502    0 -0.46495939489E+02 -0.23694224257E+02  0.61135300677E+02  0.80487800572E+02  0.41800000000E+01 0. -1.
         -5    1    3    3    0  502  0.67256866741E+02  0.30759421824E+02  0.10998897138E+03  0.13260721843E+03  0.41800000000E+01 0. -1.
        -11    1    1    2    0    0 -0.43255117638E+02 -0.20067410085E+02  0.59518756773E+02  0.76263940084E+02  0.00000000000E+00 0. -1.
         11    1    1    2    0    0  0.22494190385E+02  0.13002212517E+02 -0.11725815944E+02  0.28505102894E+02  0.00000000000E+00 0.  1.
</event>
<event>
 7    1  0.2943257E-009  0.2155843E+03  0.7561462E-02  0.1137219E+00
          2   -1    0    0  501    0  0.00000000000E+00  0.00000000000E+00  0.10565683785E+04  0.10565683785E+04  0.00000000000E+00 0. -1.
         -2   -1    0    0    0  501 -0.00000000000E+00 -0.00000000000E+00 -0.11027265260E+03  0.11027265260E+03  0.00000000000E+00 0.  1.
         25    2    1    2    0    0  0.19498927590E+03  0.36356124923E+02  0.91735704083E+03  0.94685484153E+03  0.12509022754E+03 0.  0.
          5    1    3    3  502    0  0.20359784879E+03  0.51519143203E+02  0.88756720972E+03  0.91208515519E+03  0.41800000000E+01 0. -1.
         -5    1    3    3    0  502 -0.86085728820E+01 -0.15163018279E+02  0.29789831105E+02  0.34769686333E+02  0.41800000000E+01 0. -1.
        -11    1    1    2    0    0 -0.16163265096E+03 -0.46724695282E+02  0.54326273848E+02  0.17680400176E+03  0.00000000000E+00 0. -1.
         11    1    1    2    0    0 -0.33356624941E+02  0.10368570359E+02 -0.25387588788E+02  0.43182187800E+02  0.00000000000E+00 0.  1.
</event>
<event>
 7    1  0.2943257E-009  0.7459889E+02  0.7561462E-02  0.1345118E+00
         -1   -1    0    0    0  501 -0.00000000000E+00  0.00000000000E+00  0.38381844197E+03  0.38381844197E+03  0.00000000000E+00 0.  1.
          1   -1    0    0  501    0  0.00000000000E+00 -0.00000000000E+00 -0.26406980036E+02  0.26406980036E+02  0.00000000000E+00 0. -1.
         25    2    1    2    0    0  0.16775379252E+02 -0.21106989705E+02  0.24629718717E+03  0.27754941664E+03  0.12507779942E+03 0.  0.
          5    1    3    3  502    0 -0.30871127545E+02  0.12793232707E+02  0.11566081274E+02  0.35608144504E+02  0.41800000000E+01 0. -1.
         -5    1    3    3    0  502  0.47646506796E+02 -0.33900222412E+02  0.23473110589E+03  0.24194127214E+03  0.41800000000E+01 0. -1.
        -11    1    1    2    0    0 -0.54627890801E+01 -0.16627402219E+02  0.81591295039E+02  0.83447300707E+02  0.00000000000E+00 0.  1.
         11    1    1    2    0    0 -0.11312590171E+02  0.37734391924E+02  0.29522979728E+02  0.49228704658E+02  0.00000000000E+00 0. -1.
</event>
<event>
 7    1  0.2943257E-009  0.1127376E+03  0.7561462E-02  0.1255583E+00
         -1   -1    0    0    0  501 -0.00000000000E+00  0.00000000000E+00  0.86680945885E+02  0.86680945885E+02  0.00000000000E+00 0.  1.
          1   -1    0    0  501    0  0.00000000000E+00 -0.00000000000E+00 -0.20876219422E+03  0.20876219422E+03  0.00000000000E+00 0. -1.
         25    2    1    2    0    0  0.65296559609E+02  0.39250400139E+02 -0.73440768199E+02  0.16385299803E+03  0.12510005564E+03 0.  0.
          5    1    3    3  502    0  0.84604326289E+02  0.41847317768E+02 -0.72839965663E+01  0.94760851818E+02  0.41800000000E+01 0. -1.
         -5    1    3    3    0  502 -0.19307766680E+02 -0.25969176291E+01 -0.66156771633E+02  0.69092146212E+02  0.41800000000E+01 0. -1.
        -11    1    1    2    0    0 -0.43757959956E+02 -0.64461775116E+02 -0.68051103330E+01  0.78207346440E+02  0.00000000000E+00 0.  1.
         11    1    1    2    0    0 -0.21538599654E+02  0.25211374977E+02 -0.41835369804E+02  0.53382795636E+02  0.00000000000E+00 0. -1.
</event>
<event>
 7    1  0.2943257E-009  0.1306991E+03  0.7561462E-02  0.1226422E+00
         -1   -1    0    0    0  501 -0.00000000000E+00  0.00000000000E+00  0.18289107333E+03  0.18289107333E+03  0.00000000000E+00 0.  1.
          1   -1    0    0  501    0  0.00000000000E+00 -0.00000000000E+00 -0.13319244816E+03  0.13319244816E+03  0.00000000000E+00 0. -1.
         25    2    1    2    0    0  0.13306312922E+02 -0.11056449381E+03  0.32682223012E+02  0.17063658307E+03  0.12508857072E+03 0.  0.
          5    1    3    3  502    0 -0.15765824338E+02 -0.10314249058E+03  0.67610542702E+02  0.12440093434E+03  0.41800000000E+01 0.  1.
         -5    1    3    3    0  502  0.29072137260E+02 -0.74220032273E+01 -0.34928319690E+02  0.46235648726E+02  0.41800000000E+01 0.  1.
        -11    1    1    2    0    0  0.18381014963E+02  0.93528928577E+01 -0.24082037089E+02  0.31706195392E+02  0.00000000000E+00 0. -1.
         11    1    1    2    0    0 -0.31687327885E+02  0.10121160095E+03  0.41098439251E+02  0.11374074303E+03  0.00000000000E+00 0.  1.
</event>
<event>
 7    1  0.2943257E-009  0.1193244E+03  0.7561462E-02  0.1244216E+00
          1   -1    0    0  501    0  0.00000000000E+00  0.00000000000E+00  0.37311292539E+03  0.37311292539E+03  0.00000000000E+00 0.  1.
         -1   -1    0    0    0  501 -0.00000000000E+00 -0.00000000000E+00 -0.48680582660E+02  0.48680582660E+02  0.00000000000E+00 0. -1.
         25    2    1    2    0    0  0.16088101702E+02  0.61278891086E+02  0.25482916716E+03  0.29086107328E+03  0.12509328521E+03 0.  0.
          5    1    3    3  502    0  0.60462741141E+02  0.59015834921E+02  0.10675865236E+03  0.13621121133E+03  0.41800000000E+01 0. -1.
         -5    1    3    3    0  502 -0.44374639439E+02  0.22630561651E+01  0.14807051479E+03  0.15464986195E+03  0.41800000000E+01 0. -1.
        -11    1    1    2    0    0 -0.46280785789E+02 -0.63064524493E+01  0.19321544178E+02  0.50547052784E+02  0.00000000000E+00 0. -1.
         11    1    1    2    0    0  0.30192684088E+02 -0.54972438636E+02  0.50281631397E+02  0.80385381992E+02  0.00000000000E+00 0.  1.
</event>
<event>
 7    1  0.2943257E-009  0.7518848E+02  0.7561462E-02  0.1343288E+00
         -2   -1    0    0    0  501 -0.00000000000E+00  0.00000000000E+00  0.35603936061E+02  0.35603936061E+02  0.00000000000E+00 0.  1.
          2   -1    0    0  501    0  0.00000000000E+00 -0.00000000000E+00 -0.36541077363E+03  0.36541077363E+03  0.00000000000E+00 0. -1.
         25    2    1    2    0    0 -0.12175832524E+02  0.12091678317E+02 -0.13347029899E+03  0.18372986035E+03  0.12509149166E+03 0.  0.
          5    1    3    3  502    0 -0.17870279699E+02 -0.19970417531E+02 -0.14606802994E+03  0.14856482169E+03  0.41800000000E+01 0. -1.
         -5    1    3    3    0  502  0.56944471748E+01  0.32062095849E+02  0.12597730944E+02  0.35165038657E+02  0.41800000000E+01 0. -1.
        -11    1    1    2    0    0  0.44342642148E+02  0.16572225643E+02 -0.12828938201E+03  0.13674455789E+03  0.00000000000E+00 0. -1.
         11    1    1    2    0    0 -0.32166809624E+02 -0.28663903960E+02 -0.68047156565E+02  0.80540291458E+02  0.00000000000E+00 0.  1.
</event>
<event>
 7    1  0.2943257E-009  0.1078403E+03  0.7561462E-02  0.1264622E+00
         -2   -1    0    0    0  501 -0.00000000000E+00  0.00000000000E+00  0.24423690606E+02  0.24423690606E+02  0.00000000000E+00 0.  1.
          2   -1    0    0  501    0  0.00000000000E+00 -0.00000000000E+00 -0.67982665702E+03  0.67982665702E+03  0.00000000000E+00 0. -1.
         25    2    1    2    0    0  0.66712946910E+02 -0.21700316810E+02 -0.43827307010E+03  0.46114207372E+03  0.12508879704E+03 0.  0.
          5    1    3    3  502    0  0.37921115452E+02 -0.68680767359E+02 -0.33417396708E+03  0.34328526254E+03  0.41800000000E+01 0. -1.
         -5    1    3    3    0  502  0.28791831458E+02  0.46980450549E+02 -0.10409910303E+03  0.11785681119E+03  0.41800000000E+01 0. -1.
        -11    1    1    2    0    0  0.14717309510E+01  0.13040436543E+02  0.21594817180E+01  0.13299711971E+02  0.00000000000E+00 0.  1.
         11    1    1    2    0    0 -0.68184677861E+02  0.86598802678E+01 -0.21928937803E+03  0.22980856193E+03  0.00000000000E+00 0. -1.
</event>
<event>
 7    1  0.2943257E-009  0.1424883E+03  0.7561462E-02  0.1210019E+00
         -2   -1    0    0    0  501 -0.00000000000E+00  0.00000000000E+00  0.80227976140E+02  0.80227976140E+02  0.00000000000E+00 0.  1.
          2   -1    0    0  501    0  0.00000000000E+00 -0.00000000000E+00 -0.26648665710E+03  0.26648665710E+03  0.00000000000E+00 0. -1.
         25    2    1    2    0    0  0.38873007552E+02  0.88746507080E+02 -0.11328068993E+03  0.19459539487E+03  0.12509116580E+03 0.  0.
          5    1    3    3  502    0 -0.25719421504E+02 -0.18574546988E+02 -0.15074430367E+02  0.35372493398E+02  0.41800000000E+01 0. -1.
         -5    1    3    3    0  502  0.64592429057E+02  0.10732105407E+03 -0.98206259561E+02  0.15922290148E+03  0.41800000000E+01 0. -1.
        -11    1    1    2    0    0  0.26126623881E+02 -0.32427252503E+02 -0.45848335358E+02  0.61937040900E+02  0.00000000000E+00 0.  1.
         11    1    1    2    0    0 -0.64999631433E+02 -0.56319254577E+02 -0.27129655674E+02  0.90182197464E+02  0.00000000000E+00 0. -1.
</event>
<event>
 7    1  0.2943257E-009  0.1503177E+03  0.7561462E-02  0.1200083E+00
         -2   -1    0    0    0  501 -0.00000000000E+00  0.00000000000E+00  0.13881373640E+03  0.13881373640E+03  0.00000000000E+00 0.  1.
          2   -1    0    0  501    0  0.00000000000E+00 -0.00000000000E+00 -0.32138526306E+03  0.32138526306E+03  0.00000000000E+00 0. -1.
         25    2    1    2    0    0 -0.94268258771E+02  0.46775081179E+02  0.65044468423E+02  0.17593613832E+03  0.12509328144E+03 0.  0.
          5    1    3    3  502    0  0.27382301986E+02  0.28845327986E+02  0.21624339760E+02  0.45463478516E+02  0.41800000000E+01 0.  1.
         -5    1    3    3    0  502 -0.12165056076E+03  0.17929753193E+02  0.43420128663E+02  0.13047265980E+03  0.41800000000E+01 0.  1.
        -11    1    1    2    0    0  0.39451173292E+02 -0.68170955247E+02 -0.11746498811E+03  0.14142735819E+03  0.00000000000E+00 0.  1.
         11    1    1    2    0    0  0.54817085479E+02  0.21395874067E+02 -0.13015100698E+03  0.14283550295E+03  0.00000000000E+00 0. -1.
</event>
<event>
 7    1  0.2943257E-009  0.1032498E+03  0.7561462E-02  0.1273607E+00
         -1   -1    0    0    0  501 -0.00000000000E+00  0.00000000000E+00  0.11645644207E+03  0.11645644207E+03  0.00000000000E+00 0.  1.
          1   -1    0    0  501    0  0.00000000000E+00 -0.00000000000E+00 -0.11418941455E+03  0.11418941455E+03  0.00000000000E+00 0. -1.
         25    2    1    2    0    0 -0.75157957378E+01  0.22388906484E+02 -0.36232387370E+02  0.13235555068E+03  0.12508979008E+03 0.  0.
          5    1    3    3  502    0 -0.65957433209E+02  0.56337655087E+01 -0.20333893746E+02  0.69376234723E+02  0.41800000000E+01 0. -1.
         -5    1    3    3    0  502  0.58441637472E+02  0.16755140975E+02 -0.15898493623E+02  0.62979315961E+02  0.41800000000E+01 0. -1.
        -11    1    1    2    0    0  0.10080260296E+02  0.27493017952E+02  0.38464514597E+02  0.48342492353E+02  0.00000000000E+00 0.  1.
         11    1    1    2    0    0 -0.25644645578E+01 -0.49881924436E+02  0.34900289280E-01  0.49947813585E+02  0.00000000000E+00 0. -1.
</event>
<event>
 7    1  0.2943257E-009  0.9289662E+02  0.7561462E-02  0.1295985E+00
          1   -1    0    0  501    0  0.00000000000E+00  0.00000000000E+00  0.14511544385E+03  0.14511544385E+03  0.00000000000E+00 0. -1.
         -1   -1    0    0    0  501 -0.00000000000E+00 -0.00000000000E+00 -0.14453383675E+03  0.14453383675E+03  0.00000000000E+00 0.  1.
         25    2    1    2    0    0  0.79909233658E+02  0.16630415716E+00  0.50954701422E+02  0.15693878933E+03  0.12509152137E+03 0.  0.
          5    1    3    3  502    0  0.46646915954E+02 -0.33367424081E+02  0.82079646984E+02  0.10021906309E+03  0.41800000000E+01 0.  1.
         -5    1    3    3    0  502  0.33262317704E+02  0.33533728238E+02 -0.31124945562E+02  0.56719726241E+02  0.41800000000E+01 0.  1.
        -11    1    1    2    0    0 -0.15664322708E+02 -0.50056583916E+01 -0.64660090507E+02  0.66718475148E+02  0.00000000000E+00 0.  1.
         11    1    1    2    0    0 -0.64244910950E+02  0.48393542344E+01  0.14286996184E+02  0.65992016126E+02  0.00000000000E+00 0. -1.
</event>
<event>
 7    1  0.2943257E-009  0.1036908E+03  0.7561462E-02  0.1272721E+00
         -1   -1    0    0    0  501 -0.00000000000E+00  0.00000000000E+00  0.14205214073E+03  0.14205214073E+03  0.00000000000E+00 0.  1.
          1   -1    0    0  501    0  0.00000000000E+00 -0.00000000000E+00 -0.89434565203E+02  0.89434565203E+02  0.00000000000E+00 0. -1.
         25    2    1    2    0    0  0.17393628260E+02 -0.18588720902E+02  0.79788467963E+01  0.12788789823E+03  0.12507427261E+03 0.  0.
          5    1    3    3  502    0  0.62101766139E+02  0.14364173579E+02  0.26550042387E+02  0.69176122983E+02  0.41800000000E+01 0.  1.
         -5    1    3    3    0  502 -0.44708137879E+02 -0.32952894481E+02 -0.18571195591E+02  0.58711775250E+02  0.41800000000E+01 0.  1.
        -11    1    1    2    0    0 -0.91219576626E+01  0.52302712883E+02  0.43877075811E+02  0.68876568354E+02  0.00000000000E+00 0.  1.
         11    1    1    2    0    0 -0.82716705976E+01 -0.33713991981E+02  0.76165291587E+00  0.34722239342E+02  0.00000000000E+00 0. -1.
</event>
<event>
 7    1  0.2943257E-009  0.3551918E+03  0.7561462E-02  0.1060504E+00
          2   -1    0    0  501    0  0.00000000000E+00  0.00000000000E+00  0.12770619919E+03  0.12770619919E+03  0.00000000000E+00 0.  1.
         -2   -1    0    0    0  501 -0.00000000000E+00 -0.00000000000E+00 -0.99550020669E+03  0.99550020669E+03  0.00000000000E+00 0. -1.
         25    2    1    2    0    0  0.27384883621E+03  0.20045640576E+03 -0.44003104716E+03  0.56960675601E+03  0.12509427777E+03 0.  0.
          5    1    3    3  502    0  0.14720958586E+03  0.17695050169E+03 -0.31400410356E+03  0.38935612448E+03  0.41800000000E+01 0. -1.
         -5    1    3    3    0  502  0.12663925035E+03  0.23505904066E+02 -0.12602694359E+03  0.18025063153E+03  0.41800000000E+01 0. -1.
        -11    1    1    2    0    0 -0.14369260523E+03 -0.49506279404E+02 -0.17802114141E+03  0.23407255988E+03  0.00000000000E+00 0. -1.
         11    1    1    2    0    0 -0.13015623098E+03 -0.15095012635E+03 -0.24974181894E+03  0.31952708999E+03  0.00000000000E+00 0.  1.
</event>
<event>
 7    1  0.2943257E-009  0.1312362E+03  0.7561462E-02  0.1225633E+00
         -2   -1    0    0    0  501 -0.00000000000E+00  0.00000000000E+00  0.16955777848E+02  0.16955777848E+02  0.00000000000E+00 0.  1.
          2   -1    0    0  501    0  0.00000000000E+00 -0.00000000000E+00 -0.10871202048E+04  0.10871202048E+04  0.00000000000E+00 0. -1.
         25    2    1    2    0    0  0.36971508902E+02  0.72006822944E+02 -0.56201934957E+03  0.58143361304E+03  0.12508965607E+03 0.  0.
          5    1    3    3  502    0 -0.45950341647E+02  0.35753374145E+02 -0.22553975927E+03  0.23297079875E+03  0.41800000000E+01 0. -1.
         -5    1    3    3    0  502  0.82921850549E+02  0.36253448800E+02 -0.33647959031E+03  0.34846281429E+03  0.41800000000E+01 0. -1.
        -11    1    1    2    0    0 -0.46806097242E+02 -0.85103577909E+02 -0.48275242942E+03  0.49242597192E+03  0.00000000000E+00 0. -1.
         11    1    1    2    0    0  0.98345883395E+01  0.13096754965E+02 -0.25392647908E+02  0.30216397638E+02  0.00000000000E+00 0.  1.
</event>
<event>
 7    1  0.2943257E-009  0.1006207E+03  0.7561462E-02  0.1278996E+00
          2   -1    0    0  501    0  0.00000000000E+00  0.00000000000E+00  0.10813866223E+03  0.10813866223E+03  0.00000000000E+00 0. -1.
         -2   -1    0    0    0  501 -0.00000000000E+00 -0.00000000000E+00 -0.11103548012E+03  0.11103548012E+03  0.00000000000E+00 0.  1.
         25    2    1    2    0    0 -0.22604599825E+02  0.10421797403E+01 -0.11501379578E+02  0.12763844722E+03  0.12508891800E+03 0.  0.
          5    1    3    3  502    0  0.43246201284E+02 -0.77410872540E+01  0.26014855180E+02  0.51228931742E+02  0.41800000000E+01 0.  1.
         -5    1    3    3    0  502 -0.65850801109E+02  0.87832669943E+01 -0.37516234758E+02  0.76409515483E+02  0.41800000000E+01 0.  1.
        -11    1    1    2    0    0 -0.15997461553E+02 -0.35412392628E+02 -0.14312302610E+01  0.38884505241E+02  0.00000000000E+00 0. -1.
         11    1    1    2    0    0  0.38602061378E+02  0.34370212887E+02  0.10035791954E+02  0.52651189889E+02  0.00000000000E+00 0.  1.
</event>
<event>
 7    1  0.2943257E-009  0.1058518E+03  0.7561462E-02  0.1268450E+00
          1   -1    0    0  501    0  0.00000000000E+00  0.00000000000E+00  0.55908938597E+03  0.55908938597E+03  0.00000000000E+00 0. -1.
         -1   -1    0    0    0  501 -0.00000000000E+00 -0.00000000000E+00 -0.31139923940E+02  0.31139923940E+02  0.00000000000E+00 0.  1.
         25    2    1    2    0    0  0.11793755051E+02  0.71601743740E+02  0.24679910901E+03  0.28604742879E+03  0.12508968361E+03 0.  0.
          5    1    3    3  502    0 -0.27604524721E+02  0.50169483983E+01  0.10634423655E+01  0.28386314766E+02  0.41800000000E+01 0.  1.
         -5    1    3    3    0  502  0.39398279772E+02  0.66584795341E+02  0.24573566664E+03  0.25766111402E+03  0.41800000000E+01 0.  1.
        -11    1    1    2    0    0  0.16449561574E+02 -0.75566741738E+02  0.25115375145E+03  0.26279103372E+03  0.00000000000E+00 0. -1.
         11    1    1    2    0    0 -0.28243316625E+02  0.39649979983E+01  0.29996601567E+02  0.41390847402E+02  0.00000000000E+00 0.  1.
</event>
<event>
 7    1  0.2943257E-009  0.2005850E+03  0.7561462E-02  0.1149246E+00
          2   -1    0    0  501    0  0.00000000000E+00  0.00000000000E+00  0.24244198530E+03  0.24244198530E+03  0.00000000000E+00 0. -1.
         -2   -1    0    0    0  501 -0.00000000000E+00 -0.00000000000E+00 -0.19767782499E+03  0.19767782499E+03  0.00000000000E+00 0.  1.
         25    2    1    2    0    0  0.15926637326E+03 -0.67225243862E+02  0.10206551224E+03  0.23653543936E+03  0.12508650694E+03 0.  0.
          5    1    3    3  502    0  0.22514799677E+02  0.35320779428E+02  0.15198384903E+02  0.44754183800E+02  0.41800000000E+01 0. -1.
         -5    1    3    3    0  502  0.13675157359E+03 -0.10254602329E+03  0.86867127339E+02  0.19178125556E+03  0.41800000000E+01 0. -1.
        -11    1    1    2    0    0 -0.75047764569E+01  0.31236200746E+02  0.10097152556E+02  0.33674536321E+02  0.00000000000E+00 0. -1.
         11    1    1    2    0    0 -0.15176159681E+03  0.35989043117E+02 -0.67398504490E+02  0.16990983461E+03  0.00000000000E+00 0.  1.
</event>
<event>
 7    1  0.2943257E-009  0.1855791E+03  0.7561462E-02  0.1162510E+00
         -1   -1    0    0    0  501 -0.00000000000E+00  0.00000000000E+00  0.73521313988E+03  0.73521313988E+03  0.00000000000E+00 0.  1.
          1   -1    0    0  501    0  0.00000000000E+00 -0.00000000000E+00 -0.54385814170E+02  0.54385814170E+02  0.00000000000E+00 0. -1.
         25    2    1    2    0    0 -0.12106622442E+03 -0.98783245302E+02  0.47677800341E+03  0.51709063582E+03  0.12510116253E+03 0.  0.
          5    1    3    3  502    0  0.21782711546E+02 -0.13378665807E+02  0.12826385118E+03  0.13085321219E+03  0.41800000000E+01 0.  1.
         -5    1    3    3    0  502 -0.14284893597E+03 -0.85404579495E+02  0.34851415223E+03  0.38623742363E+03  0.41800000000E+01 0.  1.
        -11    1    1    2    0    0  0.10726237297E+03  0.33983763331E+02  0.14670304161E+03  0.18488346395E+03  0.00000000000E+00 0. -1.
         11    1    1    2    0    0  0.13803851458E+02  0.64799481971E+02  0.57346280692E+02  0.87624854283E+02  0.00000000000E+00 0.  1.
</event>
<event>
 7    1  0.2943257E-009  0.2614726E+03  0.7561462E-02  0.1106262E+00
          1   -1    0    0  501    0  0.00000000000E+00  0.00000000000E+00  0.66733518431E+03  0.66733518431E+03  0.00000000000E+00 0. -1.
         -1   -1    0    0    0  501 -0.00000000000E+00 -0.00000000000E+00 -0.15983216813E+03  0.15983216813E+03  0.00000000000E+00 0.  1.
         25    2    1    2    0    0 -0.19454613026E+03 -0.14601216366E+03  0.19190465409E+02  0.27419512758E+03  0.12508775035E+03 0.  0.
          5    1    3    3  502    0  0.11438587960E+02 -0.28642704500E+02  0.20154174480E+02  0.37079764893E+02  0.41800000000E+01 0. -1.
         -5    1    3    3    0  502 -0.20598471822E+03 -0.11736945916E+03 -0.96370907032E+00  0.23711536268E+03  0.41800000000E+01 0. -1.
        -11    1    1    2    0    0  0.42323740632E+02 -0.20238598293E+01  0.12704857365E+03  0.13392809674E+03  0.00000000000E+00 0. -1.
         11    1    1    2    0    0  0.15222238963E+03  0.14803602349E+03  0.36126397712E+03  0.41904412813E+03  0.00000000000E+00 0.  1.
</event>
<event>
 7    1  0.2943257E-009  0.1038295E+03  0.7561462E-02  0.1272443E+00
          2   -1    0    0  501    0  0.00000000000E+00  0.00000000000E+00  0.22708906221E+03  0.22708906221E+03  0.00000000000E+00 0. -1.
         -2   -1    0    0    0  501 -0.00000000000E+00 -0.00000000000E+00 -0.68638909442E+02  0.68638909442E+02  0.00000000000E+00 0.  1.
         25    2    1    2    0    0  0.59138842932E+02  0.13715230971E+02  0.72414846807E+02  0.15672638657E+03  0.12503495473E+03 0.  0.
          5    1    3    3  502    0 -0.69337971604E+01  0.37582461211E+02 -0.17752943957E+02  0.42345700524E+02  0.41800000000E+01 0. -1.
         -5    1    3    3    0  502  0.66072640092E+02 -0.23867230239E+02  0.90167790764E+02  0.11438068604E+03  0.41800000000E+01 0. -1.
        -11    1    1    2    0    0 -0.71461914681E+02  0.99559074351E+01  0.86073793370E+02  0.11231483984E+03  0.00000000000E+00 0. -1.
         11    1    1    2    0    0  0.12323071749E+02 -0.23671138406E+02 -0.38487407309E-01  0.26686745251E+02  0.00000000000E+00 0.  1.
</event>
<event>
 7    1  0.2943257E-009  0.2062853E+03  0.7561462E-02  0.1144542E+00
          1   -1    0    0  501    0  0.00000000000E+00  0.00000000000E+00  0.94403764290E+03  0.94403764290E+03  0.00000000000E+00 0. -1.
         -1   -1    0    0    0  501 -0.00000000000E+00 -0.00000000000E+00 -0.50079473875E+02  0.50079473875E+02  0.00000000000E+00 0.  1.
         25    2    1    2    0    0 -0.17239133183E+03 -0.64497250951E+02  0.55193320009E+03  0.59511031320E+03  0.12508941139E+03 0.  0.
          5    1    3    3  502    0 -0.18349268507E+03 -0.30917889298E+02  0.44330673860E+03  0.48079498567E+03  0.41800000000E+01 0. -1.
         -5    1    3    3    0  502  0.11101353243E+02 -0.33579361652E+02  0.10862646149E+03  0.11431532753E+03  0.41800000000E+01 0. -1.
        -11    1    1    2    0    0  0.10687703818E+03  0.65421940479E+02  0.28801584414E+03  0.31409530092E+03  0.00000000000E+00 0. -1.
         11    1    1    2    0    0  0.65514293645E+02 -0.92468952849E+00  0.54009124802E+02  0.84911502662E+02  0.00000000000E+00 0.  1.
</event>
<event>
 7    1  0.2943257E-009  0.1232302E+03  0.7561462E-02  0.1237861E+00
          2   -1    0    0  501    0  0.00000000000E+00  0.00000000000E+00  0.71705379511E+03  0.71705379511E+03  0.00000000000E+00 0. -1.
         -2   -1    0    0    0  501 -0.00000000000E+00 -0.00000000000E+00 -0.30457862628E+02  0.30457862628E+02  0.00000000000E+00 0.  1.
         25    2    1    2    0    0  0.14918582884E+02 -0.86443469844E+02  0.49267413281E+03  0.51582144920E+03  0.12509567826E+03 0.  0.
          5    1    3    3  502    0  0.50835283591E+02 -0.78886053316E+02  0.20159734636E+03  0.22240997712E+03  0.41800000000E+01 0. -1.
         -5    1    3    3    0  502 -0.35916700708E+02 -0.75574165287E+01  0.29107678645E+03  0.29341147207E+03  0.41800000000E+01 0. -1.
        -11    1    1    2    0    0 -0.45702698345E+02  0.47166198241E+02  0.15520496644E+03  0.16852883581E+03  0.00000000000E+00 0. -1.
         11    1    1    2    0    0  0.30784115461E+02  0.39277271603E+02  0.38716833233E+02  0.63161372728E+02  0.00000000000E+00 0.  1.
</event>
<event>
 7    1  0.2943257E-009  0.2605501E+03  0.7561462E-02  0.1106813E+00
         -2   -1    0    0    0  501 -0.00000000000E+00  0.00000000000E+00  0.49912875945E+02  0.49912875945E+02  0.00000000000E+00 0.  1.
          2   -1    0    0  501    0  0.00000000000E+00 -0.00000000000E+00 -0.15334603660E+04  0.15334603660E+04  0.00000000000E+00 0. -1.
         25    2    1    2    0    0 -0.14721151878E+03  0.20451902905E+03 -0.66295048303E+03  0.72017432077E+03  0.12509374420E+03 0.  0.
          5    1    3    3  502    0 -0.26038733732E+02  0.68978467640E+02 -0.35446060099E+03  0.36207158782E+03  0.41800000000E+01 0. -1.
         -5    1    3    3    0  502 -0.12117278505E+03  0.13554056141E+03 -0.30848988204E+03  0.35810273295E+03  0.41800000000E+01 0. -1.
        -11    1    1    2    0    0  0.48383919815E+02 -0.13808164380E+03 -0.39388458124E+03  0.42018163618E+03  0.00000000000E+00 0. -1.
         11    1    1    2    0    0  0.98827598965E+02 -0.66437385250E+02 -0.42671242575E+03  0.44301728495E+03  0.00000000000E+00 0.  1.
</event>
<event>
 7    1  0.2943257E-009  0.1178852E+03  0.7561462E-02  0.1246627E+00
          1   -1    0    0  501    0  0.00000000000E+00  0.00000000000E+00  0.11683908842E+03  0.11683908842E+03  0.00000000000E+00 0. -1.
         -1   -1    0    0    0  501 -0.00000000000E+00 -0.00000000000E+00 -0.13504168140E+03  0.13504168140E+03  0.00000000000E+00 0.  1.
         25    2    1    2    0    0  0.60031551582E+02  0.20473268891E+02 -0.44994384086E+02  0.14729250192E+03  0.12509054560E+03 0.  0.
          5    1    3    3  502    0  0.65238095264E+02  0.64781352200E+02 -0.14688783528E+02  0.93197990472E+02  0.41800000000E+01 0. -1.
         -5    1    3    3    0  502 -0.52065436815E+01 -0.44308083308E+02 -0.30305600557E+02  0.54094511447E+02  0.41800000000E+01 0. -1.
        -11    1    1    2    0    0  0.88250885628E+00  0.23679594309E+02 -0.25565730760E+01  0.23833549345E+02  0.00000000000E+00 0.  1.
         11    1    1    2    0    0 -0.60914060439E+02 -0.44152863200E+02  0.29348364180E+02  0.80754718549E+02  0.00000000000E+00 0. -1.
</event>
<event>
 7    1  0.2943257E-009  0.1114571E+03  0.7561462E-02  0.1257895E+00
         -1   -1    0    0    0  501 -0.00000000000E+00  0.00000000000E+00  0.50409857350E+02  0.50409857350E+02  0.00000000000E+00 0.  1.
          1   -1    0    0  501    0  0.00000000000E+00 -0.00000000000E+00 -0.27392435616E+03  0.27392435616E+03  0.00000000000E+00 0. -1.
         25    2    1    2    0    0  0.36844579376E+02 -0.20103284587E+02 -0.14250817811E+03  0.19421068316E+03  0.12509014167E+03 0.  0.
          5    1    3    3  502    0  0.66124939653E+02  0.29857201617E+02 -0.66026513459E+02  0.98188252923E+02  0.41800000000E+01 0. -1.
         -5    1    3    3    0  502 -0.29280360277E+02 -0.49960486204E+02 -0.76481664655E+02  0.96022430234E+02  0.41800000000E+01 0. -1.
        -11    1    1    2    0    0  0.84706307090E+01 -0.26115081962E+02 -0.13541131576E+01  0.27487864831E+02  0.00000000000E+00 0. -1.
         11    1    1    2    0    0 -0.45315210085E+02  0.46218366549E+02 -0.79652207539E+02  0.10263566552E+03  0.00000000000E+00 0.  1.
</event>
<event>
 7    1  0.2943257E-009  0.1287336E+03  0.7561462E-02  0.1229347E+00
         -1   -1    0    0    0  501 -0.00000000000E+00  0.00000000000E+00  0.42680571077E+02  0.42680571077E+02  0.00000000000E+00 0.  1.
          1   -1    0    0  501    0  0.00000000000E+00 -0.00000000000E+00 -0.39011450879E+03  0.39011450879E+03  0.00000000000E+00 0. -1.
         25    2    1    2    0    0  0.55732072435E+02 -0.39959017188E+02 -0.18942771342E+03  0.23713541588E+03  0.12509020706E+03 0.  0.
          5    1    3    3  502    0  0.93703130694E+02 -0.11626636914E+02 -0.11567551503E+03  0.14937788513E+03  0.41800000000E+01 0.  1.
         -5    1    3    3    0  502 -0.37971058259E+02 -0.28332380273E+02 -0.73752198381E+02  0.87757530750E+02  0.41800000000E+01 0.  1.
        -11    1    1    2    0    0 -0.17704153176E+02 -0.30534665558E+02 -0.47450612518E+02  0.59138510877E+02  0.00000000000E+00 0.  1.
         11    1    1    2    0    0 -0.38027919259E+02  0.70493682745E+02 -0.11055561178E+03  0.13652115311E+03  0.00000000000E+00 0. -1.
</event>
<event>
 7    1  0.2943257E-009  0.9536446E+02  0.7561462E-02  0.1290357E+00
          3   -1    0    0  501    0  0.00000000000E+00  0.00000000000E+00  0.18550742219E+03  0.18550742219E+03  0.00000000000E+00 0. -1.
         -3   -1    0    0    0  501 -0.00000000000E+00 -0.00000000000E+00 -0.82363470879E+02  0.82363470879E+02  0.00000000000E+00 0.  1.
         25    2    1    2    0    0  0.20962971247E+02 -0.54631302633E+02  0.66294516549E+02  0.15318643104E+03  0.12508834614E+03 0.  0.
          5    1    3    3  502    0 -0.11492857773E+02 -0.64210129489E+02  0.90308698927E+02  0.11148165773E+03  0.41800000000E+01 0.  1.
         -5    1    3    3    0  502  0.32455829020E+02  0.95788268561E+01 -0.24014182379E+02  0.41704773308E+02  0.41800000000E+01 0.  1.
        -11    1    1    2    0    0 -0.44508432262E+02  0.18629646898E+02 -0.11872842776E+02  0.49689321605E+02  0.00000000000E+00 0.  1.
         11    1    1    2    0    0  0.23545461015E+02  0.36001655735E+02  0.48722277536E+02  0.64995140421E+02  0.00000000000E+00 0. -1.
</event>
<event>
 7    1  0.2943257E-009  0.1658730E+03  0.7561462E-02  0.1182221E+00
         -2   -1    0    0    0  501 -0.00000000000E+00  0.00000000000E+00  0.20206119671E+02  0.20206119671E+02  0.00000000000E+00 0. -1.
          2   -1    0    0  501    0  0.00000000000E+00 -0.00000000000E+00 -0.17354249184E+04  0.17354249184E+04  0.00000000000E+00 0.  1.
         25    2    1    2    0    0  0.14083616826E+02 -0.12421042499E+03 -0.13049395194E+04  0.13168699636E+04  0.12511104540E+03 0.  0.
          5    1    3    3  502    0  0.44711377912E+02 -0.13596635064E+03 -0.10150159319E+04  0.10250662272E+04  0.41800000000E+01 0.  1.
         -5    1    3    3    0  502 -0.30627761086E+02  0.11755925647E+02 -0.28992358754E+03  0.29180373635E+03  0.41800000000E+01 0.  1.
        -11    1    1    2    0    0 -0.53796042117E+02  0.69971043448E+02 -0.23655038653E+03  0.25247979412E+03  0.00000000000E+00 0.  1.
         11    1    1    2    0    0  0.39712425291E+02  0.54239381546E+02 -0.17372889271E+03  0.18628128031E+03  0.00000000000E+00 0. -1.
</event>
<event>
 7    1  0.2943257E-009  0.9814832E+02  0.7561462E-02  0.1284239E+00
         -3   -1    0    0    0  501 -0.00000000000E+00  0.00000000000E+00  0.18413090833E+03  0.18413090833E+03  0.00000000000E+00 0.  1.
          3   -1    0    0  501    0  0.00000000000E+00 -0.00000000000E+00 -0.14596338619E+03  0.14596338619E+03  0.00000000000E+00 0. -1.
         25    2    1    2    0    0 -0.16958950218E+02  0.84097962875E+02 -0.67781881502E+02  0.16611614541E+03  0.12506045320E+03 0.  0.
          5    1    3    3  502    0 -0.57773836022E+01  0.67082193316E+02  0.24310794169E+02  0.71706944813E+02  0.41800000000E+01 0. -1.
         -5    1    3    3    0  502 -0.11181566616E+02  0.17015769560E+02 -0.92092675671E+02  0.94409200600E+02  0.41800000000E+01 0. -1.
        -11    1    1    2    0    0 -0.14657775160E+02 -0.73132164230E+02  0.10707804911E+03  0.13049472180E+03  0.00000000000E+00 0.  1.
         11    1    1    2    0    0  0.31616725378E+02 -0.10965798646E+02 -0.11286454622E+01  0.33483427306E+02  0.00000000000E+00 0. -1.
</event>
<event>
 7    1  0.2943257E-009  0.1123574E+03  0.7561462E-02  0.1256266E+00
         -1   -1    0    0    0  501 -0.00000000000E+00  0.00000000000E+00  0.38163623288E+02  0.38163623288E+02  0.00000000000E+00 0.  1.
          1   -1    0    0  501    0  0.00000000000E+00 -0.00000000000E+00 -0.36277515083E+03  0.36277515083E+03  0.00000000000E+00 0. -1.
         25    2    1    2    0    0 -0.84327044671E+01 -0.30422302355E+02 -0.23366667708E+03  0.26691818229E+03  0.12509425677E+03 0.  0.
          5    1    3    3  502    0 -0.37572427783E+02 -0.68977437794E+02 -0.16563905950E+03  0.18336669460E+03  0.41800000000E+01 0.  1.
         -5    1    3    3    0  502  0.29139723316E+02  0.38555135440E+02 -0.68027617576E+02  0.83551487699E+02  0.41800000000E+01 0.  1.
        -11    1    1    2    0    0 -0.41853806262E+02  0.85866064516E+01 -0.48869092813E+02  0.64912704005E+02  0.00000000000E+00 0. -1.
         11    1    1    2    0    0  0.50286510729E+02  0.21835695903E+02 -0.42075757653E+02  0.69107887820E+02  0.00000000000E+00 0.  1.
</event>
<event>
 7    1  0.2943257E-009  0.1502280E+03  0.7561462E-02  0.1200193E+00
          1   -1    0    0  501    0  0.00000000000E+00  0.00000000000E+00  0.17401571347E+03  0.17401571347E+03  0.00000000000E+00 0. -1.
         -1   -1    0    0    0  501 -0.00000000000E+00 -0.00000000000E+00 -0.21808672126E+03  0.21808672126E+03  0.00000000000E+00 0.  1.
         25    2    1    2    0    0  0.26756374136E+02 -0.12025726246E+03 -0.12933990597E+03  0.21806883575E+03  0.12508994011E+03 0.  0.
          5    1    3    3  502    0  0.75628247720E+02 -0.54121489204E+02 -0.72948749785E+02  0.11826986067E+03  0.41800000000E+01 0. -1.
         -5    1    3    3    0  502 -0.48871873583E+02 -0.66135773261E+02 -0.56391156183E+02  0.99798975085E+02  0.41800000000E+01 0. -1.
        -11    1    1    2    0    0 -0.29190429768E+01  0.62125546003E+02 -0.68053459037E+01  0.62565301973E+02  0.00000000000E+00 0.  1.
         11    1    1    2    0    0 -0.23837331159E+02  0.58131716462E+02  0.92074244083E+02  0.11146829701E+03  0.00000000000E+00 0. -1.
</event>
<event>
 7    1  0.2943257E-009  0.8837434E+02  0.7561462E-02  0.1306837E+00
          1   -1    0    0  501    0  0.00000000000E+00  0.00000000000E+00  0.45380445543E+02  0.45380445543E+02  0.00000000000E+00 0. -1.
         -1   -1    0    0    0  501 -0.00000000000E+00 -0.00000000000E+00 -0.28286990835E+03  0.28286990835E+03  0.00000000000E+00 0.  1.
         25    2    1    2    0    0 -0.48582474148E+01  0.27768799197E+02 -0.10808001311E+03  0.16769607784E+03  0.12508387792E+03 0.  0.
          5    1    3    3  502    0  0.21172861824E+02  0.67556976671E+02 -0.94345857074E+02  0.11802901475E+03  0.41800000000E+01 0.  1.
         -5    1    3    3    0  502 -0.26031109238E+02 -0.39788177475E+02 -0.13734156034E+02  0.49667063099E+02  0.41800000000E+01 0.  1.
        -11    1    1    2    0    0  0.27029636344E+02 -0.22834988027E+02 -0.13293941574E+03  0.13756789660E+03  0.00000000000E+00 0.  1.
         11    1    1    2    0    0 -0.22171388929E+02 -0.49338111696E+01  0.35299660396E+01  0.22986379444E+02  0.00000000000E+00 0. -1.
</event>
<event>
 7    1  0.2943257E-009  0.1154494E+03  0.7561462E-02  0.1250799E+00
         -2   -1    0    0    0  501 -0.00000000000E+00  0.00000000000E+00  0.63276587534E+02  0.63276587534E+02  0.00000000000E+00 0.  1.
          2   -1    0    0  501    0  0.00000000000E+00 -0.00000000000E+00 -0.24072054175E+03  0.24072054175E+03  0.00000000000E+00 0. -1.
         25    2    1    2    0    0 -0.39867061087E+02 -0.14715824355E+02 -0.49218175417E+02  0.14096783352E+03  0.12507423096E+03 0.  0.
          5    1    3    3  502    0 -0.83319258943E+02  0.56389788428E+01 -0.35898225674E+02  0.90994791058E+02  0.41800000000E+01 0. -1.
         -5    1    3    3    0  502  0.43452197856E+02 -0.20354803198E+02 -0.13319949743E+02  0.49973042462E+02  0.41800000000E+01 0. -1.
        -11    1    1    2    0    0 -0.25279972670E+02  0.22070054600E+02 -0.30489015882E+02  0.45340317795E+02  0.00000000000E+00 0. -1.
         11    1    1    2    0    0  0.65147033757E+02 -0.73542302450E+01 -0.97736762917E+02  0.11768897797E+03  0.00000000000E+00 0.  1.
</event>
<event>
 7    1  0.2943257E-009  0.7484845E+02  0.7561462E-02  0.1344341E+00
         -1   -1    0    0    0  501 -0.00000000000E+00  0.00000000000E+00  0.50405178563E+02  0.50405178563E+02  0.00000000000E+00 0.  1.
          1   -1    0    0  501    0  0.00000000000E+00 -0.00000000000E+00 -0.23970616671E+03  0.23970616671E+03  0.00000000000E+00 0. -1.
         25    2    1    2    0    0 -0.41262004557E+01  0.19932503801E+02 -0.11107470917E+03  0.16852223429E+03  0.12509125546E+03 0.  0.
          5    1    3    3  502    0  0.31422088406E+02 -0.21649629178E+02  0.63536271728E+01  0.38908804422E+02  0.41800000000E+01 0. -1.
         -5    1    3    3    0  502 -0.35548288861E+02  0.41582132979E+02 -0.11742833635E+03  0.12961342986E+03  0.41800000000E+01 0. -1.
        -11    1    1    2    0    0 -0.20735389600E+02  0.48992622018E+01 -0.83393889522E+02  0.86072643515E+02  0.00000000000E+00 0. -1.
         11    1    1    2    0    0  0.24861590056E+02 -0.24831766003E+02  0.51676105479E+01  0.35516467472E+02  0.00000000000E+00 0.  1.
</event>
<event>
 7    1  0.2943257E-009  0.8640636E+02  0.7561462E-02  0.1311795E+00
         -3   -1    0    0    0  501 -0.00000000000E+00  0.00000000000E+00  0.45210129524E+02  0.45210129524E+02  0.00000000000E+00 0.  1.
          3   -1    0    0  501    0  0.00000000000E+00 -0.00000000000E+00 -0.29796181373E+03  0.29796181373E+03  0.00000000000E+00 0. -1.
         25    2    1    2    0    0  0.14717547624E+02  0.42150635330E+02 -0.14961231853E+03  0.20006008004E+03  0.12508759931E+03 0.  0.
          5    1    3    3  502    0  0.13080844830E+02  0.64036464968E+02 -0.19916070977E+02  0.68453631242E+02  0.41800000000E+01 0.  1.
         -5    1    3    3    0  502  0.16367027942E+01 -0.21885829638E+02 -0.12969624756E+03  0.13160644880E+03  0.41800000000E+01 0.  1.
        -11    1    1    2    0    0  0.29393215216E+02 -0.13235417209E+02 -0.63068899889E+01  0.32846829843E+02  0.00000000000E+00 0.  1.
         11    1    1    2    0    0 -0.44110762840E+02 -0.28915218121E+02 -0.96832475684E+02  0.11026503337E+03  0.00000000000E+00 0. -1.
</event>
<event>
 7    1  0.2943257E-009  0.1145563E+03  0.7561462E-02  0.1252358E+00
         -2   -1    0    0    0  501 -0.00000000000E+00  0.00000000000E+00  0.27566292381E+02  0.27566292381E+02  0.00000000000E+00 0. -1.
          2   -1    0    0  501    0  0.00000000000E+00 -0.00000000000E+00 -0.52555937887E+03  0.52555937887E+03  0.00000000000E+00 0.  1.
         25    2    1    2    0    0 -0.47181116188E+01 -0.45418550037E+02 -0.34255196701E+03  0.36752703730E+03  0.12509663376E+03 0.  0.
          5    1    3    3  502    0 -0.22714996513E+02 -0.82850099544E+02 -0.27482486657E+03  0.28796925139E+03  0.41800000000E+01 0.  1.
         -5    1    3    3    0  502  0.17996884894E+02  0.37431549507E+02 -0.67727100445E+02  0.79557785912E+02  0.41800000000E+01 0.  1.
        -11    1    1    2    0    0 -0.27198255565E+02 -0.16420514160E+02 -0.45939470077E+02  0.55855288935E+02  0.00000000000E+00 0. -1.
         11    1    1    2    0    0  0.31916367184E+02  0.61839064197E+02 -0.10950164939E+03  0.12974334501E+03  0.00000000000E+00 0.  1.
</event>
<event>
 7    1  0.2943257E-009  0.1285947E+03  0.7561462E-02  0.1229556E+00
          2   -1    0    0  501    0  0.00000000000E+00  0.00000000000E+00  0.21884921767E+03  0.21884921767E+03  0.00000000000E+00 0.  1.
         -2   -1    0    0    0  501 -0.00000000000E+00 -0.00000000000E+00 -0.81816967990E+02  0.81816967990E+02  0.00000000000E+00 0. -1.
         25    2    1    2    0    0 -0.75790489457E+02  0.16298091104E+02  0.89986164986E+02  0.17249702248E+03  0.12509151374E+03 0.  0.
          5    1    3    3  502    0 -0.35092849318E+02  0.66923149909E+02  0.73172886155E+02  0.10527088741E+03  0.41800000000E+01 0.  1.
         -5    1    3    3    0  502 -0.40697640139E+02 -0.50625058806E+02  0.16813278831E+02  0.67226135074E+02  0.41800000000E+01 0.  1.
        -11    1    1    2    0    0  0.31457919000E+02  0.36033193290E+02  0.59182895034E+01  0.48197695351E+02  0.00000000000E+00 0.  1.
         11    1    1    2    0    0  0.44332570457E+02 -0.52331284394E+02  0.41127795195E+02  0.79971467833E+02  0.00000000000E+00 0. -1.
</event>
<event>
 7    1  0.2943257E-009  0.1194715E+03  0.7561462E-02  0.1243972E+00
          2   -1    0    0  501    0  0.00000000000E+00  0.00000000000E+00  0.81132785138E+03  0.81132785138E+03  0.00000000000E+00 0. -1.
         -2   -1    0    0    0  501 -0.00000000000E+00 -0.00000000000E+00 -0.20326469864E+02  0.20326469864E+02  0.00000000000E+00 0.  1.
         25    2    1    2    0    0  0.58969412889E+02 -0.27701310714E+02  0.51058125570E+03  0.52970275965E+03  0.12508813147E+03 0.  0.
          5    1    3    3  502    0 -0.29256555676E+02 -0.24817781610E+02  0.28208537535E+03  0.28471301291E+03  0.41800000000E+01 0.  1.
         -5    1    3    3    0  502  0.88225968565E+02 -0.28835291035E+01  0.22849588035E+03  0.24498974674E+03  0.41800000000E+01 0.  1.
        -11    1    1    2    0    0  0.24752292033E+02  0.53257140649E+01  0.63281630411E+02  0.68158667377E+02  0.00000000000E+00 0.  1.
         11    1    1    2    0    0 -0.83721704922E+02  0.22375596649E+02  0.21713849540E+03  0.23379289422E+03  0.00000000000E+00 0. -1.
</event>
<event>
 7    1  0.2943257E-009  0.1246870E+03  0.7561462E-02  0.1235559E+00
         -3   -1    0    0    0  501 -0.00000000000E+00  0.00000000000E+00  0.10639666680E+03  0.10639666680E+03  0.00000000000E+00 0.  1.
          3   -1    0    0  501    0  0.00000000000E+00 -0.00000000000E+00 -0.20433022767E+03  0.20433022767E+03  0.00000000000E+00 0. -1.
         25    2    1    2    0    0  0.71840973626E+02 -0.21506414534E+02 -0.12048342788E+03  0.18917786554E+03  0.12509339335E+03 0.  0.
          5    1    3    3  502    0 -0.10045010899E+02  0.40688336432E+02 -0.44370630843E+02  0.61177350767E+02  0.41800000000E+01 0.  1.
         -5    1    3    3    0  502  0.81885984525E+02 -0.62194750966E+02 -0.76112797033E+02  0.12800051477E+03  0.41800000000E+01 0.  1.
        -11    1    1    2    0    0 -0.19074476502E+02  0.43252539742E+02 -0.19007576547E+02  0.50950032523E+02  0.00000000000E+00 0. -1.
         11    1    1    2    0    0 -0.52766497124E+02 -0.21746125208E+02  0.41557443550E+02  0.70598996414E+02  0.00000000000E+00 0.  1.
</event>
<event>
 7    1  0.2943257E-009  0.1052781E+03  0.7561462E-02  0.1269573E+00
         -2   -1    0    0    0  501 -0.00000000000E+00  0.00000000000E+00  0.29757988190E+03  0.29757988190E+03  0.00000000000E+00 0.  1.
          2   -1    0    0  501    0  0.00000000000E+00 -0.00000000000E+00 -0.62080294956E+02  0.62080294956E+02  0.00000000000E+00 0. -1.
         25    2    1    2    0    0 -0.77577593926E+02  0.26715179413E+02  0.12388676983E+03  0.19423790453E+03  0.12509375654E+03 0.  0.
          5    1    3    3  502    0 -0.76212448618E+02  0.16836693514E+02  0.88129537829E+01  0.78657181028E+02  0.41800000000E+01 0.  1.
         -5    1    3    3    0  502 -0.13651453081E+01  0.98784858982E+01  0.11507381604E+03  0.11558072350E+03  0.41800000000E+01 0.  1.
        -11    1    1    2    0    0  0.66184720808E+02  0.23390702507E+02  0.56881865306E+02  0.90349813685E+02  0.00000000000E+00 0. -1.
         11    1    1    2    0    0  0.11392873119E+02 -0.50105881920E+02  0.54730951810E+02  0.75072458645E+02  0.00000000000E+00 0.  1.
</event>
<event>
 7    1  0.2943257E-009  0.8805749E+02  0.7561462E-02  0.1307625E+00
          1   -1    0    0  501    0  0.00000000000E+00  0.00000000000E+00  0.12774328794E+03  0.12774328794E+03  0.00000000000E+00 0. -1.
         -1   -1    0    0    0  501 -0.00000000000E+00 -0.00000000000E+00 -0.12561604684E+03  0.12561604684E+03  0.00000000000E+00 0.  1.
         25    2    1    2    0    0  0.21152902681E+02 -0.79753368242E+01 -0.60461835346E+02  0.14076462822E+03  0.12509194912E+03 0.  0.
          5    1    3    3  502    0 -0.50958416867E+02 -0.10710762161E+02 -0.39532125013E+02  0.65511388199E+02  0.41800000000E+01 0. -1.
         -5    1    3    3    0  502  0.72111319549E+02  0.27354253368E+01 -0.20929710333E+02  0.75253240019E+02  0.41800000000E+01 0. -1.
        -11    1    1    2    0    0 -0.66832765988E+01 -0.19459219043E+02  0.76049323824E+02  0.78783418597E+02  0.00000000000E+00 0. -1.
         11    1    1    2    0    0 -0.14469626083E+02  0.27434555867E+02 -0.13460247373E+02  0.33811287966E+02  0.00000000000E+00 0.  1.
</event>
<event>
 7    1  0.2943257E-009  0.6879339E+02  0.7561462E-02  0.1364245E+00
          1   -1    0    0  501    0  0.00000000000E+00  0.00000000000E+00  0.67823401273E+02  0.67823401273E+02  0.00000000000E+00 0. -1.
         -1   -1    0    0    0  501 -0.00000000000E+00 -0.00000000000E+00 -0.17417541137E+03  0.17417541137E+03  0.00000000000E+00 0.  1.
         25    2    1    2    0    0 -0.42011389301E+01  0.58467998960E+01 -0.56153201283E+02  0.13730830667E+03  0.12509418224E+03 0.  0.
          5    1    3    3  502    0 -0.18952282352E+02 -0.22355186637E+02 -0.87541875928E+02  0.92412097785E+02  0.41800000000E+01 0.  1.
         -5    1    3    3    0  502  0.14751143422E+02  0.28201986533E+02  0.31388674645E+02  0.44896208890E+02  0.41800000000E+01 0.  1.
        -11    1    1    2    0    0  0.39750217943E+02  0.59297330556E+00 -0.55402570728E+02  0.68190001372E+02  0.00000000000E+00 0.  1.
         11    1    1    2    0    0 -0.35549079013E+02 -0.64397732016E+01  0.52037619176E+01  0.36500504594E+02  0.00000000000E+00 0. -1.
</event>
<event>
 7    1  0.2943257E-009  0.1363548E+03  0.7561462E-02  0.1218320E+00
          3   -1    0    0  501    0  0.00000000000E+00  0.00000000000E+00  0.91248822354E+02  0.91248822354E+02  0.00000000000E+00 0. -1.
         -3   -1    0    0    0  501 -0.00000000000E+00 -0.00000000000E+00 -0.31673902520E+03  0.31673902520E+03  0.00000000000E+00 0.  1.
         25    2    1    2    0    0  0.11955928213E+03  0.22852364716E+02 -0.62202010660E+02  0.18529476528E+03  0.12509359453E+03 0.  0.
          5    1    3    3  502    0  0.58986006628E+02  0.25282073834E+02 -0.96160210458E+02  0.11568401234E+03  0.41800000000E+01 0.  1.
         -5    1    3    3    0  502  0.60573275503E+02 -0.24297091186E+01  0.33958199798E+02  0.69610752942E+02  0.41800000000E+01 0.  1.
        -11    1    1    2    0    0 -0.87910480895E+02 -0.54045424147E+02 -0.13535356286E+03  0.17020501608E+03  0.00000000000E+00 0.  1.
         11    1    1    2    0    0 -0.31648801237E+02  0.31193059431E+02 -0.27934629326E+02  0.52488066186E+02  0.00000000000E+00 0. -1.
</event>
<event>
 7    1  0.2943257E-009  0.1089240E+03  0.7561462E-02  0.1262575E+00
          2   -1    0    0  501    0  0.00000000000E+00  0.00000000000E+00  0.61207962389E+03  0.61207962389E+03  0.00000000000E+00 0. -1.
         -2   -1    0    0    0  501 -0.00000000000E+00 -0.00000000000E+00 -0.23616705627E+02  0.23616705627E+02  0.00000000000E+00 0.  1.
         25    2    1    2    0    0 -0.37266856649E+02 -0.27502409859E+02  0.27670432924E+03  0.30717692800E+03  0.12508868103E+03 0.  0.
          5    1    3    3  502    0 -0.35024909659E+02 -0.67945823393E+02  0.24151514525E+03  0.25335827794E+03  0.41800000000E+01 0. -1.
         -5    1    3    3    0  502 -0.22419469906E+01  0.40443413534E+02  0.35189183990E+02  0.53818650062E+02  0.41800000000E+01 0. -1.
        -11    1    1    2    0    0 -0.97236541036E+01  0.48238601905E+02  0.11335593201E+03  0.12357620922E+03  0.00000000000E+00 0.  1.
         11    1    1    2    0    0  0.46990510753E+02 -0.20736192046E+02  0.19840265702E+03  0.20494319231E+03  0.00000000000E+00 0. -1.
</event>
<event>
 7    1  0.2943257E-009  0.1390773E+03  0.7561462E-02  0.1214576E+00
         -2   -1    0    0    0  501 -0.00000000000E+00  0.00000000000E+00  0.17605821522E+03  0.17605821522E+03  0.00000000000E+00 0.  1.
          2   -1    0    0  501    0  0.00000000000E+00 -0.00000000000E+00 -0.12547980208E+03  0.12547980208E+03  0.00000000000E+00 0. -1.
         25    2    1    2    0    0 -0.69237820092E+02  0.74478794445E+02  0.23931082566E+02  0.16297610670E+03  0.12509015985E+03 0.  0.
          5    1    3    3  502    0 -0.34329591734E+02  0.10457647207E+03  0.34654002696E+02  0.11546918066E+03  0.41800000000E+01 0.  1.
         -5    1    3    3    0  502 -0.34908228358E+02 -0.30097677629E+02 -0.10722920129E+02  0.47506926040E+02  0.41800000000E+01 0.  1.
        -11    1    1    2    0    0 -0.75403078709E+01 -0.34207121283E+02 -0.19766911955E+02  0.40220817962E+02  0.00000000000E+00 0. -1.
         11    1    1    2    0    0  0.76778127963E+02 -0.40271673161E+02  0.46414242523E+02  0.98341092640E+02  0.00000000000E+00 0.  1.
</event>
<event>
 7    1  0.2943257E-009  0.1828243E+03  0.7561462E-02  0.1165097E+00
         -1   -1    0    0    0  501 -0.00000000000E+00  0.00000000000E+00  0.51210778323E+02  0.51210778323E+02  0.00000000000E+00 0.  1.
          1   -1    0    0  501    0  0.00000000000E+00 -0.00000000000E+00 -0.79510225843E+03  0.79510225843E+03  0.00000000000E+00 0. -1.
         25    2    1    2    0    0 -0.58113969527E+02  0.16185666070E+03 -0.37262691255E+03  0.42903817246E+03  0.12509246740E+03 0.  0.
          5    1    3    3  502    0 -0.66702598473E+02  0.60358977315E+02 -0.84826344426E+02  0.12371509162E+03  0.41800000000E+01 0.  1.
         -5    1    3    3    0  502  0.85886289461E+01  0.10149768339E+03 -0.28780056813E+03  0.30532308084E+03  0.41800000000E+01 0.  1.
        -11    1    1    2    0    0  0.37676473422E+02 -0.69488994248E+02 -0.86355597812E+02  0.11707060367E+03  0.00000000000E+00 0. -1.
         11    1    1    2    0    0  0.20437496105E+02 -0.92367666456E+02 -0.28490896974E+03  0.30020426062E+03  0.00000000000E+00 0.  1.
</event>
<event>
 7    1  0.2943257E-009  0.1096141E+03  0.7561462E-02  0.1261286E+00
          1   -1    0    0  501    0  0.00000000000E+00  0.00000000000E+00  0.10508488471E+03  0.10508488471E+03  0.00000000000E+00 0. -1.
         -1   -1    0    0    0  501 -0.00000000000E+00 -0.00000000000E+00 -0.14805003574E+03  0.14805003574E+03  0.00000000000E+00 0.  1.
         25    2    1    2    0    0 -0.28407996679E+02 -0.53522580627E+02 -0.37131132230E+02  0.14385650570E+03  0.12507714555E+03 0.  0.
          5    1    3    3  502    0  0.92730784596E+01  0.35538561705E+02  0.67547937789E+01  0.37577639510E+02  0.41800000000E+01 0.  1.
         -5    1    3    3    0  502 -0.37681075139E+02 -0.89061142332E+02 -0.43885926009E+02  0.10627886619E+03  0.41800000000E+01 0.  1.
        -11    1    1    2    0    0  0.46134339972E+02  0.26659546639E+02  0.29971308000E+02  0.61134180741E+02  0.00000000000E+00 0. -1.
         11    1    1    2    0    0 -0.17726343293E+02  0.26863033988E+02 -0.35805326799E+02  0.48144234014E+02  0.00000000000E+00 0.  1.
</event>
<event>
 7    1  0.2943257E-009  0.6851247E+02  0.7561462E-02  0.1365226E+00
         -2   -1    0    0    0  501 -0.00000000000E+00  0.00000000000E+00  0.28072275947E+02  0.28072275947E+02  0.00000000000E+00 0.  1.
          2   -1    0    0  501    0  0.00000000000E+00 -0.00000000000E+00 -0.49288758994E+03  0.49288758994E+03  0.00000000000E+00 0. -1.
         25    2    1    2    0    0 -0.29658081678E+02  0.32542503755E+02 -0.28098273743E+03  0.31070635580E+03  0.12509406239E+03 0.  0.
          5    1    3    3  502    0  0.19676877627E+02  0.24199437685E+02 -0.24942624386E+03  0.25140349207E+03  0.41800000000E+01 0. -1.
         -5    1    3    3    0  502 -0.49334959305E+02  0.83430660700E+01 -0.31556493563E+02  0.59302863734E+02  0.41800000000E+01 0. -1.
        -11    1    1    2    0    0  0.21234793896E+02 -0.39218758612E+02 -0.19177282594E+03  0.19689043722E+03  0.00000000000E+00 0. -1.
         11    1    1    2    0    0  0.84232877817E+01  0.66762548571E+01  0.79402493807E+01  0.13363072858E+02  0.00000000000E+00 0.  1.
</event>
<event>
 7    1  0.2943257E-009  0.1759684E+03  0.7561462E-02  0.1171763E+00
          1   -1    0    0  501    0  0.00000000000E+00  0.00000000000E+00  0.57437489818E+02  0.57437489818E+02  0.00000000000E+00 0.  1.
         -1   -1    0    0    0  501 -0.00000000000E+00 -0.00000000000E+00 -0.88247246128E+03  0.88247246128E+03  0.00000000000E+00 0. -1.
         25    2    1    2    0    0 -0.15091466986E+03  0.63033181809E+02 -0.19740919279E+03  0.28524873739E+03  0.12509209885E+03 0.  0.
          5    1    3    3  502    0 -0.10513346491E+03  0.24612438898E+02 -0.37327076704E+02  0.11432235410E+03  0.41800000000E+01 0.  1.
         -5    1    3    3    0  502 -0.45781204950E+02  0.38420742911E+02 -0.16008211609E+03  0.17092638328E+03  0.41800000000E+01 0.  1.
        -11    1    1    2    0    0  0.14300209238E+03 -0.80990151062E+02 -0.52308013457E+03  0.54828991435E+03  0.00000000000E+00 0. -1.
         11    1    1    2    0    0  0.79125774796E+01  0.17956969252E+02 -0.10454564410E+03  0.10637129936E+03  0.00000000000E+00 0.  1.
</event>
<event>
 7    1  0.2943257E-009  0.9735106E+02  0.7561462E-02  0.1285967E+00
          2   -1    0    0  501    0  0.00000000000E+00  0.00000000000E+00  0.90151908966E+03  0.90151908966E+03  0.00000000000E+00 0. -1.
         -2   -1    0    0    0  501 -0.00000000000E+00 -0.00000000000E+00 -0.16907683393E+02  0.16907683393E+02  0.00000000000E+00 0.  1.
         25    2    1    2    0    0  0.20599458273E+02 -0.38195715830E+02  0.67289120401E+03  0.68579377908E+03  0.12508910661E+03 0.  0.
          5    1    3    3  502    0  0.59413438838E+02 -0.44467625477E+02  0.24365043823E+03  0.25473581389E+03  0.41800000000E+01 0. -1.
         -5    1    3    3    0  502 -0.38813980565E+02  0.62719096467E+01  0.42924076579E+03  0.43105796519E+03  0.41800000000E+01 0. -1.
        -11    1    1    2    0    0  0.24846212858E+02  0.73555935726E+01  0.18710637369E+02  0.31961336032E+02  0.00000000000E+00 0.  1.
         11    1    1    2    0    0 -0.45445671131E+02  0.30840122258E+02  0.19300956489E+03  0.20067165795E+03  0.00000000000E+00 0. -1.
</event>
<event>
 7    1  0.2943257E-009  0.1098504E+03  0.7561462E-02  0.1260847E+00
         -2   -1    0    0    0  501 -0.00000000000E+00  0.00000000000E+00  0.47027487960E+03  0.47027487960E+03  0.00000000000E+00 0.  1.
          2   -1    0    0  501    0  0.00000000000E+00 -0.00000000000E+00 -0.26730353036E+02  0.26730353036E+02  0.00000000000E+00 0. -1.
         25    2    1    2    0    0  0.97836290249E+00 -0.23123706689E+02  0.29239478985E+03  0.31886913978E+03  0.12508857726E+03 0.  0.
          5    1    3    3  502    0  0.40919990859E+02  0.36636730055E+02  0.11969852448E+03  0.13176458099E+03  0.41800000000E+01 0. -1.
         -5    1    3    3    0  502 -0.39941627957E+02 -0.59760436744E+02  0.17269626537E+03  0.18710455878E+03  0.41800000000E+01 0. -1.
        -11    1    1    2    0    0 -0.42923702663E+02 -0.32868297914E+01  0.86992742542E+02  0.97061757429E+02  0.00000000000E+00 0.  1.
         11    1    1    2    0    0  0.41945339760E+02  0.26410536480E+02  0.64156994168E+02  0.81074335430E+02  0.00000000000E+00 0. -1.
</event>
<event>
 7    1  0.2943257E-009  0.9359106E+02  0.7561462E-02  0.1294381E+00
          2   -1    0    0  501    0  0.00000000000E+00  0.00000000000E+00  0.29734505335E+02  0.29734505335E+02  0.00000000000E+00 0. -1.
         -2   -1    0    0    0  501 -0.00000000000E+00 -0.00000000000E+00 -0.69362645326E+03  0.69362645326E+03  0.00000000000E+00 0.  1.
         25    2    1    2    0    0 -0.42348100820E+01 -0.79665904352E+02 -0.49563896172E+03  0.51737291477E+03  0.12510860337E+03 0.  0.
          5    1    3    3  502    0 -0.17102558068E+01 -0.36638868039E+02 -0.24631887564E+02  0.44379431171E+02  0.41800000000E+01 0. -1.
         -5    1    3    3    0  502 -0.25245542751E+01 -0.43027036313E+02 -0.47100707415E+03  0.47299348360E+03  0.41800000000E+01 0. -1.
        -11    1    1    2    0    0  0.37047568594E+02  0.53085591149E+02 -0.14253122643E+03  0.15654313410E+03  0.00000000000E+00 0.  1.
         11    1    1    2    0    0 -0.32812758512E+02  0.26580313203E+02 -0.25721759774E+02  0.49444909718E+02  0.00000000000E+00 0. -1.
</event>
<event>
 7    1  0.2943257E-009  0.8287967E+02  0.7561462E-02  0.1321072E+00
         -1   -1    0    0    0  501 -0.00000000000E+00  0.00000000000E+00  0.18402999814E+03  0.18402999814E+03  0.00000000000E+00 0.  1.
          1   -1    0    0  501    0  0.00000000000E+00 -0.00000000000E+00 -0.68345889034E+02  0.68345889034E+02  0.00000000000E+00 0. -1.
         25    2    1    2    0    0  0.17783883101E+02  0.82928582980E+00  0.10407740538E+03  0.16369700053E+03  0.12509055704E+03 0.  0.
          5    1    3    3  502    0  0.18647107916E+02  0.43772979334E+02 -0.33957525773E+01  0.47883106509E+02  0.41800000000E+01 0. -1.
         -5    1    3    3    0  502 -0.86322481476E+00 -0.42943693504E+02  0.10747315795E+03  0.11581389403E+03  0.41800000000E+01 0. -1.
        -11    1    1    2    0    0  0.10716542711E+02  0.30595216429E+02 -0.17872890311E+02  0.37018262575E+02  0.00000000000E+00 0. -1.
         11    1    1    2    0    0 -0.28500425812E+02 -0.31424502259E+02  0.29479594039E+02  0.51660624061E+02  0.00000000000E+00 0.  1.
</event>
<event>
 7    1  0.2943257E-009  0.8951695E+02  0.7561462E-02  0.1304026E+00
         -1   -1    0    0    0  501 -0.00000000000E+00  0.00000000000E+00  0.25208438119E+03  0.25208438119E+03  0.00000000000E+00 0. -1.
          1   -1    0    0  501    0  0.00000000000E+00 -0.00000000000E+00 -0.49242966461E+02  0.49242966461E+02  0.00000000000E+00 0.  1.
         25    2    1    2    0    0  0.49851816307E+00 -0.17686737752E+01  0.81466442080E+02  0.14929829582E+03  0.12509925348E+03 0.  0.
          5    1    3    3  502    0  0.38825308118E+02  0.48095953743E+02  0.36987653810E+02  0.72153892836E+02  0.41800000000E+01 0. -1.
         -5    1    3    3    0  502 -0.38326789955E+02 -0.49864627519E+02  0.44478788271E+02  0.77144402985E+02  0.41800000000E+01 0. -1.
        -11    1    1    2    0    0 -0.24308114830E+02 -0.11392730081E+02 -0.80438617870E+00  0.26857508865E+02  0.00000000000E+00 0.  1.
         11    1    1    2    0    0  0.23809596667E+02  0.13161403856E+02  0.12217935882E+03  0.12517154296E+03  0.00000000000E+00 0. -1.
</event>
<event>
 7    1  0.2943257E-009  0.9613940E+02  0.7561462E-02  0.1288630E+00
          2   -1    0    0  501    0  0.00000000000E+00  0.00000000000E+00  0.15304236572E+03  0.15304236572E+03  0.00000000000E+00 0. -1.
         -2   -1    0    0    0  501 -0.00000000000E+00 -0.00000000000E+00 -0.11236821747E+03  0.11236821747E+03  0.00000000000E+00 0.  1.
         25    2    1    2    0    0  0.65157328222E+02 -0.25889885011E+02  0.29181942157E+01  0.14342816626E+03  0.12508940583E+03 0.  0.
          5    1    3    3  502    0  0.46694400695E+02  0.14779996111E+02 -0.52638367533E+02  0.72021423742E+02  0.41800000000E+01 0.  1.
         -5    1    3    3    0  502  0.18462927527E+02 -0.40669881122E+02  0.55556561749E+02  0.71406742516E+02  0.41800000000E+01 0.  1.
        -11    1    1    2    0    0 -0.41944109651E+02  0.49684015090E+02 -0.79077110205E+01  0.65500699107E+02  0.00000000000E+00 0.  1.
         11    1    1    2    0    0 -0.23213218572E+02 -0.23794130079E+02  0.45663665057E+02  0.56481717831E+02  0.00000000000E+00 0. -1.
</event>
<event>
 7    1  0.2943257E-009  0.1065522E+03  0.7561462E-02  0.1267091E+00
          2   -1    0    0  501    0  0.00000000000E+00  0.00000000000E+00  0.93000119017E+02  0.93000119017E+02  0.00000000000E+00 0.  1.
         -2   -1    0    0    0  501 -0.00000000000E+00 -0.00000000000E+00 -0.14425799035E+03  0.14425799035E+03  0.00000000000E+00 0. -1.
         25    2    1    2    0    0  0.28745308204E+02  0.20315311982E+02 -0.50520091992E+02  0.13942400531E+03  0.12509104251E+03 0.  0.
          5    1    3    3  502    0 -0.30400879627E+02 -0.26964029494E+02  0.10395542722E+02  0.42152248779E+02  0.41800000000E+01 0. -1.
         -5    1    3    3    0  502  0.59146187831E+02  0.47279341476E+02 -0.60915634714E+02  0.97271756528E+02  0.41800000000E+01 0. -1.
        -11    1    1    2    0    0 -0.51477608214E+01 -0.54575473056E+02  0.77901881311E+01  0.55368481394E+02  0.00000000000E+00 0.  1.
         11    1    1    2    0    0 -0.23597547383E+02  0.34260161074E+02 -0.85279674729E+01  0.42465622667E+02  0.00000000000E+00 0. -1.
</event>
<event>
 7    1  0.2943257E-009  0.1790255E+03  0.7561462E-02  0.1168750E+00
          2   -1    0    0  501    0  0.00000000000E+00  0.00000000000E+00  0.98860697399E+03  0.98860697399E+03  0.00000000000E+00 0. -1.
         -2   -1    0    0    0  501 -0.00000000000E+00 -0.00000000000E+00 -0.38391619219E+02  0.38391619219E+02  0.00000000000E+00 0.  1.
         25    2    1    2    0    0  0.12911245780E+03 -0.76815656306E+02  0.66290516893E+03  0.69113089095E+03  0.12509186075E+03 0.  0.
          5    1    3    3  502    0 -0.18210171614E+02  0.17511225956E+01  0.16272173892E+03  0.16380022435E+03  0.41800000000E+01 0.  1.
         -5    1    3    3    0  502  0.14732262941E+03 -0.78566778901E+02  0.50018343000E+03  0.52733066660E+03  0.41800000000E+01 0.  1.
        -11    1    1    2    0    0 -0.13398460161E+03  0.46893791635E+02  0.21707808660E+03  0.25937192764E+03  0.00000000000E+00 0. -1.
         11    1    1    2    0    0  0.48721438152E+01  0.29921864671E+02  0.70232099245E+02  0.76495774623E+02  0.00000000000E+00 0.  1.
</event>
<event>
 7    1  0.2943257E-009  0.1175490E+03  0.7561462E-02  0.1247196E+00
          2   -1    0    0  501    0  0.00000000000E+00  0.00000000000E+00  0.71366638289E+02  0.71366638289E+02  0.00000000000E+00 0. -1.
         -2   -1    0    0    0  501 -0.00000000000E+00 -0.00000000000E+00 -0.19493143732E+03  0.19493143732E+03  0.00000000000E+00 0.  1.
         25    2    1    2    0    0  0.43276517735E+02 -0.78344685682E+01 -0.71409640967E+02  0.15060072536E+03  0.12508799212E+03 0.  0.
          5    1    3    3  502    0 -0.41149315651E+01  0.53729495509E+02 -0.21522365241E+02  0.58176249063E+02  0.41800000000E+01 0.  1.
         -5    1    3    3    0  502  0.47391449300E+02 -0.61563964078E+02 -0.49887275726E+02  0.92424476299E+02  0.41800000000E+01 0.  1.
        -11    1    1    2    0    0  0.23822227751E+02 -0.19506416647E+02 -0.14281953828E+02  0.33940728197E+02  0.00000000000E+00 0.  1.
         11    1    1    2    0    0 -0.67098745486E+02  0.27340885215E+02 -0.37873204239E+02  0.81756622053E+02  0.00000000000E+00 0. -1.
</event>
<event>
 7    1  0.2943257E-009  0.8161336E+02  0.7561462E-02  0.1324534E+00
         -3   -1    0    0    0  501 -0.00000000000E+00  0.00000000000E+00  0.62603426379E+02  0.62603426379E+02  0.00000000000E+00 0.  1.
          3   -1    0    0  501    0  0.00000000000E+00 -0.00000000000E+00 -0.25708342389E+03  0.25708342389E+03  0.00000000000E+00 0. -1.
         25    2    1    2    0    0 -0.56047839097E+02  0.20249724831E+02 -0.17042075762E+03  0.21964559463E+03  0.12509812544E+03 0.  0.
          5    1    3    3  502    0 -0.53280180597E+02  0.89917873366E+01 -0.18940840099E+03  0.19700925016E+03  0.41800000000E+01 0.  1.
         -5    1    3    3    0  502 -0.27676585009E+01  0.11257937495E+02  0.18987643366E+02  0.22636344467E+02  0.41800000000E+01 0.  1.
        -11    1    1    2    0    0  0.69422563495E+02  0.34353446036E+01 -0.13181446519E+02  0.70746338754E+02  0.00000000000E+00 0.  1.
         11    1    1    2    0    0 -0.13374724397E+02 -0.23685069435E+02 -0.10877793369E+02  0.29294916887E+02  0.00000000000E+00 0. -1.
</event>
<event>
 7    1  0.2943257E-009  0.1785073E+03  0.7561462E-02  0.1169256E+00
          2   -1    0    0  501    0  0.00000000000E+00  0.00000000000E+00  0.27895121821E+03  0.27895121821E+03  0.00000000000E+00 0. -1.
         -2   -1    0    0    0  501 -0.00000000000E+00 -0.00000000000E+00 -0.15551522317E+03  0.15551522317E+03  0.00000000000E+00 0.  1.
         25    2    1    2    0    0 -0.16285859947E+03 -0.24010704326E+02  0.71338319380E+00  0.20675466392E+03  0.12509014667E+03 0.  0.
          5    1    3    3  502    0 -0.33048535631E+01  0.16123189513E+02 -0.34500016052E+02  0.38452604654E+02  0.41800000000E+01 0. -1.
         -5    1    3    3    0  502 -0.15955374591E+03 -0.40133893839E+02  0.35213399245E+02  0.16830205927E+03  0.41800000000E+01 0. -1.
        -11    1    1    2    0    0  0.41998446580E+02 -0.20405650517E+02  0.78926391882E+02  0.91704064379E+02  0.00000000000E+00 0. -1.
         11    1    1    2    0    0  0.12086015289E+03  0.44416354843E+02  0.43796219959E+02  0.13600771308E+03  0.00000000000E+00 0.  1.
</event>
<event>
 7    1  0.2943257E-009  0.1185790E+03  0.7561462E-02  0.1245460E+00
         -2   -1    0    0    0  501 -0.00000000000E+00  0.00000000000E+00  0.16421626140E+02  0.16421626140E+02  0.00000000000E+00 0.  1.
          2   -1    0    0  501    0  0.00000000000E+00 -0.00000000000E+00 -0.12207295022E+04  0.12207295022E+04  0.00000000000E+00 0. -1.
         25    2    1    2    0    0 -0.51772477652E+02  0.36931194688E+02 -0.99399218676E+03  0.10038488907E+04  0.12509126853E+03 0.  0.
          5    1    3    3  502    0  0.30938795964E+02  0.43016722355E+02 -0.27606720845E+03  0.28113737474E+03  0.41800000000E+01 0.  1.
         -5    1    3    3    0  502 -0.82711273615E+02 -0.60855276676E+01 -0.71792497831E+03  0.72271151597E+03  0.41800000000E+01 0.  1.
        -11    1    1    2    0    0  0.11073546435E+02  0.24723277772E+02 -0.58249092967E+02  0.64240335662E+02  0.00000000000E+00 0.  1.
         11    1    1    2    0    0  0.40698931216E+02 -0.61654472460E+02 -0.15206659636E+03  0.16906190199E+03  0.00000000000E+00 0. -1.
</event>
<event>
 7    1  0.2943257E-009  0.1756218E+03  0.7561462E-02  0.1172109E+00
         -2   -1    0    0    0  501 -0.00000000000E+00  0.00000000000E+00  0.54729365939E+03  0.54729365939E+03  0.00000000000E+00 0.  1.
          2   -1    0    0  501    0  0.00000000000E+00 -0.00000000000E+00 -0.91893487357E+02  0.91893487357E+02  0.00000000000E+00 0. -1.
         25    2    1    2    0    0 -0.16727659714E+03 -0.27342185282E+02  0.37636078523E+03  0.43130459673E+03  0.12508860643E+03 0.  0.
          5    1    3    3  502    0 -0.87564964864E+01  0.10032827752E+02 -0.63689859352E+01  0.15341781033E+02  0.41800000000E+01 0. -1.
         -5    1    3    3    0  502 -0.15852010065E+03 -0.37375013033E+02  0.38272977116E+03  0.41596281570E+03  0.41800000000E+01 0. -1.
        -11    1    1    2    0    0  0.87795281224E+02 -0.63799780281E+01 -0.39640071650E+01  0.88115996718E+02  0.00000000000E+00 0. -1.
         11    1    1    2    0    0  0.79481315915E+02  0.33722163310E+02  0.83003393969E+02  0.11976655329E+03  0.00000000000E+00 0.  1.
</event>
<event>
 7    1  0.2943257E-009  0.8883803E+02  0.7561462E-02  0.1305690E+00
          1   -1    0    0  501    0  0.00000000000E+00  0.00000000000E+00  0.20526570713E+03  0.20526570713E+03  0.00000000000E+00 0. -1.
         -1   -1    0    0    0  501 -0.00000000000E+00 -0.00000000000E+00 -0.69441282365E+02  0.69441282365E+02  0.00000000000E+00 0.  1.
         25    2    1    2    0    0 -0.49420416401E+01  0.22050842383E+02  0.12934531134E+03  0.18135412663E+03  0.12509374986E+03 0.  0.
          5    1    3    3  502    0  0.42985528745E+02  0.66909955865E+00  0.16423746906E+01  0.43224682420E+02  0.41800000000E+01 0.  1.
         -5    1    3    3    0  502 -0.47927570385E+02  0.21381742824E+02  0.12770293665E+03  0.13812944421E+03  0.41800000000E+01 0.  1.
        -11    1    1    2    0    0 -0.18186568627E+02 -0.45438642645E+02 -0.18214632808E+02  0.52222546589E+02  0.00000000000E+00 0.  1.
         11    1    1    2    0    0  0.23128610267E+02  0.23387800263E+02  0.24693746238E+02  0.41130316279E+02  0.00000000000E+00 0. -1.
</event>
<event>
 7    1  0.2943257E-009  0.2661533E+03  0.7561462E-02  0.1103502E+00
         -3   -1    0    0    0  501 -0.00000000000E+00  0.00000000000E+00  0.24240945249E+03  0.24240945249E+03  0.00000000000E+00 0.  1.
          3   -1    0    0  501    0  0.00000000000E+00 -0.00000000000E+00 -0.31380970477E+03  0.31380970477E+03  0.00000000000E+00 0. -1.
         25    2    1    2    0    0 -0.64265519959E+02 -0.24475213007E+03 -0.33618029894E+02  0.28427365570E+03  0.12509067575E+03 0.  0.
          5    1    3    3  502    0 -0.94621445153E+02 -0.20697644446E+03 -0.46610748540E+01  0.22766568574E+03  0.41800000000E+01 0.  1.
         -5    1    3    3    0  502  0.30355925195E+02 -0.37775685614E+02 -0.28956955040E+02  0.56607969962E+02  0.41800000000E+01 0.  1.
        -11    1    1    2    0    0  0.29910671791E+02  0.18258941998E+03  0.11685871362E+02  0.18539175862E+03  0.00000000000E+00 0.  1.
         11    1    1    2    0    0  0.34354848168E+02  0.62162710097E+02 -0.49468093750E+02  0.86553742949E+02  0.00000000000E+00 0. -1.
</event>
<event>
 7    1  0.2943257E-009  0.8854545E+02  0.7561462E-02  0.1306413E+00
         -2   -1    0    0    0  501 -0.00000000000E+00  0.00000000000E+00  0.45070114094E+02  0.45070114094E+02  0.00000000000E+00 0.  1.
          2   -1    0    0  501    0  0.00000000000E+00 -0.00000000000E+00 -0.45571039849E+03  0.45571039849E+03  0.00000000000E+00 0. -1.
         25    2    1    2    0    0  0.21807784106E+02 -0.53316272517E+02 -0.37366459693E+03  0.39823706760E+03  0.12509726875E+03 0.  0.
          5    1    3    3  502    0  0.29139990235E+02 -0.64688928460E+02 -0.37703831958E+03  0.38367846346E+03  0.41800000000E+01 0.  1.
         -5    1    3    3    0  502 -0.73322061296E+01  0.11372655943E+02  0.33737226466E+01  0.14558604137E+02  0.41800000000E+01 0.  1.
        -11    1    1    2    0    0  0.17509610017E+02 -0.78136765420E+01  0.32879437237E+01  0.19453805746E+02  0.00000000000E+00 0.  1.
         11    1    1    2    0    0 -0.39317394123E+02  0.61129949059E+02 -0.40263631194E+02  0.83089639243E+02  0.00000000000E+00 0. -1.
</event>
<event>
 7    1  0.2943257E-009  0.3077202E+03  0.7561462E-02  0.1081444E+00
          1   -1    0    0  501    0  0.00000000000E+00  0.00000000000E+00  0.48317065935E+03  0.48317065935E+03  0.00000000000E+00 0. -1.
         -1   -1    0    0    0  501 -0.00000000000E+00 -0.00000000000E+00 -0.22050661638E+03  0.22050661638E+03  0.00000000000E+00 0.  1.
         25    2    1    2    0    0  0.15804138099E+03 -0.25555711398E+03  0.20499215180E+03  0.38464970309E+03  0.12508834948E+03 0.  0.
          5    1    3    3  502    0  0.80019223529E+02 -0.17741016667E+03  0.19193244317E+03  0.27337333176E+03  0.41800000000E+01 0. -1.
         -5    1    3    3    0  502  0.78022157458E+02 -0.78146947307E+02  0.13059708630E+02  0.11127637133E+03  0.41800000000E+01 0. -1.
        -11    1    1    2    0    0 -0.32964784095E+02  0.12577807587E+03  0.80503356915E+00  0.13002864854E+03  0.00000000000E+00 0.  1.
         11    1    1    2    0    0 -0.12507659689E+03  0.12977903810E+03  0.56866857596E+02  0.18899892411E+03  0.00000000000E+00 0. -1.
</event>
<event>
 7    1  0.2943257E-009  0.9382383E+02  0.7561462E-02  0.1293847E+00
         -2   -1    0    0    0  501 -0.00000000000E+00  0.00000000000E+00  0.28651362910E+03  0.28651362910E+03  0.00000000000E+00 0.  1.
          2   -1    0    0  501    0  0.00000000000E+00 -0.00000000000E+00 -0.41611103180E+02  0.41611103180E+02  0.00000000000E+00 0. -1.
         25    2    1    2    0    0 -0.24496106857E+02  0.82549024643E+01  0.16037899660E+03  0.20502848682E+03  0.12508818966E+03 0.  0.
          5    1    3    3  502    0  0.38109984392E+02  0.31508210594E+02  0.28709729581E+02  0.57331136548E+02  0.41800000000E+01 0. -1.
         -5    1    3    3    0  502 -0.62606091249E+02 -0.23253308130E+02  0.13166926702E+03  0.14769735028E+03  0.41800000000E+01 0. -1.
        -11    1    1    2    0    0  0.49457494413E+01  0.28794440776E+02  0.74498045466E+02  0.80022115914E+02  0.00000000000E+00 0.  1.
         11    1    1    2    0    0  0.19550357416E+02 -0.37049343241E+02  0.10025483857E+02  0.43074129547E+02  0.00000000000E+00 0. -1.
</event>
<event>
 7    1  0.2943257E-009  0.1277780E+03  0.7561462E-02  0.1230790E+00
          2   -1    0    0  501    0  0.00000000000E+00  0.00000000000E+00  0.60880263402E+03  0.60880263402E+03  0.00000000000E+00 0. -1.
         -2   -1    0    0    0  501 -0.00000000000E+00 -0.00000000000E+00 -0.66485043687E+02  0.66485043687E+02  0.00000000000E+00 0.  1.
         25    2    1    2    0    0 -0.10238455571E+03  0.39402083701E+01  0.50503736696E+03  0.53028957536E+03  0.12508464819E+03 0.  0.
          5    1    3    3  502    0 -0.83846086187E+02 -0.41978765038E+02  0.19638945241E+03  0.21766642438E+03  0.41800000000E+01 0.  1.
         -5    1    3    3    0  502 -0.18538469524E+02  0.45918973408E+02  0.30864791455E+03  0.31262315098E+03  0.41800000000E+01 0.  1.
        -11    1    1    2    0    0  0.40262992540E+02 -0.23811122068E+02  0.59867930536E+02  0.75975306574E+02  0.00000000000E+00 0. -1.
         11    1    1    2    0    0  0.62121563172E+02  0.19870913698E+02 -0.22587707163E+02  0.69022795778E+02  0.00000000000E+00 0.  1.
</event>
<event>
 7    1  0.3025913E-009  0.9830590E+02  0.7561462E-02  0.1283899E+00
          1   -1    0    0  501    0  0.00000000000E+00  0.00000000000E+00  0.80368620634E+02  0.80368620634E+02  0.00000000000E+00 0. -1.
         -1   -1    0    0    0  501 -0.00000000000E+00 -0.00000000000E+00 -0.16376547455E+03  0.16376547455E+03  0.00000000000E+00 0.  1.
         25    2    1    2    0    0  0.47423768840E+01 -0.31340256962E+02 -0.69284291636E+02  0.14648075740E+03  0.12510634426E+03 0.  0.
          5    1    3    3  502    0 -0.57137140195E+02  0.15889283864E+01 -0.42395873139E+02  0.71288568103E+02  0.41800000000E+01 0.  1.
         -5    1    3    3    0  502  0.61879517079E+02 -0.32929185348E+02 -0.26888418497E+02  0.75192189294E+02  0.41800000000E+01 0.  1.
        -11    1    1    2    0    0  0.28260591513E+02  0.11085831067E+02  0.27393056488E+02  0.40889316782E+02  0.00000000000E+00 0. -1.
         11    1    1    2    0    0 -0.33002968397E+02  0.20254425895E+02 -0.41505618767E+02  0.56764021005E+02  0.00000000000E+00 0.  1.
</event>
<event>
 7    1  0.2943257E-009  0.1320051E+03  0.7561462E-02  0.1224510E+00
         -1   -1    0    0    0  501 -0.00000000000E+00  0.00000000000E+00  0.43316510559E+02  0.43316510559E+02  0.00000000000E+00 0.  1.
          1   -1    0    0  501    0  0.00000000000E+00 -0.00000000000E+00 -0.64454669692E+03  0.64454669692E+03  0.00000000000E+00 0. -1.
         25    2    1    2    0    0  0.32865833175E+02  0.69856047504E+02 -0.11404231623E+03  0.18604588164E+03  0.12508952722E+03 0.  0.
          5    1    3    3  502    0 -0.46114792544E+02  0.21624053511E+02 -0.22598524245E+02  0.55877897953E+02  0.41800000000E+01 0.  1.
         -5    1    3    3    0  502  0.78980625719E+02  0.48231993994E+02 -0.91443791984E+02  0.13016798368E+03  0.41800000000E+01 0.  1.
        -11    1    1    2    0    0 -0.63975948541E+02 -0.32830848056E+02 -0.28711546439E+03  0.29598323680E+03  0.00000000000E+00 0.  1.
         11    1    1    2    0    0  0.31110115366E+02 -0.37025199448E+02 -0.20007240574E+03  0.20583408904E+03  0.00000000000E+00 0. -1.
</event>
<event>
 7    1  0.2943257E-009  0.1308106E+03  0.7561462E-02  0.1226258E+00
         -2   -1    0    0    0  501 -0.00000000000E+00  0.00000000000E+00  0.69852440777E+02  0.69852440777E+02  0.00000000000E+00 0.  1.
          2   -1    0    0  501    0  0.00000000000E+00 -0.00000000000E+00 -0.28539439733E+03  0.28539439733E+03  0.00000000000E+00 0. -1.
         25    2    1    2    0    0 -0.86026900264E+02 -0.27996038664E+02 -0.13185182101E+03  0.20301780481E+03  0.12508765173E+03 0.  0.
          5    1    3    3  502    0 -0.66821833073E+02  0.31706297626E+02 -0.23435381821E+02  0.77699010325E+02  0.41800000000E+01 0. -1.
         -5    1    3    3    0  502 -0.19205067191E+02 -0.59702336290E+02 -0.10841643919E+03  0.12531879448E+03  0.41800000000E+01 0. -1.
        -11    1    1    2    0    0  0.73482608342E+02 -0.19119642561E+02 -0.65207742140E+02  0.10008648308E+03  0.00000000000E+00 0.  1.
         11    1    1    2    0    0  0.12544291922E+02  0.47115681226E+02 -0.18482393400E+02  0.52142550216E+02  0.00000000000E+00 0. -1.
</event>
<event>
 7    1  0.2943257E-009  0.9167020E+02  0.7561462E-02  0.1298857E+00
          2   -1    0    0  501    0  0.00000000000E+00  0.00000000000E+00  0.70591835489E+03  0.70591835489E+03  0.00000000000E+00 0.  1.
         -2   -1    0    0    0  501 -0.00000000000E+00 -0.00000000000E+00 -0.25648618196E+02  0.25648618196E+02  0.00000000000E+00 0. -1.
         25    2    1    2    0    0  0.11231784803E+01 -0.68021599766E+02  0.26305821664E+03  0.29912292730E+03  0.12508677280E+03 0.  0.
          5    1    3    3  502    0  0.28286984610E+02 -0.11753581664E+02  0.23559425450E+01  0.31005209974E+02  0.41800000000E+01 0. -1.
         -5    1    3    3    0  502 -0.27163806130E+02 -0.56268018102E+02  0.26070227410E+03  0.26811771733E+03  0.41800000000E+01 0. -1.
        -11    1    1    2    0    0  0.63381560749E+01  0.77489850230E+02  0.41206650488E+03  0.41933715976E+03  0.00000000000E+00 0.  1.
         11    1    1    2    0    0 -0.74613345553E+01 -0.94682504638E+01  0.51450151699E+01  0.13106886026E+02  0.00000000000E+00 0. -1.
</event>
<event>
 7    1  0.2943257E-009  0.1493286E+03  0.7561462E-02  0.1201300E+00
          1   -1    0    0  501    0  0.00000000000E+00  0.00000000000E+00  0.76199214468E+03  0.76199214468E+03  0.00000000000E+00 0. -1.
         -1   -1    0    0    0  501 -0.00000000000E+00 -0.00000000000E+00 -0.38375778190E+02  0.38375778190E+02  0.00000000000E+00 0.  1.
         25    2    1    2    0    0 -0.25637598832E+02  0.12039898973E+03  0.27226736566E+03  0.32392856371E+03  0.12508794020E+03 0.  0.
          5    1    3    3  502    0  0.17722246596E+02  0.12966388134E+03  0.20060375576E+03  0.23955404270E+03  0.41800000000E+01 0.  1.
         -5    1    3    3    0  502 -0.43359845428E+02 -0.92648916126E+01  0.71663609908E+02  0.84374521019E+02  0.41800000000E+01 0.  1.
        -11    1    1    2    0    0  0.16941248848E+02 -0.89353512807E+02  0.42551512019E+03  0.43512546888E+03  0.00000000000E+00 0. -1.
         11    1    1    2    0    0  0.86963499840E+01 -0.31045476921E+02  0.25833880636E+02  0.41313890268E+02  0.00000000000E+00 0.  1.
</event>
<event>
 7    1  0.2943257E-009  0.1158348E+03  0.7561462E-02  0.1250131E+00
          2   -1    0    0  501    0  0.00000000000E+00  0.00000000000E+00  0.21005821311E+03  0.21005821311E+03  0.00000000000E+00 0. -1.
         -2   -1    0    0    0  501 -0.00000000000E+00 -0.00000000000E+00 -0.71815717011E+02  0.71815717011E+02  0.00000000000E+00 0.  1.
         25    2    1    2    0    0  0.42246655373E+02 -0.20774159939E+02  0.42200676321E+02  0.14015973001E+03  0.12508999650E+03 0.  0.
          5    1    3    3  502    0 -0.41347023323E+02 -0.13715789157E+01  0.34258990634E+02  0.53875861067E+02  0.41800000000E+01 0.  1.
         -5    1    3    3    0  502  0.83593678696E+02 -0.19402581023E+02  0.79416856876E+01  0.86283868943E+02  0.41800000000E+01 0.  1.
        -11    1    1    2    0    0 -0.69675171393E+02  0.29099140370E+02  0.67975445412E+02  0.10159749336E+03  0.00000000000E+00 0. -1.
         11    1    1    2    0    0  0.27428516021E+02 -0.83249804316E+01  0.28066374368E+02  0.40116706750E+02  0.00000000000E+00 0.  1.
</event>
<event>
 7    1  0.2943257E-009  0.1451889E+03  0.7561462E-02  0.1206513E+00
          1   -1    0    0  501    0  0.00000000000E+00  0.00000000000E+00  0.15450462291E+03  0.15450462291E+03  0.00000000000E+00 0. -1.
         -1   -1    0    0    0  501 -0.00000000000E+00 -0.00000000000E+00 -0.18921274932E+03  0.18921274932E+03  0.00000000000E+00 0.  1.
         25    2    1    2    0    0 -0.11291361498E+03  0.69968187193E+02 -0.11231387648E+02  0.18280555545E+03  0.12508675136E+03 0.  0.
          5    1    3    3  502    0 -0.11886828838E+03  0.55062408997E+02  0.33344540539E+02  0.13524374164E+03  0.41800000000E+01 0.  1.
         -5    1    3    3    0  502  0.59546734068E+01  0.14905778196E+02 -0.44575928188E+02  0.47561813809E+02  0.41800000000E+01 0.  1.
        -11    1    1    2    0    0  0.91485421936E+02 -0.77612176309E+02  0.10052911298E+02  0.12039224794E+03  0.00000000000E+00 0. -1.
         11    1    1    2    0    0  0.21428193041E+02  0.76439891163E+01 -0.33529650061E+02  0.40519568850E+02  0.00000000000E+00 0.  1.
</event>
<event>
 7    1  0.2943257E-009  0.1272114E+03  0.7561462E-02  0.1231653E+00
         -1   -1    0    0    0  501 -0.00000000000E+00  0.00000000000E+00  0.58664980888E+03  0.58664980888E+03  0.00000000000E+00 0.  1.
          1   -1    0    0  501    0  0.00000000000E+00 -0.00000000000E+00 -0.91365472729E+02  0.91365472729E+02  0.00000000000E+00 0. -1.
         25    2    1    2    0    0  0.55863928594E+02 -0.66514695301E+02 -0.15007963542E+02  0.15302914138E+03  0.12509075079E+03 0.  0.
          5    1    3    3  502    0  0.53583216204E+02 -0.92257505083E+02  0.20693200047E+02  0.10875793870E+03  0.41800000000E+01 0. -1.
         -5    1    3    3    0  502  0.22807123903E+01  0.25742809783E+02 -0.35701163589E+02  0.44271202673E+02  0.41800000000E+01 0. -1.
        -11    1    1    2    0    0 -0.95342793903E+01  0.73939099137E+02  0.26711145188E+03  0.27732006886E+03  0.00000000000E+00 0. -1.
         11    1    1    2    0    0 -0.46329649204E+02 -0.74244038368E+01  0.24318084781E+03  0.24766607138E+03  0.00000000000E+00 0.  1.
</event>
<event>
 7    1  0.2943257E-009  0.1306717E+03  0.7561462E-02  0.1226462E+00
          1   -1    0    0  501    0  0.00000000000E+00  0.00000000000E+00  0.66783305631E+03  0.66783305631E+03  0.00000000000E+00 0. -1.
         -1   -1    0    0    0  501 -0.00000000000E+00 -0.00000000000E+00 -0.31621038944E+02  0.31621038944E+02  0.00000000000E+00 0.  1.
         25    2    1    2    0    0 -0.95646926906E+02  0.11038720033E+02  0.35698416335E+03  0.39032799440E+03  0.12509221544E+03 0.  0.
          5    1    3    3  502    0 -0.85784028238E+02 -0.27246955424E+02  0.12016249102E+03  0.15019251888E+03  0.41800000000E+01 0.  1.
         -5    1    3    3    0  502 -0.98628986680E+01  0.38285675457E+02  0.23682167234E+03  0.24013547552E+03  0.41800000000E+01 0.  1.
        -11    1    1    2    0    0  0.28774432246E+02 -0.47335475530E+02  0.97984437248E+02  0.11255916283E+03  0.00000000000E+00 0. -1.
         11    1    1    2    0    0  0.66872494660E+02  0.36296755497E+02  0.18124341677E+03  0.19656693802E+03  0.00000000000E+00 0.  1.
</event>
<event>
 7    1  0.2943257E-009  0.2037692E+03  0.7561462E-02  0.1146597E+00
          2   -1    0    0  501    0  0.00000000000E+00  0.00000000000E+00  0.49638329674E+03  0.49638329674E+03  0.00000000000E+00 0. -1.
         -2   -1    0    0    0  501 -0.00000000000E+00 -0.00000000000E+00 -0.93513219209E+02  0.93513219209E+02  0.00000000000E+00 0.  1.
         25    2    1    2    0    0 -0.42114016967E+02 -0.17995475004E+03  0.22227758651E+03  0.31497918022E+03  0.12508899240E+03 0.  0.
          5    1    3    3  502    0 -0.74312406748E+02 -0.10303810927E+03  0.80530490967E+02  0.15047198455E+03  0.41800000000E+01 0. -1.
         -5    1    3    3    0  502  0.32198389781E+02 -0.76916640771E+02  0.14174709554E+03  0.16450719567E+03  0.41800000000E+01 0. -1.
        -11    1    1    2    0    0 -0.26130005038E+00  0.13558976802E+03  0.80991643049E+02  0.15793764502E+03  0.00000000000E+00 0. -1.
         11    1    1    2    0    0  0.42375317017E+02  0.44364982022E+02  0.99600847971E+02  0.11697969071E+03  0.00000000000E+00 0.  1.
</event>
<event>
 7    1  0.2943257E-009  0.1863694E+03  0.7561462E-02  0.1161777E+00
         -1   -1    0    0    0  501 -0.00000000000E+00  0.00000000000E+00  0.61445889725E+02  0.61445889725E+02  0.00000000000E+00 0.  1.
          1   -1    0    0  501    0  0.00000000000E+00 -0.00000000000E+00 -0.61874450332E+03  0.61874450332E+03  0.00000000000E+00 0. -1.
         25    2    1    2    0    0  0.71743505790E+02 -0.14336373668E+03 -0.32637716067E+03  0.38453881384E+03  0.12509099377E+03 0.  0.
          5    1    3    3  502    0 -0.22753508408E+02  0.27400200881E+01 -0.76873541819E+02  0.80325859390E+02  0.41800000000E+01 0.  1.
         -5    1    3    3    0  502  0.94497014199E+02 -0.14610375677E+03 -0.24950361885E+03  0.30421295445E+03  0.41800000000E+01 0.  1.
        -11    1    1    2    0    0 -0.65369842783E+02  0.15153270279E+03 -0.23255564596E+03  0.28516224299E+03  0.00000000000E+00 0. -1.
         11    1    1    2    0    0 -0.63736630070E+01 -0.81689661081E+01  0.16341930339E+01  0.10489336217E+02  0.00000000000E+00 0.  1.
</event>
<event>
 7    1  0.2943257E-009  0.1175168E+03  0.7561462E-02  0.1247251E+00
         -1   -1    0    0    0  501 -0.00000000000E+00  0.00000000000E+00  0.64996562438E+02  0.64996562438E+02  0.00000000000E+00 0.  1.
          1   -1    0    0  501    0  0.00000000000E+00 -0.00000000000E+00 -0.24521443009E+03  0.24521443009E+03  0.00000000000E+00 0. -1.
         25    2    1    2    0    0 -0.55224763094E+02 -0.24373603119E+02 -0.12876224504E+03  0.18939626645E+03  0.12508950000E+03 0.  0.
          5    1    3    3  502    0  0.57868411315E+01  0.39958301523E+02 -0.75938538030E+02  0.86106256155E+02  0.41800000000E+01 0.  1.
         -5    1    3    3    0  502 -0.61011604225E+02 -0.64331904642E+02 -0.52823707011E+02  0.10329001030E+03  0.41800000000E+01 0.  1.
        -11    1    1    2    0    0  0.54776460416E+02 -0.22201367973E+02 -0.13247390501E+02  0.60571071566E+02  0.00000000000E+00 0.  1.
         11    1    1    2    0    0  0.44830267843E+00  0.46574971093E+02 -0.38208232108E+02  0.60243654508E+02  0.00000000000E+00 0. -1.
</event>
<event>
 7    1  0.4082339E-009  0.2685208E+03  0.7561462E-02  0.1102129E+00
         -1   -1    0    0    0  501 -0.00000000000E+00  0.00000000000E+00  0.67591125692E+02  0.67591125692E+02  0.00000000000E+00 0.  1.
          1   -1    0    0  501    0  0.00000000000E+00 -0.00000000000E+00 -0.11550741516E+04  0.11550741516E+04  0.00000000000E+00 0. -1.
         25    2    1    2    0    0  0.24348914971E+03 -0.76181419654E+02 -0.62761430007E+03  0.68893954663E+03  0.12508962595E+03 0.  0.
          5    1    3    3  502    0  0.11759070657E+02 -0.33314577454E+02 -0.30039659308E+02  0.46561683228E+02  0.41800000000E+01 0.  1.
         -5    1    3    3    0  502  0.23173007906E+03 -0.42866842200E+02 -0.59757464077E+03  0.64237786340E+03  0.41800000000E+01 0.  1.
        -11    1    1    2    0    0 -0.13575032808E+03  0.80714401383E+02 -0.32243639733E+03  0.35903787612E+03  0.00000000000E+00 0.  1.
         11    1    1    2    0    0 -0.10773882163E+03 -0.45329817289E+01 -0.13743232854E+03  0.17468785458E+03  0.00000000000E+00 0. -1.
</event>
<event>
 7    1  0.2943257E-009  0.1330377E+03  0.7561462E-02  0.1223017E+00
         -1   -1    0    0    0  501 -0.00000000000E+00  0.00000000000E+00  0.30655497973E+02  0.30655497973E+02  0.00000000000E+00 0.  1.
          1   -1    0    0  501    0  0.00000000000E+00 -0.00000000000E+00 -0.68481014351E+03  0.68481014351E+03  0.00000000000E+00 0. -1.
         25    2    1    2    0    0  0.50749803740E+02  0.72432603665E+02 -0.26447092189E+03  0.30563753413E+03  0.12508960424E+03 0.  0.
          5    1    3    3  502    0  0.53769292768E+02 -0.15820633322E+02 -0.15532471212E+03  0.16518071279E+03  0.41800000000E+01 0.  1.
         -5    1    3    3    0  502 -0.30194890276E+01  0.88253236987E+02 -0.10914620977E+03  0.14045682134E+03  0.41800000000E+01 0.  1.
        -11    1    1    2    0    0 -0.73439260084E+02 -0.46106359950E+02 -0.21704040319E+03  0.23372132544E+03  0.00000000000E+00 0.  1.
         11    1    1    2    0    0  0.22689456344E+02 -0.26326243715E+02 -0.17264332046E+03  0.17610678192E+03  0.00000000000E+00 0. -1.
</event>
<event>
 7    1  0.2943257E-009  0.1059526E+03  0.7561462E-02  0.1268254E+00
          2   -1    0    0  501    0  0.00000000000E+00  0.00000000000E+00  0.59622900110E+02  0.59622900110E+02  0.00000000000E+00 0. -1.
         -2   -1    0    0    0  501 -0.00000000000E+00 -0.00000000000E+00 -0.25916249117E+03  0.25916249117E+03  0.00000000000E+00 0.  1.
         25    2    1    2    0    0 -0.18026211656E+02  0.22971070371E+02 -0.17137658104E+03  0.21417077695E+03  0.12508626938E+03 0.  0.
          5    1    3    3  502    0  0.43443385198E+01  0.70233250328E+02 -0.12790194802E+03  0.14604096493E+03  0.41800000000E+01 0.  1.
         -5    1    3    3    0  502 -0.22370550176E+02 -0.47262179957E+02 -0.43474633023E+02  0.68129812020E+02  0.41800000000E+01 0.  1.
        -11    1    1    2    0    0  0.62718333566E+01  0.32068948846E+02 -0.35043412800E+02  0.47914446197E+02  0.00000000000E+00 0.  1.
         11    1    1    2    0    0  0.11754378299E+02 -0.55040019218E+02  0.68804027793E+01  0.56700168140E+02  0.00000000000E+00 0. -1.
</event>
<event>
 7    1  0.2943257E-009  0.9673461E+02  0.7561462E-02  0.1287316E+00
          2   -1    0    0  501    0  0.00000000000E+00  0.00000000000E+00  0.46363636705E+03  0.46363636705E+03  0.00000000000E+00 0. -1.
         -2   -1    0    0    0  501 -0.00000000000E+00 -0.00000000000E+00 -0.49827909634E+02  0.49827909634E+02  0.00000000000E+00 0.  1.
         25    2    1    2    0    0  0.73296535706E+02 -0.23457898028E+02  0.34286900225E+03  0.37300014888E+03  0.12508918111E+03 0.  0.
          5    1    3    3  502    0  0.78630553739E+02 -0.22857173584E+02  0.35210698649E+03  0.36152733880E+03  0.41800000000E+01 0.  1.
         -5    1    3    3    0  502 -0.53340180337E+01 -0.60072444326E+00 -0.92379842384E+01  0.11472810076E+02  0.41800000000E+01 0.  1.
        -11    1    1    2    0    0 -0.15337817564E+02 -0.24863810172E+02 -0.89663347128E+01  0.30559006235E+02  0.00000000000E+00 0.  1.
         11    1    1    2    0    0 -0.57958718142E+02  0.48321708199E+02  0.79905789874E+02  0.10990512157E+03  0.00000000000E+00 0. -1.
</event>
<event>
 7    1  0.2943257E-009  0.1758867E+03  0.7561462E-02  0.1171844E+00
          3   -1    0    0  501    0  0.00000000000E+00  0.00000000000E+00  0.16945812893E+03  0.16945812893E+03  0.00000000000E+00 0. -1.
         -3   -1    0    0    0  501 -0.00000000000E+00 -0.00000000000E+00 -0.21298439646E+03  0.21298439646E+03  0.00000000000E+00 0.  1.
         25    2    1    2    0    0  0.75949679465E+02 -0.12842091019E+03 -0.68344614617E+02  0.20634988136E+03  0.12509597597E+03 0.  0.
          5    1    3    3  502    0  0.78206564595E+02 -0.36348534872E+02  0.79132450837E+01  0.86703947896E+02  0.41800000000E+01 0. -1.
         -5    1    3    3    0  502 -0.22568851303E+01 -0.92072375323E+02 -0.76257859701E+02  0.11964593346E+03  0.41800000000E+01 0. -1.
        -11    1    1    2    0    0  0.16177825009E+02  0.48998223572E+02  0.16492629771E+02  0.54171531011E+02  0.00000000000E+00 0. -1.
         11    1    1    2    0    0 -0.92127504474E+02  0.79422686623E+02  0.83257173251E+01  0.12192111302E+03  0.00000000000E+00 0.  1.
</event>
<event>
 7    1  0.2943257E-009  0.9995950E+02  0.7561462E-02  0.1280381E+00
          4   -1    0    0  501    0  0.00000000000E+00  0.00000000000E+00  0.44715134357E+03  0.44715134357E+03  0.00000000000E+00 0. -1.
         -4   -1    0    0    0  501 -0.00000000000E+00 -0.00000000000E+00 -0.42723491105E+02  0.42723491105E+02  0.00000000000E+00 0.  1.
         25    2    1    2    0    0 -0.29621647307E+02 -0.79100701272E+02  0.22157341672E+03  0.26809767013E+03  0.12508884364E+03 0.  0.
          5    1    3    3  502    0  0.13099520916E+02 -0.63098593375E+02  0.21157092528E+03  0.22120750159E+03  0.41800000000E+01 0.  1.
         -5    1    3    3    0  502 -0.42721168223E+02 -0.16002107897E+02  0.10002491438E+02  0.46890168548E+02  0.41800000000E+01 0.  1.
        -11    1    1    2    0    0 -0.61453201524E+01  0.10606460721E+02 -0.88280289148E+01  0.15106159781E+02  0.00000000000E+00 0.  1.
         11    1    1    2    0    0  0.35766967460E+02  0.68494240551E+02  0.19168246466E+03  0.20667100476E+03  0.00000000000E+00 0. -1.
</event>
<event>
 7    1  0.2943257E-009  0.9450788E+02  0.7561462E-02  0.1292288E+00
          4   -1    0    0  501    0  0.00000000000E+00  0.00000000000E+00  0.40728775243E+02  0.40728775243E+02  0.00000000000E+00 0. -1.
         -4   -1    0    0    0  501 -0.00000000000E+00 -0.00000000000E+00 -0.56262567765E+03  0.56262567765E+03  0.00000000000E+00 0.  1.
         25    2    1    2    0    0  0.28607614545E+02 -0.58623271708E+02 -0.11890433103E+03  0.18449974370E+03  0.12508729708E+03 0.  0.
          5    1    3    3  502    0  0.39776720338E+02 -0.17447438143E+02  0.13220606816E+02  0.45594488956E+02  0.41800000000E+01 0. -1.
         -5    1    3    3    0  502 -0.11169105793E+02 -0.41175833565E+02 -0.13212493784E+03  0.13890525474E+03  0.41800000000E+01 0. -1.
        -11    1    1    2    0    0 -0.50595441873E+02  0.13576322642E+02 -0.29727276002E+03  0.30185312509E+03  0.00000000000E+00 0.  1.
         11    1    1    2    0    0  0.21987827328E+02  0.45046949066E+02 -0.10571981136E+03  0.11700158411E+03  0.00000000000E+00 0. -1.
</event>
<event>
 7    1  0.2943257E-009  0.6298455E+02  0.7561462E-02  0.1385717E+00
          2   -1    0    0  501    0  0.00000000000E+00  0.00000000000E+00  0.11423979613E+03  0.11423979613E+03  0.00000000000E+00 0. -1.
         -2   -1    0    0    0  501 -0.00000000000E+00 -0.00000000000E+00 -0.13699620275E+03  0.13699620275E+03  0.00000000000E+00 0.  1.
         25    2    1    2    0    0  0.23086455724E+01 -0.16131999673E+02 -0.72813652973E+02  0.14562981788E+03  0.12506256250E+03 0.  0.
          5    1    3    3  502    0 -0.32898577075E+02  0.20869865380E+01  0.23961234109E+02  0.40966877186E+02  0.41800000000E+01 0. -1.
         -5    1    3    3    0  502  0.35207222647E+02 -0.18218986211E+02 -0.96774887081E+02  0.10466294069E+03  0.41800000000E+01 0. -1.
        -11    1    1    2    0    0  0.23038657423E+02  0.15029388934E+02  0.68778625451E+02  0.74075377734E+02  0.00000000000E+00 0. -1.
         11    1    1    2    0    0 -0.25347302995E+02  0.11026107390E+01 -0.18721379097E+02  0.31530803270E+02  0.00000000000E+00 0.  1.
</event>
<event>
 7    1  0.2943257E-009  0.1567566E+03  0.7561462E-02  0.1192408E+00
          2   -1    0    0  501    0  0.00000000000E+00  0.00000000000E+00  0.72528084277E+03  0.72528084277E+03  0.00000000000E+00 0. -1.
         -2   -1    0    0    0  501 -0.00000000000E+00 -0.00000000000E+00 -0.50610093882E+02  0.50610093882E+02  0.00000000000E+00 0.  1.
         25    2    1    2    0    0 -0.23688234277E+02  0.11308814221E+03  0.56593858110E+03  0.59100305864E+03  0.12509227554E+03 0.  0.
          5    1    3    3  502    0  0.46452173714E+02  0.60140996349E+02  0.34278465078E+03  0.35113178878E+03  0.41800000000E+01 0. -1.
         -5    1    3    3    0  502 -0.70140407991E+02  0.52947145859E+02  0.22315393032E+03  0.23987126986E+03  0.41800000000E+01 0. -1.
        -11    1    1    2    0    0  0.23040973632E+01 -0.12495088894E+03  0.93498735539E+02  0.15607705487E+03  0.00000000000E+00 0. -1.
         11    1    1    2    0    0  0.21384136914E+02  0.11862746729E+02  0.15233432250E+02  0.28810823134E+02  0.00000000000E+00 0.  1.
</event>
<event>
 7    1  0.2943257E-009  0.1018390E+03  0.7561462E-02  0.1276476E+00
         -2   -1    0    0    0  501 -0.00000000000E+00  0.00000000000E+00  0.61936693837E+02  0.61936693837E+02  0.00000000000E+00 0. -1.
          2   -1    0    0  501    0  0.00000000000E+00 -0.00000000000E+00 -0.25171349887E+03  0.25171349887E+03  0.00000000000E+00 0.  1.
         25    2    1    2    0    0 -0.42201200240E+02  0.33000697782E+02 -0.77290071551E+02  0.15649672428E+03  0.12508989646E+03 0.  0.
          5    1    3    3  502    0 -0.86762442611E+02  0.21968947133E+02 -0.45395438822E+02  0.10044189540E+03  0.41800000000E+01 0.  1.
         -5    1    3    3    0  502  0.44561242371E+02  0.11031750649E+02 -0.31894632729E+02  0.56054828882E+02  0.41800000000E+01 0.  1.
        -11    1    1    2    0    0  0.50393319169E+02 -0.24012084838E+02 -0.12669715788E+03  0.13844940104E+03  0.00000000000E+00 0.  1.
         11    1    1    2    0    0 -0.81921189287E+01 -0.89886129444E+01  0.14210424393E+02  0.18704067382E+02  0.00000000000E+00 0. -1.
</event>
<event>
 7    1  0.2943257E-009  0.1204123E+03  0.7561462E-02  0.1242418E+00
         -1   -1    0    0    0  501 -0.00000000000E+00  0.00000000000E+00  0.49819470037E+03  0.49819470037E+03  0.00000000000E+00 0.  1.
          1   -1    0    0  501    0  0.00000000000E+00 -0.00000000000E+00 -0.45294954466E+02  0.45294954466E+02  0.00000000000E+00 0. -1.
         25    2    1    2    0    0  0.72314655831E+02  0.40669627937E+02  0.13365877069E+03  0.20098838085E+03  0.12509290215E+03 0.  0.
          5    1    3    3  502    0  0.71797774912E+02  0.75209286011E+02  0.61494746011E+02  0.12087362562E+03  0.41800000000E+01 0.  1.
         -5    1    3    3    0  502  0.51688091869E+00 -0.34539658074E+02  0.72164024682E+02  0.80114755220E+02  0.41800000000E+01 0.  1.
        -11    1    1    2    0    0  0.28200604670E+00  0.12172406445E+02  0.14419123451E+01  0.12260755168E+02  0.00000000000E+00 0. -1.
         11    1    1    2    0    0 -0.72596661878E+02 -0.52842034382E+02  0.31779906286E+03  0.33024051882E+03  0.00000000000E+00 0.  1.
</event>
<event>
 7    1  0.2943257E-009  0.1314177E+03  0.7561462E-02  0.1225367E+00
          1   -1    0    0  501    0  0.00000000000E+00  0.00000000000E+00  0.32894617898E+02  0.32894617898E+02  0.00000000000E+00 0. -1.
         -1   -1    0    0    0  501 -0.00000000000E+00 -0.00000000000E+00 -0.85904946532E+03  0.85904946532E+03  0.00000000000E+00 0.  1.
         25    2    1    2    0    0 -0.15957180293E+02 -0.10768520644E+03 -0.54444612786E+03  0.56914054423E+03  0.12509451489E+03 0.  0.
          5    1    3    3  502    0 -0.15982689288E+02 -0.88463568420E+02 -0.54188116234E+03  0.54930311832E+03  0.41800000000E+01 0.  1.
         -5    1    3    3    0  502  0.25508995281E-01 -0.19221638018E+02 -0.25649655223E+01  0.19837425915E+02  0.41800000000E+01 0.  1.
        -11    1    1    2    0    0  0.59251904779E+02  0.86818420577E+02 -0.22587240676E+03  0.24913163289E+03  0.00000000000E+00 0.  1.
         11    1    1    2    0    0 -0.43294724486E+02  0.20866785861E+02 -0.55836312800E+02  0.73671906095E+02  0.00000000000E+00 0. -1.
</event>
<event>
 7    1  0.2943257E-009  0.1123766E+03  0.7561462E-02  0.1256231E+00
         -2   -1    0    0    0  501 -0.00000000000E+00  0.00000000000E+00  0.59446338163E+02  0.59446338163E+02  0.00000000000E+00 0.  1.
          2   -1    0    0  501    0  0.00000000000E+00 -0.00000000000E+00 -0.31563329988E+03  0.31563329988E+03  0.00000000000E+00 0. -1.
         25    2    1    2    0    0  0.15186642153E+02  0.81509778960E+02 -0.13582468455E+03  0.20241147221E+03  0.12509029132E+03 0.  0.
          5    1    3    3  502    0  0.21163786284E+02  0.90237446377E+02 -0.15469115371E+03  0.18038161773E+03  0.41800000000E+01 0. -1.
         -5    1    3    3    0  502 -0.59771441307E+01 -0.87276674166E+01  0.18866469152E+02  0.22029854488E+02  0.41800000000E+01 0. -1.
        -11    1    1    2    0    0 -0.24813154613E+02  0.11318532337E+02 -0.45408755763E+02  0.52969396032E+02  0.00000000000E+00 0.  1.
         11    1    1    2    0    0  0.96265124603E+01 -0.92828311297E+02 -0.74953521397E+02  0.11969876979E+03  0.00000000000E+00 0. -1.
</event>
<event>
 7    1  0.2943257E-009  0.9343574E+02  0.7561462E-02  0.1294739E+00
         -2   -1    0    0    0  501 -0.00000000000E+00  0.00000000000E+00  0.11577167253E+03  0.11577167253E+03  0.00000000000E+00 0.  1.
          2   -1    0    0  501    0  0.00000000000E+00 -0.00000000000E+00 -0.10500231068E+03  0.10500231068E+03  0.00000000000E+00 0. -1.
         25    2    1    2    0    0 -0.52570765458E+01  0.11303005307E+02 -0.11685588752E+02  0.12625061937E+03  0.12508905278E+03 0.  0.
          5    1    3    3  502    0  0.85640339142E+01  0.67252503238E+02 -0.59951955645E+01  0.68188390790E+02  0.41800000000E+01 0. -1.
         -5    1    3    3    0  502 -0.13821110460E+02 -0.55949497932E+02 -0.56903931879E+01  0.58062228581E+02  0.41800000000E+01 0. -1.
        -11    1    1    2    0    0 -0.27419044726E+02 -0.58565115116E+01  0.46007196120E+02  0.53877312810E+02  0.00000000000E+00 0.  1.
         11    1    1    2    0    0  0.32676121271E+02 -0.54464937950E+01 -0.23552245515E+02  0.40646051036E+02  0.00000000000E+00 0. -1.
</event>
<event>
 7    1  0.2943257E-009  0.3348050E+02  0.7561462E-02  0.1562523E+00
          1   -1    0    0  501    0  0.00000000000E+00  0.00000000000E+00  0.19179146856E+03  0.19179146856E+03  0.00000000000E+00 0. -1.
         -1   -1    0    0    0  501 -0.00000000000E+00 -0.00000000000E+00 -0.79756314379E+02  0.79756314379E+02  0.00000000000E+00 0.  1.
         25    2    1    2    0    0  0.29328029513E+02 -0.73343303429E+01  0.13437226771E+03  0.18605677780E+03  0.12508913830E+03 0.  0.
          5    1    3    3  502    0  0.13897793233E+02 -0.90430643518E+01 -0.22557181657E+02  0.28305909523E+02  0.41800000000E+01 0. -1.
         -5    1    3    3    0  502  0.15430236280E+02  0.17087340089E+01  0.15692944937E+03  0.15775086828E+03  0.41800000000E+01 0. -1.
        -11    1    1    2    0    0 -0.18325504654E+02 -0.31403604285E+01 -0.50323024852E+02  0.53647859367E+02  0.00000000000E+00 0.  1.
         11    1    1    2    0    0 -0.11002524859E+02  0.10474690771E+02  0.27985911325E+02  0.31843145773E+02  0.00000000000E+00 0. -1.
</event>
<event>
 7    1  0.2943257E-009  0.1000852E+03  0.7561462E-02  0.1280117E+00
         -3   -1    0    0    0  501 -0.00000000000E+00  0.00000000000E+00  0.40715719212E+03  0.40715719212E+03  0.00000000000E+00 0.  1.
          3   -1    0    0  501    0  0.00000000000E+00 -0.00000000000E+00 -0.31575998789E+02  0.31575998789E+02  0.00000000000E+00 0. -1.
         25    2    1    2    0    0 -0.10348599670E+02  0.24363423906E+02  0.24109422255E+03  0.27289982937E+03  0.12508885956E+03 0.  0.
          5    1    3    3  502    0 -0.37310242224E+02  0.61454469170E+02  0.91860743774E+02  0.11672435308E+03  0.41800000000E+01 0.  1.
         -5    1    3    3    0  502  0.26961642554E+02 -0.37091045264E+02  0.14923347877E+03  0.15617547629E+03  0.41800000000E+01 0.  1.
        -11    1    1    2    0    0  0.23341566153E+02  0.23136555814E+02  0.14097072661E+02  0.35761101535E+02  0.00000000000E+00 0. -1.
         11    1    1    2    0    0 -0.12992966483E+02 -0.47499979720E+02  0.12038989813E+03  0.13007226000E+03  0.00000000000E+00 0.  1.
</event>
<event>
 7    1  0.2943257E-009  0.1363440E+03  0.7561462E-02  0.1218335E+00
         -1   -1    0    0    0  501 -0.00000000000E+00  0.00000000000E+00  0.26298033267E+03  0.26298033267E+03  0.00000000000E+00 0.  1.
          1   -1    0    0  501    0  0.00000000000E+00 -0.00000000000E+00 -0.82197298836E+02  0.82197298836E+02  0.00000000000E+00 0. -1.
         25    2    1    2    0    0 -0.57574106565E+02  0.81304306020E+02  0.77606979666E+02  0.17775063356E+03  0.12508907432E+03 0.  0.
          5    1    3    3  502    0 -0.90726815461E+02  0.86922896619E+02  0.65600127831E+02  0.14180195405E+03  0.41800000000E+01 0. -1.
         -5    1    3    3    0  502  0.33152708896E+02 -0.56185905993E+01  0.12006851836E+02  0.35948679510E+02  0.41800000000E+01 0. -1.
        -11    1    1    2    0    0  0.37172201844E+02 -0.84614262977E+02  0.39546952793E+02  0.10052515886E+03  0.00000000000E+00 0. -1.
         11    1    1    2    0    0  0.20401904721E+02  0.33099569575E+01  0.63629101372E+02  0.66901839083E+02  0.00000000000E+00 0.  1.
</event>
<event>
 7    1  0.2943257E-009  0.1212419E+03  0.7561462E-02  0.1241062E+00
          2   -1    0    0  501    0  0.00000000000E+00  0.00000000000E+00  0.30006972937E+03  0.30006972937E+03  0.00000000000E+00 0. -1.
         -2   -1    0    0    0  501 -0.00000000000E+00 -0.00000000000E+00 -0.69719676846E+02  0.69719676846E+02  0.00000000000E+00 0.  1.
         25    2    1    2    0    0 -0.21852718556E+01 -0.10667469289E+03  0.14792248059E+03  0.22116358716E+03  0.12509199217E+03 0.  0.
          5    1    3    3  502    0  0.24442702130E+02 -0.61199462233E+01  0.10583462539E+03  0.10887304423E+03  0.41800000000E+01 0.  1.
         -5    1    3    3    0  502 -0.26627973986E+02 -0.10055474667E+03  0.42087855207E+02  0.11229054293E+03  0.41800000000E+01 0.  1.
        -11    1    1    2    0    0  0.11467235537E+02  0.86232914371E+01 -0.66636069504E+01  0.15819680896E+02  0.00000000000E+00 0.  1.
         11    1    1    2    0    0 -0.92819636815E+01  0.98051401456E+02  0.89091178880E+02  0.13280613815E+03  0.00000000000E+00 0. -1.
</event>
<event>
 7    1  0.2943257E-009  0.1015718E+03  0.7561462E-02  0.1277025E+00
          1   -1    0    0  501    0  0.00000000000E+00  0.00000000000E+00  0.34036754537E+02  0.34036754537E+02  0.00000000000E+00 0. -1.
         -1   -1    0    0    0  501 -0.00000000000E+00 -0.00000000000E+00 -0.37722125997E+03  0.37722125997E+03  0.00000000000E+00 0.  1.
         25    2    1    2    0    0  0.34846924175E+01 -0.40562845616E+01 -0.13573437011E+03  0.18466120218E+03  0.12508934342E+03 0.  0.
          5    1    3    3  502    0  0.42331005977E+02 -0.44473605207E+02 -0.10192465802E+03  0.11906268912E+03  0.41800000000E+01 0. -1.
         -5    1    3    3    0  502 -0.38846313560E+02  0.40417320645E+02 -0.33809712085E+02  0.65598513067E+02  0.41800000000E+01 0. -1.
        -11    1    1    2    0    0  0.14176603844E+02  0.41572254476E+02 -0.14601080575E+03  0.15247420712E+03  0.00000000000E+00 0.  1.
         11    1    1    2    0    0 -0.17661296262E+02 -0.37515969914E+02 -0.61439329573E+02  0.74122605207E+02  0.00000000000E+00 0. -1.
</event>
<event>
 7    1  0.2943257E-009  0.1392934E+03  0.7561462E-02  0.1214283E+00
         -1   -1    0    0    0  501 -0.00000000000E+00  0.00000000000E+00  0.19221227947E+03  0.19221227947E+03  0.00000000000E+00 0.  1.
          1   -1    0    0  501    0  0.00000000000E+00 -0.00000000000E+00 -0.13457341816E+03  0.13457341816E+03  0.00000000000E+00 0. -1.
         25    2    1    2    0    0 -0.79516401969E+02 -0.75343079722E+02  0.76829584661E+02  0.18316648890E+03  0.12509092585E+03 0.  0.
          5    1    3    3  502    0  0.15060548272E+02 -0.23820961472E+02  0.69527021242E+02  0.75138122165E+02  0.41800000000E+01 0. -1.
         -5    1    3    3    0  502 -0.94576950241E+02 -0.51522118251E+02  0.73025634187E+01  0.10802836673E+03  0.41800000000E+01 0. -1.
        -11    1    1    2    0    0 -0.12982307375E+02 -0.10056255891E+02 -0.29180777572E+01  0.16678841840E+02  0.00000000000E+00 0. -1.
         11    1    1    2    0    0  0.92498709344E+02  0.85399335613E+02 -0.16272645590E+02  0.12694036690E+03  0.00000000000E+00 0.  1.
</event>
<event>
 7    1  0.2943257E-009  0.9871811E+02  0.7561462E-02  0.1283015E+00
         -1   -1    0    0    0  501 -0.00000000000E+00  0.00000000000E+00  0.11381013076E+03  0.11381013076E+03  0.00000000000E+00 0.  1.
          1   -1    0    0  501    0  0.00000000000E+00 -0.00000000000E+00 -0.14634865227E+03  0.14634865227E+03  0.00000000000E+00 0. -1.
         25    2    1    2    0    0  0.16271625504E+02 -0.55313195906E+01 -0.86197240260E+02  0.15288204900E+03  0.12509034889E+03 0.  0.
          5    1    3    3  502    0  0.12031930101E+02 -0.54968092837E+02 -0.37298911807E+01  0.56547706057E+02  0.41800000000E+01 0. -1.
         -5    1    3    3    0  502  0.42396954028E+01  0.49436773246E+02 -0.82467349079E+02  0.96334342943E+02  0.41800000000E+01 0. -1.
        -11    1    1    2    0    0  0.14478544706E+00 -0.41450266288E+02  0.14371408993E+02  0.43871208493E+02  0.00000000000E+00 0.  1.
         11    1    1    2    0    0 -0.16416410951E+02  0.46981585878E+02  0.39287309759E+02  0.63405525534E+02  0.00000000000E+00 0. -1.
</event>
<event>
 7    1  0.2943257E-009  0.1148748E+03  0.7561462E-02  0.1251800E+00
         -2   -1    0    0    0  501 -0.00000000000E+00  0.00000000000E+00  0.18070747888E+02  0.18070747888E+02  0.00000000000E+00 0.  1.
          2   -1    0    0  501    0  0.00000000000E+00 -0.00000000000E+00 -0.80158141813E+03  0.80158141813E+03  0.00000000000E+00 0. -1.
         25    2    1    2    0    0 -0.27269171558E+02  0.36595388863E+02 -0.33759647853E+03  0.36290608940E+03  0.12508643893E+03 0.  0.
          5    1    3    3  502    0 -0.69265923199E+02  0.51231753212E+02 -0.25202734006E+03  0.26637889029E+03  0.41800000000E+01 0.  1.
         -5    1    3    3    0  502  0.41996751641E+02 -0.14636364349E+02 -0.85569138469E+02  0.96527199111E+02  0.41800000000E+01 0.  1.
        -11    1    1    2    0    0  0.30130740792E+02 -0.64280468749E+02 -0.31324710574E+03  0.32119089255E+03  0.00000000000E+00 0. -1.
         11    1    1    2    0    0 -0.28615692336E+01  0.27685079886E+02 -0.13266708598E+03  0.13555518407E+03  0.00000000000E+00 0.  1.
</event>
<event>
 7    1  0.2943257E-009  0.2499977E+03  0.7561462E-02  0.1113306E+00
          1   -1    0    0  501    0  0.00000000000E+00  0.00000000000E+00  0.12201042040E+03  0.12201042040E+03  0.00000000000E+00 0. -1.
         -1   -1    0    0    0  501 -0.00000000000E+00 -0.00000000000E+00 -0.64072580594E+03  0.64072580594E+03  0.00000000000E+00 0.  1.
         25    2    1    2    0    0  0.12655132349E+03  0.20624842359E+03 -0.38485378233E+03  0.47151458923E+03  0.12513961953E+03 0.  0.
          5    1    3    3  502    0  0.84238194769E+02  0.86163121881E+02 -0.28564740210E+03  0.31005171787E+03  0.41800000000E+01 0.  1.
         -5    1    3    3    0  502  0.42313128720E+02  0.12008530171E+03 -0.99206380228E+02  0.16146287136E+03  0.41800000000E+01 0.  1.
        -11    1    1    2    0    0 -0.83242070645E+02 -0.69026179043E+02 -0.90286131048E+02  0.14087384845E+03  0.00000000000E+00 0.  1.
         11    1    1    2    0    0 -0.43309252844E+02 -0.13722224455E+03 -0.43575472165E+02  0.15034778866E+03  0.00000000000E+00 0. -1.
</event>
<event>
 7    1  0.2943257E-009  0.9458355E+02  0.7561462E-02  0.1292117E+00
          1   -1    0    0  501    0  0.00000000000E+00  0.00000000000E+00  0.60732379596E+02  0.60732379596E+02  0.00000000000E+00 0. -1.
         -1   -1    0    0    0  501 -0.00000000000E+00 -0.00000000000E+00 -0.21066757250E+03  0.21066757250E+03  0.00000000000E+00 0.  1.
         25    2    1    2    0    0 -0.32854843162E+02 -0.66671973046E+00 -0.91708333382E+02  0.15854895317E+03  0.12508983535E+03 0.  0.
          5    1    3    3  502    0 -0.63626813698E+02 -0.30412373569E+02 -0.91433525047E+02  0.11554586012E+03  0.41800000000E+01 0. -1.
         -5    1    3    3    0  502  0.30771970536E+02  0.29745653838E+02 -0.27480833436E+00  0.43003093058E+02  0.41800000000E+01 0. -1.
        -11    1    1    2    0    0  0.36152564063E+02 -0.28581593573E+02  0.16664713598E+01  0.46116076441E+02  0.00000000000E+00 0. -1.
         11    1    1    2    0    0 -0.32977209013E+01  0.29248313304E+02 -0.59893330883E+02  0.66734922480E+02  0.00000000000E+00 0.  1.
</event>
<event>
 7    1  0.2943257E-009  0.1252941E+03  0.7561462E-02  0.1234610E+00
         -1   -1    0    0    0  501 -0.00000000000E+00  0.00000000000E+00  0.66185977657E+02  0.66185977657E+02  0.00000000000E+00 0.  1.
          1   -1    0    0  501    0  0.00000000000E+00 -0.00000000000E+00 -0.40993639141E+03  0.40993639141E+03  0.00000000000E+00 0. -1.
         25    2    1    2    0    0  0.46148759613E+02  0.57924829890E+02 -0.32879613989E+03  0.35949797459E+03  0.12508756211E+03 0.  0.
          5    1    3    3  502    0  0.89015736354E+02  0.46350266146E+02 -0.23846730992E+03  0.25875911345E+03  0.41800000000E+01 0.  1.
         -5    1    3    3    0  502 -0.42866976741E+02  0.11574563744E+02 -0.90328829969E+02  0.10073886114E+03  0.41800000000E+01 0.  1.
        -11    1    1    2    0    0  0.20905726355E+02 -0.10364893146E+02  0.16527071438E+02  0.28594133921E+02  0.00000000000E+00 0.  1.
         11    1    1    2    0    0 -0.67054485969E+02 -0.47559936744E+02 -0.31481345299E+02  0.88030260555E+02  0.00000000000E+00 0. -1.
</event>
<event>
 7    1  0.2943257E-009  0.2233546E+03  0.7561462E-02  0.1131407E+00
          2   -1    0    0  501    0  0.00000000000E+00  0.00000000000E+00  0.14231577795E+04  0.14231577795E+04  0.00000000000E+00 0. -1.
         -2   -1    0    0    0  501 -0.00000000000E+00 -0.00000000000E+00 -0.41712297906E+02  0.41712297906E+02  0.00000000000E+00 0.  1.
         25    2    1    2    0    0 -0.61136451921E+02  0.20567071324E+03  0.83523341712E+03  0.87137851612E+03  0.12509016447E+03 0.  0.
          5    1    3    3  502    0 -0.19166653882E+02  0.89160615170E+02  0.15447466664E+03  0.17943486549E+03  0.41800000000E+01 0. -1.
         -5    1    3    3    0  502 -0.41969798039E+02  0.11651009807E+03  0.68075875048E+03  0.69194365064E+03  0.41800000000E+01 0. -1.
        -11    1    1    2    0    0  0.77531646505E+02 -0.11081688792E+03  0.29741457659E+03  0.32672154692E+03  0.00000000000E+00 0. -1.
         11    1    1    2    0    0 -0.16395194584E+02 -0.94853825315E+02  0.24879748787E+03  0.26677001434E+03  0.00000000000E+00 0.  1.
</event>
<event>
 7    1  0.2943257E-009  0.8980373E+02  0.7561462E-02  0.1303328E+00
         -2   -1    0    0    0  501 -0.00000000000E+00  0.00000000000E+00  0.26220608366E+02  0.26220608366E+02  0.00000000000E+00 0. -1.
          2   -1    0    0  501    0  0.00000000000E+00 -0.00000000000E+00 -0.45827091157E+03  0.45827091157E+03  0.00000000000E+00 0.  1.
         25    2    1    2    0    0 -0.52078564914E+01  0.18039554735E+02 -0.23968172509E+03  0.27100979357E+03  0.12508569688E+03 0.  0.
          5    1    3    3  502    0  0.54735351372E+02 -0.13443971568E+02 -0.13397690825E+03  0.14540970877E+03  0.41800000000E+01 0.  1.
         -5    1    3    3    0  502 -0.59943207864E+02  0.31483526303E+02 -0.10570481685E+03  0.12560008480E+03  0.41800000000E+01 0.  1.
        -11    1    1    2    0    0  0.69980021500E+01 -0.36268119403E+02 -0.19162277723E+03  0.19515029406E+03  0.00000000000E+00 0.  1.
         11    1    1    2    0    0 -0.17901456586E+01  0.18228564668E+02 -0.74580088110E+00  0.18331432303E+02  0.00000000000E+00 0. -1.
</event>
<event>
 7    1  0.2943257E-009  0.2001724E+03  0.7561462E-02  0.1149594E+00
         -1   -1    0    0    0  501 -0.00000000000E+00  0.00000000000E+00  0.22695396214E+03  0.22695396214E+03  0.00000000000E+00 0.  1.
          1   -1    0    0  501    0  0.00000000000E+00 -0.00000000000E+00 -0.18913283904E+03  0.18913283904E+03  0.00000000000E+00 0. -1.
         25    2    1    2    0    0 -0.40706679968E+02 -0.16895307083E+03  0.56469552372E+02  0.22145064495E+03  0.12509757738E+03 0.  0.
          5    1    3    3  502    0 -0.85791258233E+02 -0.11800641441E+03  0.37276097243E+02  0.15064074368E+03  0.41800000000E+01 0. -1.
         -5    1    3    3    0  502  0.45084578266E+02 -0.50946656421E+02  0.19193455129E+02  0.70809901269E+02  0.41800000000E+01 0.  1.
        -11    1    1    2    0    0 -0.14072452421E+02  0.83836964225E+02 -0.35314572346E+02  0.92053188471E+02  0.00000000000E+00 0.  1.
         11    1    1    2    0    0  0.54779132389E+02  0.85116106601E+02  0.16666143074E+02  0.10258296775E+03  0.00000000000E+00 0. -1.
</event>
<event>
 7    1  0.3180574E-009  0.1260122E+03  0.7561462E-02  0.1233496E+00
         -2   -1    0    0    0  501 -0.00000000000E+00  0.00000000000E+00  0.56619504011E+02  0.56619504011E+02  0.00000000000E+00 0. -1.
          2   -1    0    0  501    0  0.00000000000E+00 -0.00000000000E+00 -0.37131283468E+03  0.37131283468E+03  0.00000000000E+00 0.  1.
         25    2    1    2    0    0  0.74010313705E+02 -0.53492634427E+02 -0.21376657289E+03  0.26397500761E+03  0.12509064108E+03 0.  0.
          5    1    3    3  502    0  0.81327030782E+02 -0.74520074415E+02 -0.21457971372E+03  0.24130738358E+03  0.41800000000E+01 0.  1.
         -5    1    3    3    0  502 -0.73167170770E+01  0.21027439988E+02  0.81314083561E+00  0.22667624032E+02  0.41800000000E+01 0.  1.
        -11    1    1    2    0    0 -0.73460553803E+02  0.84549076197E+01 -0.29705933384E+02  0.79689277234E+02  0.00000000000E+00 0. -1.
         11    1    1    2    0    0 -0.54975990242E+00  0.45037726808E+02 -0.71220824400E+02  0.84268053853E+02  0.00000000000E+00 0.  1.
</event>
<event>
 7    1  0.2943257E-009  0.1487657E+03  0.7561462E-02  0.1201998E+00
          2   -1    0    0  501    0  0.00000000000E+00  0.00000000000E+00  0.38944464571E+03  0.38944464571E+03  0.00000000000E+00 0. -1.
         -2   -1    0    0    0  501 -0.00000000000E+00 -0.00000000000E+00 -0.71274892121E+02  0.71274892121E+02  0.00000000000E+00 0.  1.
         25    2    1    2    0    0 -0.10010358939E+03 -0.49571664425E+02  0.25205451094E+03  0.30274861916E+03  0.12508865415E+03 0.  0.
          5    1    3    3  502    0 -0.12873314572E+03 -0.51455225463E+02  0.20987500236E+03  0.25156480686E+03  0.41800000000E+01 0. -1.
         -5    1    3    3    0  502  0.28629556330E+02  0.18835610375E+01  0.42179508584E+02  0.51183812307E+02  0.41800000000E+01 0. -1.
        -11    1    1    2    0    0  0.10787983253E+03  0.35164081265E+02  0.28564795060E+02  0.11700648869E+03  0.00000000000E+00 0.  1.
         11    1    1    2    0    0 -0.77762431409E+01  0.14407583160E+02  0.37550447585E+02  0.40964429982E+02  0.00000000000E+00 0. -1.
</event>
<event>
 7    1  0.2943257E-009  0.1822681E+03  0.7561462E-02  0.1165626E+00
          1   -1    0    0  501    0  0.00000000000E+00  0.00000000000E+00  0.11101725206E+03  0.11101725206E+03  0.00000000000E+00 0. -1.
         -1   -1    0    0    0  501 -0.00000000000E+00 -0.00000000000E+00 -0.36146950240E+03  0.36146950240E+03  0.00000000000E+00 0.  1.
         25    2    1    2    0    0 -0.85335856126E+02 -0.14506960784E+03 -0.13272090751E+03  0.24817211513E+03  0.12508860850E+03 0.  0.
          5    1    3    3  502    0  0.12173059054E+02 -0.63732052488E+02 -0.95959533637E+02  0.11591230468E+03  0.41800000000E+01 0.  1.
         -5    1    3    3    0  502 -0.97508915179E+02 -0.81337555352E+02 -0.36761373875E+02  0.13225981045E+03  0.41800000000E+01 0.  1.
        -11    1    1    2    0    0  0.38497557476E+01  0.36599754877E+02 -0.72499976561E+02  0.81305653417E+02  0.00000000000E+00 0.  1.
         11    1    1    2    0    0  0.81486100378E+02  0.10846985296E+03 -0.45231366271E+02  0.14300898591E+03  0.00000000000E+00 0. -1.
</event>
<event>
 7    1  0.2943257E-009  0.1446037E+03  0.7561462E-02  0.1207265E+00
          1   -1    0    0  501    0  0.00000000000E+00  0.00000000000E+00  0.17103949384E+03  0.17103949384E+03  0.00000000000E+00 0. -1.
         -1   -1    0    0    0  501 -0.00000000000E+00 -0.00000000000E+00 -0.29144783230E+03  0.29144783230E+03  0.00000000000E+00 0.  1.
         25    2    1    2    0    0 -0.14125848072E+02 -0.11077606899E+03  0.10197715184E+03  0.19625874166E+03  0.12508907681E+03 0.  0.
          5    1    3    3  502    0 -0.62971396197E+02 -0.28251457817E+02  0.26115784291E+02  0.73912436010E+02  0.41800000000E+01 0.  1.
         -5    1    3    3    0  502  0.48845548125E+02 -0.82524611171E+02  0.75861367548E+02  0.12234630565E+03  0.41800000000E+01 0.  1.
        -11    1    1    2    0    0  0.16600491517E+02  0.37485564995E+01  0.24620189838E+01  0.17195625372E+02  0.00000000000E+00 0. -1.
         11    1    1    2    0    0 -0.24746434448E+01  0.10702751249E+03 -0.22484750929E+03  0.24903295911E+03  0.00000000000E+00 0.  1.
</event>
<event>
 7    1  0.3009963E-009  0.1632173E+03  0.7561462E-02  0.1185112E+00
         -3   -1    0    0    0  501 -0.00000000000E+00  0.00000000000E+00  0.93049493442E+02  0.93049493442E+02  0.00000000000E+00 0.  1.
          3   -1    0    0  501    0  0.00000000000E+00 -0.00000000000E+00 -0.36455877655E+03  0.36455877655E+03  0.00000000000E+00 0. -1.
         25    2    1    2    0    0 -0.79300142499E+02 -0.11449528505E+03 -0.20699023582E+03  0.27908694456E+03  0.12508749738E+03 0.  0.
          5    1    3    3  502    0 -0.94228494153E+02 -0.28617006534E+02 -0.12651040308E+03  0.16037548647E+03  0.41800000000E+01 0.  1.
         -5    1    3    3    0  502  0.14928351654E+02 -0.85878278519E+02 -0.80479832742E+02  0.11871145809E+03  0.41800000000E+01 0.  1.
        -11    1    1    2    0    0  0.68645323827E+02  0.85102459601E+02 -0.28434852881E+01  0.10937410353E+03  0.00000000000E+00 0.  1.
         11    1    1    2    0    0  0.10654818672E+02  0.29392825453E+02 -0.61675562001E+02  0.69147221905E+02  0.00000000000E+00 0. -1.
</event>
<event>
 7    1  0.2943257E-009  0.8823284E+02  0.7561462E-02  0.1307188E+00
         -1   -1    0    0    0  501 -0.00000000000E+00  0.00000000000E+00  0.18207208159E+02  0.18207208159E+02  0.00000000000E+00 0.  1.
          1   -1    0    0  501    0  0.00000000000E+00 -0.00000000000E+00 -0.63668352435E+03  0.63668352435E+03  0.00000000000E+00 0. -1.
         25    2    1    2    0    0 -0.65138564024E+01  0.41876449015E+02 -0.43956601545E+03  0.45897868028E+03  0.12508828762E+03 0.  0.
          5    1    3    3  502    0  0.31664579797E+02  0.60159928193E+02 -0.37836800598E+03  0.38444984448E+03  0.41800000000E+01 0.  1.
         -5    1    3    3    0  502 -0.38178436200E+02 -0.18283479178E+02 -0.61198009476E+02  0.74528835797E+02  0.41800000000E+01 0.  1.
        -11    1    1    2    0    0  0.26368053118E+02 -0.98751233147E+01 -0.13571450301E+03  0.13860454037E+03  0.00000000000E+00 0. -1.
         11    1    1    2    0    0 -0.19854196715E+02 -0.32001325700E+02 -0.43195797731E+02  0.57307511858E+02  0.00000000000E+00 0.  1.
</event>
<event>
 7    1  0.2943257E-009  0.1117673E+03  0.7561462E-02  0.1257332E+00
         -3   -1    0    0    0  501 -0.00000000000E+00  0.00000000000E+00  0.10006297745E+04  0.10006297745E+04  0.00000000000E+00 0.  1.
          3   -1    0    0  501    0  0.00000000000E+00 -0.00000000000E+00 -0.27176422620E+02  0.27176422620E+02  0.00000000000E+00 0. -1.
         25    2    1    2    0    0 -0.51805107970E+02 -0.67919976667E+02  0.79382908638E+03  0.80815186502E+03  0.12509167084E+03 0.  0.
          5    1    3    3  502    0  0.10640820048E+02 -0.31104096768E+02  0.60401721776E+03  0.60492558521E+03  0.41800000000E+01 0.  1.
         -5    1    3    3    0  502 -0.62445928019E+02 -0.36815879899E+02  0.18981186862E+03  0.20322627982E+03  0.41800000000E+01 0.  1.
        -11    1    1    2    0    0 -0.48861858996E+01 -0.15877393489E+02  0.41820241845E+01  0.17130550573E+02  0.00000000000E+00 0. -1.
         11    1    1    2    0    0  0.56691293870E+02  0.83797370156E+02  0.17544224132E+03  0.20252378153E+03  0.00000000000E+00 0.  1.
</event>
<event>
 7    1  0.2943257E-009  0.1119418E+03  0.7561462E-02  0.1257016E+00
         -1   -1    0    0    0  501 -0.00000000000E+00  0.00000000000E+00  0.27204851772E+02  0.27204851772E+02  0.00000000000E+00 0.  1.
          1   -1    0    0  501    0  0.00000000000E+00 -0.00000000000E+00 -0.51593271858E+03  0.51593271858E+03  0.00000000000E+00 0. -1.
         25    2    1    2    0    0  0.41660877785E+02 -0.50115049781E+01 -0.28802959848E+03  0.31681011131E+03  0.12508738188E+03 0.  0.
          5    1    3    3  502    0  0.83201464420E+02  0.12911781065E+02 -0.15819089206E+03  0.17925129987E+03  0.41800000000E+01 0. -1.
         -5    1    3    3    0  502 -0.41540586635E+02 -0.17923286043E+02 -0.12983870642E+03  0.13755881144E+03  0.41800000000E+01 0. -1.
        -11    1    1    2    0    0 -0.57551966738E+01  0.42120164490E+02 -0.14162514108E+03  0.14786788404E+03  0.00000000000E+00 0. -1.
         11    1    1    2    0    0 -0.35905681111E+02 -0.37108659512E+02 -0.59073127241E+02  0.78459574998E+02  0.00000000000E+00 0.  1.
</event>
<event>
 7    1  0.2943257E-009  0.7105973E+02  0.7561462E-02  0.1356526E+00
          2   -1    0    0  501    0  0.00000000000E+00  0.00000000000E+00  0.16570393460E+03  0.16570393460E+03  0.00000000000E+00 0.  1.
         -2   -1    0    0    0  501 -0.00000000000E+00 -0.00000000000E+00 -0.84447593259E+02  0.84447593259E+02  0.00000000000E+00 0. -1.
         25    2    1    2    0    0  0.13521180008E+02 -0.22770567942E+02  0.57045255835E+01  0.12799042431E+03  0.12509071120E+03 0.  0.
          5    1    3    3  502    0  0.20415967882E+02  0.11853385077E+02 -0.53672948792E+02  0.58784116174E+02  0.41800000000E+01 0.  1.
         -5    1    3    3    0  502 -0.68947878733E+01 -0.34623953019E+02  0.59377474376E+02  0.69206308135E+02  0.41800000000E+01 0.  1.
        -11    1    1    2    0    0 -0.25348643777E+02  0.48250145649E+02  0.76645746119E+02  0.94048927132E+02  0.00000000000E+00 0. -1.
         11    1    1    2    0    0  0.11827463768E+02 -0.25479577707E+02 -0.10939303606E+01  0.28112176418E+02  0.00000000000E+00 0.  1.
</event>
<event>
 7    1  0.2943257E-009  0.1143736E+03  0.7561462E-02  0.1252678E+00
         -2   -1    0    0    0  501 -0.00000000000E+00  0.00000000000E+00  0.46314882789E+02  0.46314882789E+02  0.00000000000E+00 0.  1.
          2   -1    0    0  501    0  0.00000000000E+00 -0.00000000000E+00 -0.39362152624E+03  0.39362152624E+03  0.00000000000E+00 0. -1.
         25    2    1    2    0    0  0.62010671735E+02 -0.47570392166E+02 -0.16738313072E+03  0.22309718908E+03  0.12508787994E+03 0.  0.
          5    1    3    3  502    0 -0.33370018830E+02  0.10906983525E+02 -0.35526337509E+02  0.50120988649E+02  0.41800000000E+01 0.  1.
         -5    1    3    3    0  502  0.95380690566E+02 -0.58477375692E+02 -0.13185679321E+03  0.17297620044E+03  0.41800000000E+01 0.  1.
        -11    1    1    2    0    0 -0.47601547077E+02  0.47177732124E+02 -0.18850447135E+03  0.20006394331E+03  0.00000000000E+00 0. -1.
         11    1    1    2    0    0 -0.14409124659E+02  0.39266004226E+00  0.85809586232E+01  0.16775276637E+02  0.00000000000E+00 0.  1.
</event>
<event>
 7    1  0.2943257E-009  0.2209358E+03  0.7561462E-02  0.1133187E+00
          1   -1    0    0  501    0  0.00000000000E+00  0.00000000000E+00  0.92030798685E+03  0.92030798685E+03  0.00000000000E+00 0. -1.
         -1   -1    0    0    0  501 -0.00000000000E+00 -0.00000000000E+00 -0.61323544274E+02  0.61323544274E+02  0.00000000000E+00 0.  1.
         25    2    1    2    0    0 -0.14269683150E+03  0.15505845373E+03  0.48216745271E+03  0.54087000352E+03  0.12509755577E+03 0.  0.
          5    1    3    3  502    0 -0.60596575047E+02  0.13239561500E+03  0.20937804742E+03  0.25506309596E+03  0.41800000000E+01 0. -1.
         -5    1    3    3    0  502 -0.82100256457E+02  0.22662838723E+02  0.27278940530E+03  0.28580690756E+03  0.41800000000E+01 0. -1.
        -11    1    1    2    0    0  0.80677155068E+02 -0.94471352309E+02  0.13304113493E+03  0.18202632595E+03  0.00000000000E+00 0.  1.
         11    1    1    2    0    0  0.62019676436E+02 -0.60587101418E+02  0.24377585494E+03  0.25873520165E+03  0.00000000000E+00 0. -1.
</event>
<event>
 7    1  0.2943257E-009  0.8825205E+02  0.7561462E-02  0.1307141E+00
          2   -1    0    0  501    0  0.00000000000E+00  0.00000000000E+00  0.83269634515E+02  0.83269634515E+02  0.00000000000E+00 0. -1.
         -2   -1    0    0    0  501 -0.00000000000E+00 -0.00000000000E+00 -0.17449243821E+03  0.17449243821E+03  0.00000000000E+00 0.  1.
         25    2    1    2    0    0 -0.38096806872E+02  0.21911832276E+02 -0.58463550991E+02  0.14490322029E+03  0.12508981320E+03 0.  0.
          5    1    3    3  502    0 -0.17472624157E+02 -0.46337666544E+02  0.42190096949E+01  0.49877293215E+02  0.41800000000E+01 0. -1.
         -5    1    3    3    0  502 -0.20624182716E+02  0.68249498819E+02 -0.62682560686E+02  0.95025927072E+02  0.41800000000E+01 0. -1.
        -11    1    1    2    0    0  0.25476306046E+02  0.47244222080E+01 -0.64520135335E+02  0.69528484800E+02  0.00000000000E+00 0.  1.
         11    1    1    2    0    0  0.12620500826E+02 -0.26636254484E+02  0.31760882631E+02  0.43330367637E+02  0.00000000000E+00 0. -1.
</event>
<event>
 7    1  0.2943257E-009  0.1038729E+03  0.7561462E-02  0.1272356E+00
          1   -1    0    0  501    0  0.00000000000E+00  0.00000000000E+00  0.36657326494E+03  0.36657326494E+03  0.00000000000E+00 0. -1.
         -1   -1    0    0    0  501 -0.00000000000E+00 -0.00000000000E+00 -0.46197371269E+02  0.46197371269E+02  0.00000000000E+00 0.  1.
         25    2    1    2    0    0 -0.42380848777E+02 -0.29917735223E+02  0.25702768997E+03  0.29051952271E+03  0.12508857837E+03 0.  0.
          5    1    3    3  502    0 -0.67215847949E+02 -0.53342663702E+02  0.11027806137E+03  0.13979318011E+03  0.41800000000E+01 0. -1.
         -5    1    3    3    0  502  0.24834999171E+02  0.23424928479E+02  0.14674962860E+03  0.15072634260E+03  0.41800000000E+01 0. -1.
        -11    1    1    2    0    0  0.59315135738E+02  0.81686256973E+01  0.71734712849E+02  0.93439182364E+02  0.00000000000E+00 0. -1.
         11    1    1    2    0    0 -0.16934286960E+02  0.21749109526E+02 -0.83865091490E+01  0.28811931135E+02  0.00000000000E+00 0.  1.
</event>
<event>
 7    1  0.2943257E-009  0.1130043E+03  0.7561462E-02  0.1255105E+00
         -1   -1    0    0    0  501 -0.00000000000E+00  0.00000000000E+00  0.33103065084E+03  0.33103065084E+03  0.00000000000E+00 0.  1.
          1   -1    0    0  501    0  0.00000000000E+00 -0.00000000000E+00 -0.46274336059E+02  0.46274336059E+02  0.00000000000E+00 0. -1.
         25    2    1    2    0    0  0.12274588947E+02 -0.57032161796E+02  0.13746944540E+03  0.19480363503E+03  0.12508906742E+03 0.  0.
          5    1    3    3  502    0 -0.46722725884E+02 -0.62440874077E+02  0.86491890749E+02  0.11653409559E+03  0.41800000000E+01 0.  1.
         -5    1    3    3    0  502  0.58997314831E+02  0.54087122811E+01  0.50977554646E+02  0.78269539436E+02  0.41800000000E+01 0.  1.
        -11    1    1    2    0    0  0.27580997237E+02  0.19554490049E+02  0.11296925761E+03  0.11792006892E+03  0.00000000000E+00 0.  1.
         11    1    1    2    0    0 -0.39855586184E+02  0.37477671746E+02  0.34317611774E+02  0.64581282950E+02  0.00000000000E+00 0. -1.
</event>
<event>
 7    1  0.2943257E-009  0.9139390E+02  0.7561462E-02  0.1299511E+00
          2   -1    0    0  501    0  0.00000000000E+00  0.00000000000E+00  0.33843615022E+02  0.33843615022E+02  0.00000000000E+00 0.  1.
         -2   -1    0    0    0  501 -0.00000000000E+00 -0.00000000000E+00 -0.38215399298E+03  0.38215399298E+03  0.00000000000E+00 0. -1.
         25    2    1    2    0    0  0.15077580867E+01  0.56228507672E+00 -0.27217752955E+03  0.29954952143E+03  0.12508684462E+03 0.  0.
          5    1    3    3  502    0  0.53133146223E+02  0.17059460503E+01 -0.56309097502E+02  0.77551456085E+02  0.41800000000E+01 0.  1.
         -5    1    3    3    0  502 -0.51625388136E+02 -0.11436609736E+01 -0.21586843205E+03  0.22199806534E+03  0.41800000000E+01 0.  1.
        -11    1    1    2    0    0  0.21084823145E+02 -0.32376045142E+02 -0.10409049682E+02  0.40014077290E+02  0.00000000000E+00 0.  1.
         11    1    1    2    0    0 -0.22592581232E+02  0.31813760065E+02 -0.65723798724E+02  0.76434009282E+02  0.00000000000E+00 0. -1.
</event>
<event>
 6    1  0.2943257E-009  0.1463987E+03  0.7561462E-02  0.1204969E+00
         -4   -1    0    0    0  501 -0.00000000000E+00  0.00000000000E+00  0.12486900208E+04  0.12486900208E+04  0.00000000000E+00 0.  1.
          4   -1    0    0  501    0  0.00000000000E+00 -0.00000000000E+00 -0.29150683818E+02  0.29150683818E+02  0.00000000000E+00 0. -1.
          5    1    1    2  502    0 -0.37405351945E+02 -0.49130294714E+02  0.64898065441E+03  0.65192507884E+03  0.41800000000E+01 0. -1.
         -5    1    1    2    0  502  0.60506251081E+02 -0.68676804791E+02  0.34001189786E+03  0.35214070060E+03  0.41800000000E+01 0. -1.
        -11    1    1    2    0    0 -0.36179585096E+02  0.21487647398E+02  0.11682148448E+03  0.12416900018E+03  0.00000000000E+00 0.  1.
         11    1    1    2    0    0  0.13078685960E+02  0.96319452107E+02  0.11372530019E+03  0.14960592496E+03  0.00000000000E+00 0. -1.
</event>
<event>
 7    1  0.2943257E-009  0.8908252E+02  0.7561462E-02  0.1305089E+00
         -2   -1    0    0    0  501 -0.00000000000E+00  0.00000000000E+00  0.15620819949E+03  0.15620819949E+03  0.00000000000E+00 0.  1.
          2   -1    0    0  501    0  0.00000000000E+00 -0.00000000000E+00 -0.13008973266E+03  0.13008973266E+03  0.00000000000E+00 0. -1.
         25    2    1    2    0    0  0.10676239003E+02  0.44987415384E+02  0.94413110123E+02  0.16339875431E+03  0.12508983942E+03 0.  0.
          5    1    3    3  502    0  0.91180715148E+01 -0.15761352525E+02 -0.23894460027E+02  0.30331123975E+02  0.41800000000E+01 0. -1.
         -5    1    3    3    0  502  0.15581674882E+01  0.60748767910E+02  0.11830757015E+03  0.13306763034E+03  0.41800000000E+01 0. -1.
        -11    1    1    2    0    0  0.16997159925E+02  0.20999014417E+02 -0.34351301398E+02  0.43702104752E+02  0.00000000000E+00 0. -1.
         11    1    1    2    0    0 -0.27673398928E+02 -0.65986429802E+02 -0.33943341903E+02  0.79197073088E+02  0.00000000000E+00 0.  1.
</event>
<event>
 7    1  0.2943257E-009  0.1153895E+03  0.7561462E-02  0.1250903E+00
         -3   -1    0    0    0  501 -0.00000000000E+00  0.00000000000E+00  0.34431865519E+02  0.34431865519E+02  0.00000000000E+00 0.  1.
          3   -1    0    0  501    0  0.00000000000E+00 -0.00000000000E+00 -0.57573113065E+03  0.57573113065E+03  0.00000000000E+00 0. -1.
         25    2    1    2    0    0 -0.77208514860E+02 -0.98422654038E+01 -0.39153484751E+03  0.41834214745E+03  0.12511031356E+03 0.  0.
          5    1    3    3  502    0 -0.67201584828E+01  0.32479927330E+02 -0.26682191169E+03  0.26890799759E+03  0.41800000000E+01 0. -1.
         -5    1    3    3    0  502 -0.70488356377E+02 -0.42322192734E+02 -0.12471293582E+03  0.14943414986E+03  0.41800000000E+01 0. -1.
        -11    1    1    2    0    0  0.71423830425E+02 -0.28019800361E+02 -0.72381021937E+02  0.10547741512E+03  0.00000000000E+00 0.  1.
         11    1    1    2    0    0  0.57846844350E+01  0.37862065765E+02 -0.77383395677E+02  0.86343433593E+02  0.00000000000E+00 0. -1.
</event>
<event>
 7    1  0.2943257E-009  0.1029549E+03  0.7561462E-02  0.1274202E+00
          2   -1    0    0  501    0  0.00000000000E+00  0.00000000000E+00  0.58287509666E+03  0.58287509666E+03  0.00000000000E+00 0. -1.
         -2   -1    0    0    0  501 -0.00000000000E+00 -0.00000000000E+00 -0.50129351619E+02  0.50129351619E+02  0.00000000000E+00 0.  1.
         25    2    1    2    0    0 -0.53925750660E+02  0.18633002032E+02  0.50419289513E+03  0.52260241157E+03  0.12509048620E+03 0.  0.
          5    1    3    3  502    0  0.32277403308E+02 -0.61549729997E+01  0.52538995948E+02  0.62109040825E+02  0.41800000000E+01 0.  1.
         -5    1    3    3    0  502 -0.86203153968E+02  0.24787975031E+02  0.45165389918E+03  0.46049337075E+03  0.41800000000E+01 0.  1.
        -11    1    1    2    0    0  0.11805653386E+02 -0.35658000587E+02  0.48029008678E+02  0.60972552287E+02  0.00000000000E+00 0. -1.
         11    1    1    2    0    0  0.42120097273E+02  0.17024998556E+02 -0.19476158761E+02  0.49429484422E+02  0.00000000000E+00 0.  1.
</event>
<event>
 7    1  0.2943257E-009  0.1504967E+03  0.7561462E-02  0.1199864E+00
          2   -1    0    0  501    0  0.00000000000E+00  0.00000000000E+00  0.44295556452E+02  0.44295556452E+02  0.00000000000E+00 0. -1.
         -2   -1    0    0    0  501 -0.00000000000E+00 -0.00000000000E+00 -0.60176020563E+03  0.60176020563E+03  0.00000000000E+00 0.  1.
         25    2    1    2    0    0 -0.40125275341E+02 -0.10888205640E+03 -0.25255937058E+03  0.30479501536E+03  0.12509366807E+03 0.  0.
          5    1    3    3  502    0  0.30787900626E+02 -0.49215643419E+02 -0.34105473274E+02  0.67459099382E+02  0.41800000000E+01 0. -1.
         -5    1    3    3    0  502 -0.70913175968E+02 -0.59666412985E+02 -0.21845389730E+03  0.23733591597E+03  0.41800000000E+01 0. -1.
        -11    1    1    2    0    0 -0.31450611342E+02  0.29262835662E+02 -0.58299773744E+02  0.72417664443E+02  0.00000000000E+00 0.  1.
         11    1    1    2    0    0  0.71575886684E+02  0.79619220742E+02 -0.24660550485E+03  0.26884308228E+03  0.00000000000E+00 0. -1.
</event>
<event>
 7    1  0.2943257E-009  0.9303722E+02  0.7561462E-02  0.1295659E+00
          1   -1    0    0  501    0  0.00000000000E+00  0.00000000000E+00  0.38885013121E+03  0.38885013121E+03  0.00000000000E+00 0. -1.
         -1   -1    0    0    0  501 -0.00000000000E+00 -0.00000000000E+00 -0.45017189556E+02  0.45017189556E+02  0.00000000000E+00 0.  1.
         25    2    1    2    0    0 -0.36546665913E+02 -0.64423011936E+02  0.15585606416E+03  0.21312458151E+03  0.12507993945E+03 0.  0.
          5    1    3    3  502    0 -0.26036324799E+01 -0.56707407121E+02  0.37651960985E+01  0.57045227899E+02  0.41800000000E+01 0.  1.
         -5    1    3    3    0  502 -0.33943033433E+02 -0.77156048156E+01  0.15209086806E+03  0.15607935361E+03  0.41800000000E+01 0.  1.
        -11    1    1    2    0    0  0.10157998741E+02  0.66828913376E+02  0.18119115712E+03  0.19338956544E+03  0.00000000000E+00 0. -1.
         11    1    1    2    0    0  0.26388667172E+02 -0.24059014398E+01  0.67857203730E+01  0.27353173817E+02  0.00000000000E+00 0.  1.
</event>
<event>
 7    1  0.2943257E-009  0.6766737E+02  0.7561462E-02  0.1368210E+00
          1   -1    0    0  501    0  0.00000000000E+00  0.00000000000E+00  0.20007172140E+03  0.20007172140E+03  0.00000000000E+00 0. -1.
         -1   -1    0    0    0  501 -0.00000000000E+00 -0.00000000000E+00 -0.78938847768E+02  0.78938847768E+02  0.00000000000E+00 0.  1.
         25    2    1    2    0    0  0.69509414315E+00 -0.13585443941E+02 -0.10267243490E+01  0.12583598787E+03  0.12509434135E+03 0.  0.
          5    1    3    3  502    0  0.17034171964E+02  0.12564956811E+02 -0.57468283630E+02  0.61384991468E+02  0.41800000000E+01 0.  1.
         -5    1    3    3    0  502 -0.16339077821E+02 -0.26150400752E+02  0.56441559281E+02  0.64450996405E+02  0.41800000000E+01 0.  1.
        -11    1    1    2    0    0  0.26076111034E+02 -0.24704970403E+02  0.88731040889E+02  0.95726154976E+02  0.00000000000E+00 0. -1.
         11    1    1    2    0    0 -0.26771205178E+02  0.38290414344E+02  0.33428557092E+02  0.57448426319E+02  0.00000000000E+00 0.  1.
</event>
<event>
 7    1  0.2943257E-009  0.8971202E+02  0.7561462E-02  0.1303551E+00
         -2   -1    0    0    0  501 -0.00000000000E+00  0.00000000000E+00  0.32412578482E+02  0.32412578482E+02  0.00000000000E+00 0.  1.
          2   -1    0    0  501    0  0.00000000000E+00 -0.00000000000E+00 -0.43039722068E+03  0.43039722068E+03  0.00000000000E+00 0. -1.
         25    2    1    2    0    0  0.23979882925E+02  0.11027086045E+02 -0.29558701708E+03  0.32204948070E+03  0.12509017525E+03 0.  0.
          5    1    3    3  502    0  0.59542372708E+02 -0.29836457540E+02 -0.10986244244E+03  0.12854079899E+03  0.41800000000E+01 0.  1.
         -5    1    3    3    0  502 -0.35562489783E+02  0.40863543585E+02 -0.18572457463E+03  0.19350868171E+03  0.41800000000E+01 0.  1.
        -11    1    1    2    0    0 -0.90818392778E+01  0.21087045208E+02  0.83972781360E+01  0.24447035820E+02  0.00000000000E+00 0.  1.
         11    1    1    2    0    0 -0.14898043648E+02 -0.32114131253E+02 -0.11079490326E+03  0.11631328264E+03  0.00000000000E+00 0. -1.
</event>
<event>
 7    1  0.2943257E-009  0.7708686E+02  0.7561462E-02  0.1337528E+00
          2   -1    0    0  501    0  0.00000000000E+00  0.00000000000E+00  0.88211971647E+03  0.88211971647E+03  0.00000000000E+00 0.  1.
         -2   -1    0    0    0  501 -0.00000000000E+00 -0.00000000000E+00 -0.23413757661E+02  0.23413757661E+02  0.00000000000E+00 0. -1.
         25    2    1    2    0    0  0.22700249810E+02 -0.37131984863E+02  0.72759691464E+03  0.73955320532E+03  0.12509031803E+03 0.  0.
          5    1    3    3  502    0 -0.39185831012E+01 -0.29878797428E+02  0.69877350827E+03  0.69943547672E+03  0.41800000000E+01 0. -1.
         -5    1    3    3    0  502  0.26618832911E+02 -0.72531874352E+01  0.28823406369E+02  0.40117728602E+02  0.41800000000E+01 0. -1.
        -11    1    1    2    0    0 -0.28823395864E+01  0.63107948533E+02  0.11069905597E+03  0.12745666731E+03  0.00000000000E+00 0.  1.
         11    1    1    2    0    0 -0.19817910223E+02 -0.25975963670E+02  0.20409988200E+02  0.38523601500E+02  0.00000000000E+00 0. -1.
</event>
<event>
 7    1  0.2943257E-009  0.1018515E+03  0.7561462E-02  0.1276450E+00
          2   -1    0    0  501    0  0.00000000000E+00  0.00000000000E+00  0.26369452970E+03  0.26369452970E+03  0.00000000000E+00 0. -1.
         -2   -1    0    0    0  501 -0.00000000000E+00 -0.00000000000E+00 -0.57155360791E+02  0.57155360791E+02  0.00000000000E+00 0.  1.
         25    2    1    2    0    0 -0.32586022506E+02 -0.27532671208E+02  0.11506024249E+03  0.17523111992E+03  0.12508872507E+03 0.  0.
          5    1    3    3  502    0 -0.12108935513E+02 -0.73542680382E+02  0.39850305530E+02  0.84620750457E+02  0.41800000000E+01 0.  1.
         -5    1    3    3    0  502 -0.20477086993E+02  0.46010009175E+02  0.75209936960E+02  0.90610369459E+02  0.41800000000E+01 0.  1.
        -11    1    1    2    0    0  0.23798024713E+02 -0.19441389452E+02  0.92857187400E+02  0.97809870953E+02  0.00000000000E+00 0. -1.
         11    1    1    2    0    0  0.87879977925E+01  0.46974060659E+02 -0.13782609782E+01  0.47808899625E+02  0.00000000000E+00 0.  1.
</event>
<event>
 7    1  0.2943257E-009  0.1354809E+03  0.7561462E-02  0.1219542E+00
          1   -1    0    0  501    0  0.00000000000E+00  0.00000000000E+00  0.14338603322E+03  0.14338603322E+03  0.00000000000E+00 0. -1.
         -1   -1    0    0    0  501 -0.00000000000E+00 -0.00000000000E+00 -0.16666927140E+03  0.16666927140E+03  0.00000000000E+00 0.  1.
         25    2    1    2    0    0 -0.46820353936E+02 -0.96648934751E+02  0.11774442395E+02  0.16528491218E+03  0.12508917847E+03 0.  0.
          5    1    3    3  502    0 -0.83325276076E+02 -0.33045786094E+02 -0.52304332826E+01  0.89888572377E+02  0.41800000000E+01 0. -1.
         -5    1    3    3    0  502  0.36504922140E+02 -0.63603148657E+02  0.17004875677E+02  0.75396339807E+02  0.41800000000E+01 0. -1.
        -11    1    1    2    0    0  0.87881081724E+01  0.27288213386E+02  0.30626924011E+02  0.41950994141E+02  0.00000000000E+00 0. -1.
         11    1    1    2    0    0  0.38032245763E+02  0.69360721365E+02 -0.65684604591E+02  0.10281939830E+03  0.00000000000E+00 0.  1.
</event>
<event>
 7    1  0.2943257E-009  0.7906716E+02  0.7561462E-02  0.1331720E+00
         -1   -1    0    0    0  501 -0.00000000000E+00  0.00000000000E+00  0.85251840257E+02  0.85251840257E+02  0.00000000000E+00 0.  1.
          1   -1    0    0  501    0  0.00000000000E+00 -0.00000000000E+00 -0.20691103511E+03  0.20691103511E+03  0.00000000000E+00 0. -1.
         25    2    1    2    0    0 -0.31784767101E+02  0.27230666766E+02 -0.12794047130E+03  0.18373580003E+03  0.12505318622E+03 0.  0.
          5    1    3    3  502    0 -0.54753103914E+01  0.24770004568E+02  0.20513297103E+02  0.32890726782E+02  0.41800000000E+01 0.  1.
         -5    1    3    3    0  502 -0.26309456709E+02  0.24606621974E+01 -0.14845376840E+03  0.15084507325E+03  0.41800000000E+01 0.  1.
        -11    1    1    2    0    0 -0.35136769004E+02 -0.10858115650E+02 -0.89911723142E+01  0.37859376528E+02  0.00000000000E+00 0.  1.
         11    1    1    2    0    0  0.66921536105E+02 -0.16372551115E+02  0.15272448756E+02  0.70567698812E+02  0.00000000000E+00 0. -1.
</event>
<event>
 6    1  0.2943257E-009  0.1697880E+03  0.7561462E-02  0.1178069E+00
          2   -1    0    0  501    0  0.00000000000E+00  0.00000000000E+00  0.67943744626E+03  0.67943744626E+03  0.00000000000E+00 0. -1.
         -2   -1    0    0    0  501 -0.00000000000E+00 -0.00000000000E+00 -0.64230707357E+02  0.64230707357E+02  0.00000000000E+00 0.  1.
          5    1    1    2  502    0 -0.46846900255E+02  0.20441635783E+02  0.19462007061E+02  0.54851933930E+02  0.41800000000E+01 0. -1.
         -5    1    1    2    0  502 -0.46095728138E+02 -0.12566786993E+03  0.11387836711E+03  0.17579244745E+03  0.41800000000E+01 0. -1.
        -11    1    1    2    0    0  0.49721263972E+02  0.11315106735E+02  0.60318118208E+02  0.78984245996E+02  0.00000000000E+00 0.  1.
         11    1    1    2    0    0  0.43221364422E+02  0.93911127408E+02  0.42154824653E+03  0.43403952625E+03  0.00000000000E+00 0. -1.
</event>
<event>
 7    1  0.2943257E-009  0.1268597E+03  0.7561462E-02  0.1232191E+00
         -2   -1    0    0    0  501 -0.00000000000E+00  0.00000000000E+00  0.35768226299E+02  0.35768226299E+02  0.00000000000E+00 0.  1.
          2   -1    0    0  501    0  0.00000000000E+00 -0.00000000000E+00 -0.71773731980E+03  0.71773731980E+03  0.00000000000E+00 0. -1.
         25    2    1    2    0    0 -0.75461849409E+02  0.88835778336E+01 -0.57224294013E+03  0.59066330180E+03  0.12509094649E+03 0.  0.
          5    1    3    3  502    0 -0.17599179681E+02 -0.48526032196E+02 -0.35189489373E+03  0.35568524788E+03  0.41800000000E+01 0. -1.
         -5    1    3    3    0  502 -0.57862669728E+02  0.57409610029E+02 -0.22034804640E+03  0.23497805392E+03  0.41800000000E+01 0. -1.
        -11    1    1    2    0    0 -0.22235955649E+02 -0.30237732358E+01 -0.19669678713E+02  0.29840864413E+02  0.00000000000E+00 0.  1.
         11    1    1    2    0    0  0.97697805058E+02 -0.58598045978E+01 -0.90056474652E+02  0.13300137988E+03  0.00000000000E+00 0. -1.
</event>
<event>
 7    1  0.2943257E-009  0.1363844E+03  0.7561462E-02  0.1218278E+00
         -1   -1    0    0    0  501 -0.00000000000E+00  0.00000000000E+00  0.32059231331E+02  0.32059231331E+02  0.00000000000E+00 0.  1.
          1   -1    0    0  501    0  0.00000000000E+00 -0.00000000000E+00 -0.12095047807E+04  0.12095047807E+04  0.00000000000E+00 0. -1.
         25    2    1    2    0    0 -0.71076128491E+02 -0.23114600060E+02 -0.99934125216E+03  0.10099093697E+04  0.12509155040E+03 0.  0.
          5    1    3    3  502    0 -0.72511497002E+02 -0.58850621424E+02 -0.88761128924E+03  0.89252035608E+03  0.41800000000E+01 0. -1.
         -5    1    3    3    0  502  0.14353685110E+01  0.35736021364E+02 -0.11172996293E+03  0.11738901363E+03  0.41800000000E+01 0. -1.
        -11    1    1    2    0    0  0.99336483026E+02  0.43489941553E+02 -0.10633383394E+03  0.15187493578E+03  0.00000000000E+00 0.  1.
         11    1    1    2    0    0 -0.28260354536E+02 -0.20375341492E+02 -0.71770463308E+02  0.79779706585E+02  0.00000000000E+00 0. -1.
</event>
<event>
 7    1  0.2943257E-009  0.2515828E+03  0.7561462E-02  0.1112309E+00
          1   -1    0    0  501    0  0.00000000000E+00  0.00000000000E+00  0.73473301699E+03  0.73473301699E+03  0.00000000000E+00 0. -1.
         -1   -1    0    0    0  501 -0.00000000000E+00 -0.00000000000E+00 -0.97809004879E+02  0.97809004879E+02  0.00000000000E+00 0.  1.
         25    2    1    2    0    0  0.21147334799E+03 -0.11558289360E+03  0.39436367951E+03  0.47880171030E+03  0.12509190169E+03 0.  0.
          5    1    3    3  502    0  0.51583366807E+02 -0.62775072619E+02  0.22790329220E+03  0.24198953793E+03  0.41800000000E+01 0.  1.
         -5    1    3    3    0  502  0.15988998118E+03 -0.52807820979E+02  0.16646038731E+03  0.23681217237E+03  0.41800000000E+01 0.  1.
        -11    1    1    2    0    0 -0.11543972112E+03  0.18676265068E+02  0.14363181351E+03  0.18521671075E+03  0.00000000000E+00 0. -1.
         11    1    1    2    0    0 -0.96033626865E+02  0.96906628530E+02  0.98928519091E+02  0.16852360081E+03  0.00000000000E+00 0.  1.
</event>
<event>
 7    1  0.2943257E-009  0.1328553E+03  0.7561462E-02  0.1223279E+00
          1   -1    0    0  501    0  0.00000000000E+00  0.00000000000E+00  0.81998761216E+03  0.81998761216E+03  0.00000000000E+00 0. -1.
         -1   -1    0    0    0  501 -0.00000000000E+00 -0.00000000000E+00 -0.26733619199E+02  0.26733619199E+02  0.00000000000E+00 0.  1.
         25    2    1    2    0    0 -0.42033380357E+02 -0.87213652500E+02  0.34901472185E+03  0.38319342975E+03  0.12511155937E+03 0.  0.
          5    1    3    3  502    0  0.43481630663E+02 -0.15552238499E+02  0.94295923818E+02  0.10507957925E+03  0.41800000000E+01 0. -1.
         -5    1    3    3    0  502 -0.85515011020E+02 -0.71661414000E+02  0.25471879804E+03  0.27811385050E+03  0.41800000000E+01 0. -1.
        -11    1    1    2    0    0  0.27029541511E+02  0.96641593930E+01  0.28859139096E+02  0.40704324100E+02  0.00000000000E+00 0.  1.
         11    1    1    2    0    0  0.15003838846E+02  0.77549493107E+02  0.41538013201E+03  0.42282347750E+03  0.00000000000E+00 0. -1.
</event>
<event>
 7    1  0.2943257E-009  0.1682745E+03  0.7561462E-02  0.1179659E+00
         -2   -1    0    0    0  501 -0.00000000000E+00  0.00000000000E+00  0.35933312646E+03  0.35933312646E+03  0.00000000000E+00 0.  1.
          2   -1    0    0  501    0  0.00000000000E+00 -0.00000000000E+00 -0.12014440130E+03  0.12014440130E+03  0.00000000000E+00 0. -1.
         25    2    1    2    0    0 -0.31585523238E+02 -0.14868771008E+03  0.20454068225E+02  0.19791629004E+03  0.12508720379E+03 0.  0.
          5    1    3    3  502    0 -0.45386302758E+02 -0.12654704685E+03 -0.32818843795E+02  0.13845078711E+03  0.41800000000E+01 0. -1.
         -5    1    3    3    0  502  0.13800779519E+02 -0.22140663227E+02  0.53272912020E+02  0.59465502928E+02  0.41800000000E+01 0. -1.
        -11    1    1    2    0    0  0.60913655278E+02  0.77099036581E+02  0.14127091723E+03  0.17208197726E+03  0.00000000000E+00 0. -1.
         11    1    1    2    0    0 -0.29328132040E+02  0.71588673495E+02  0.77463739709E+02  0.10947926046E+03  0.00000000000E+00 0.  1.
</event>
<event>
 7    1  0.2943257E-009  0.7634829E+02  0.7561462E-02  0.1339746E+00
          3   -1    0    0  501    0  0.00000000000E+00  0.00000000000E+00  0.21824114407E+03  0.21824114407E+03  0.00000000000E+00 0. -1.
         -3   -1    0    0    0  501 -0.00000000000E+00 -0.00000000000E+00 -0.54684055525E+02  0.54684055525E+02  0.00000000000E+00 0.  1.
         25    2    1    2    0    0 -0.41973698141E+01 -0.63188842414E+01  0.10015327272E+03  0.16042651600E+03  0.12509373600E+03 0.  0.
          5    1    3    3  502    0  0.46284056396E+02  0.31848952719E+02  0.70961787232E+02  0.90606938547E+02  0.41800000000E+01 0. -1.
         -5    1    3    3    0  502 -0.50481426210E+02 -0.38167836961E+02  0.29191485492E+02  0.69819577453E+02  0.41800000000E+01 0. -1.
        -11    1    1    2    0    0  0.12535531782E+02 -0.90415917410E+01 -0.21128587034E+02  0.26178371384E+02  0.00000000000E+00 0.  1.
         11    1    1    2    0    0 -0.83381619676E+01  0.15360475982E+02  0.84532402854E+02  0.86320312208E+02  0.00000000000E+00 0. -1.
</event>
<event>
 7    1  0.2943257E-009  0.1595336E+03  0.7561462E-02  0.1189224E+00
          1   -1    0    0  501    0  0.00000000000E+00  0.00000000000E+00  0.92402695922E+03  0.92402695922E+03  0.00000000000E+00 0. -1.
         -1   -1    0    0    0  501 -0.00000000000E+00 -0.00000000000E+00 -0.40484257196E+02  0.40484257196E+02  0.00000000000E+00 0.  1.
         25    2    1    2    0    0 -0.15702384362E+02 -0.12797873366E+03  0.67546697463E+03  0.69894697865E+03  0.12508446751E+03 0.  0.
          5    1    3    3  502    0  0.23206624264E+02 -0.10733924314E+03  0.61071134136E+03  0.62052080980E+03  0.41800000000E+01 0. -1.
         -5    1    3    3    0  502 -0.38909008626E+02 -0.20639490521E+02  0.64755633263E+02  0.78426168850E+02  0.41800000000E+01 0. -1.
        -11    1    1    2    0    0 -0.76030685764E+00 -0.18003119459E+02  0.20151469141E+02  0.27032796476E+02  0.00000000000E+00 0. -1.
         11    1    1    2    0    0  0.16462691219E+02  0.14598185312E+03  0.18792425826E+03  0.23853144129E+03  0.00000000000E+00 0.  1.
</event>
<event>
 7    1  0.2943257E-009  0.1337176E+03  0.7561462E-02  0.1222041E+00
          2   -1    0    0  501    0  0.00000000000E+00  0.00000000000E+00  0.31122902206E+03  0.31122902206E+03  0.00000000000E+00 0. -1.
         -2   -1    0    0    0  501 -0.00000000000E+00 -0.00000000000E+00 -0.62682922115E+02  0.62682922115E+02  0.00000000000E+00 0.  1.
         25    2    1    2    0    0  0.17963348600E+02 -0.86786966465E+02  0.13803721215E+03  0.20629389172E+03  0.12509291900E+03 0.  0.
          5    1    3    3  502    0 -0.48823481829E+02 -0.67506379896E+02  0.69343093683E+02  0.10847479314E+03  0.41800000000E+01 0. -1.
         -5    1    3    3    0  502  0.66786830429E+02 -0.19280586569E+02  0.68694118463E+02  0.97819098588E+02  0.41800000000E+01 0. -1.
        -11    1    1    2    0    0  0.18449416262E+02 -0.18619296207E+01  0.52299094958E+02  0.55489125744E+02  0.00000000000E+00 0. -1.
         11    1    1    2    0    0 -0.36412764862E+02  0.88648896086E+02  0.58209792846E+02  0.11212892671E+03  0.00000000000E+00 0.  1.
</event>
<event>
 7    1  0.2943257E-009  0.1015579E+03  0.7561462E-02  0.1277054E+00
         -2   -1    0    0    0  501 -0.00000000000E+00  0.00000000000E+00  0.75250720948E+02  0.75250720948E+02  0.00000000000E+00 0.  1.
          2   -1    0    0  501    0  0.00000000000E+00 -0.00000000000E+00 -0.18901354546E+03  0.18901354546E+03  0.00000000000E+00 0. -1.
         25    2    1    2    0    0  0.43150742856E+02 -0.65665302021E+01 -0.42117906030E+02  0.13902119730E+03  0.12509144400E+03 0.  0.
          5    1    3    3  502    0  0.67514435167E+02 -0.38853612051E+02  0.32768308977E+01  0.78076962966E+02  0.41800000000E+01 0.  1.
         -5    1    3    3    0  502 -0.24363692311E+02  0.32287081849E+02 -0.45394736928E+02  0.60944234330E+02  0.41800000000E+01 0.  1.
        -11    1    1    2    0    0 -0.34248922256E+02  0.38362041394E+02 -0.60163957270E+01  0.51776750701E+02  0.00000000000E+00 0.  1.
         11    1    1    2    0    0 -0.89018205999E+01 -0.31795511191E+02 -0.65628522758E+02  0.73466318414E+02  0.00000000000E+00 0. -1.
</event>
<event>
 7    1  0.2943257E-009  0.1362954E+03  0.7561462E-02  0.1218403E+00
          1   -1    0    0  501    0  0.00000000000E+00  0.00000000000E+00  0.34874002179E+03  0.34874002179E+03  0.00000000000E+00 0. -1.
         -1   -1    0    0    0  501 -0.00000000000E+00 -0.00000000000E+00 -0.61548984285E+02  0.61548984285E+02  0.00000000000E+00 0.  1.
         25    2    1    2    0    0 -0.87628172058E+02 -0.29692932394E+02  0.16045469584E+03  0.22350657732E+03  0.12509641848E+03 0.  0.
          5    1    3    3  502    0 -0.84866740185E+01 -0.52829454145E+02  0.12023781290E+03  0.13167224048E+03  0.41800000000E+01 0.  1.
         -5    1    3    3    0  502 -0.79141498039E+02  0.23136521751E+02  0.40216882936E+02  0.91834336845E+02  0.41800000000E+01 0.  1.
        -11    1    1    2    0    0  0.33542386925E+02 -0.37363619963E+02  0.56861141257E+02  0.75857242254E+02  0.00000000000E+00 0.  1.
         11    1    1    2    0    0  0.54085785133E+02  0.67056552358E+02  0.69875200411E+02  0.11092518650E+03  0.00000000000E+00 0. -1.
</event>
<event>
 7    1  0.2943257E-009  0.1077675E+03  0.7561462E-02  0.1264761E+00
          1   -1    0    0  501    0  0.00000000000E+00  0.00000000000E+00  0.19776565082E+04  0.19776565082E+04  0.00000000000E+00 0. -1.
         -1   -1    0    0    0  501 -0.00000000000E+00 -0.00000000000E+00 -0.14116620027E+02  0.14116620027E+02  0.00000000000E+00 0.  1.
         25    2    1    2    0    0  0.88033683481E+02  0.26991605187E+02  0.15776686115E+04  0.15852963337E+04  0.12509093328E+03 0.  0.
          5    1    3    3  502    0  0.44178416891E+02  0.25069435401E+01  0.13976156206E+04  0.13983221777E+04  0.41800000000E+01 0. -1.
         -5    1    3    3    0  502  0.43855266589E+02  0.24484661647E+02  0.18005299094E+03  0.18697415600E+03  0.41800000000E+01 0. -1.
        -11    1    1    2    0    0 -0.32415350907E+02 -0.50740626343E+02  0.25930912320E+03  0.26620779010E+03  0.00000000000E+00 0. -1.
         11    1    1    2    0    0 -0.55618332573E+02  0.23749021156E+02  0.12656215343E+03  0.14026900444E+03  0.00000000000E+00 0.  1.
</event>
<event>
 7    1  0.2943257E-009  0.1079099E+03  0.7561462E-02  0.1264490E+00
         -2   -1    0    0    0  501 -0.00000000000E+00  0.00000000000E+00  0.79493765689E+01  0.79493765689E+01  0.00000000000E+00 0. -1.
          2   -1    0    0  501    0  0.00000000000E+00 -0.00000000000E+00 -0.38985924193E+04  0.38985924193E+04  0.00000000000E+00 0.  1.
         25    2    1    2    0    0  0.50094094563E+02  0.67709385009E+02 -0.32809593367E+04  0.32844229897E+04  0.12508488123E+03 0.  0.
          5    1    3    3  502    0  0.53999858518E+02  0.67282317684E+02 -0.10775496439E+04  0.10810058291E+04  0.41800000000E+01 0.  1.
         -5    1    3    3    0  502 -0.39057639551E+01  0.42706732525E+00 -0.22034096928E+04  0.22034171607E+04  0.41800000000E+01 0.  1.
        -11    1    1    2    0    0  0.54195711943E+01  0.19550628749E+02 -0.93328061575E+02  0.95507726985E+02  0.00000000000E+00 0.  1.
         11    1    1    2    0    0 -0.55513665757E+02 -0.87260013759E+02 -0.51635564450E+03  0.52661107916E+03  0.00000000000E+00 0. -1.
</event>
<event>
 7    1  0.2943257E-009  0.1121754E+03  0.7561462E-02  0.1256594E+00
          3   -1    0    0  501    0  0.00000000000E+00  0.00000000000E+00  0.11807981150E+02  0.11807981150E+02  0.00000000000E+00 0. -1.
         -3   -1    0    0    0  501 -0.00000000000E+00 -0.00000000000E+00 -0.14654879248E+04  0.14654879248E+04  0.00000000000E+00 0.  1.
         25    2    1    2    0    0  0.23765144869E+02 -0.62464580249E+02 -0.95676925428E+03  0.96722359959E+03  0.12508988678E+03 0.  0.
          5    1    3    3  502    0 -0.17443007264E+02 -0.66456056106E+02 -0.25214818361E+03  0.26137491233E+03  0.41800000000E+01 0.  1.
         -5    1    3    3    0  502  0.41208152133E+02  0.39914758572E+01 -0.70462107066E+03  0.70584868726E+03  0.41800000000E+01 0.  1.
        -11    1    1    2    0    0  0.30247787882E+02 -0.13782666162E+01 -0.10174480881E+03  0.10615476631E+03  0.00000000000E+00 0. -1.
         11    1    1    2    0    0 -0.54012932751E+02  0.63842846865E+02 -0.39516588056E+03  0.40391754005E+03  0.00000000000E+00 0.  1.
</event>
<event>
 7    1  0.2943257E-009  0.2401368E+03  0.7561462E-02  0.1119702E+00
         -2   -1    0    0    0  501 -0.00000000000E+00  0.00000000000E+00  0.16400095815E+03  0.16400095815E+03  0.00000000000E+00 0.  1.
          2   -1    0    0  501    0  0.00000000000E+00 -0.00000000000E+00 -0.53072184828E+03  0.53072184828E+03  0.00000000000E+00 0. -1.
         25    2    1    2    0    0 -0.22018193462E+03 -0.85804749483E+01 -0.35368991039E+03  0.43508495538E+03  0.12509459143E+03 0.  0.
          5    1    3    3  502    0 -0.17047016389E+03  0.31896159589E+02 -0.18043582157E+03  0.25030381514E+03  0.41800000000E+01 0.  1.
         -5    1    3    3    0  502 -0.49711770730E+02 -0.40476634538E+02 -0.17325408883E+03  0.18478114024E+03  0.41800000000E+01 0.  1.
        -11    1    1    2    0    0  0.88617228332E+02  0.53519182024E+02  0.39798409677E+02  0.11091090755E+03  0.00000000000E+00 0.  1.
         11    1    1    2    0    0  0.13156470628E+03 -0.44938707076E+02 -0.52829389412E+02  0.14872694349E+03  0.00000000000E+00 0. -1.
</event>
<event>
 7    1  0.3399145E-009  0.2114457E+03  0.7561462E-02  0.1140426E+00
         -2   -1    0    0    0  501 -0.00000000000E+00  0.00000000000E+00  0.21454827653E+02  0.21454827653E+02  0.00000000000E+00 0.  1.
          2   -1    0    0  501    0  0.00000000000E+00 -0.00000000000E+00 -0.28041035346E+04  0.28041035346E+04  0.00000000000E+00 0. -1.
         25    2    1    2    0    0  0.32159274972E+02 -0.19705161663E+03 -0.19648095682E+04  0.19788854725E+04  0.12509002837E+03 0.  0.
          5    1    3    3  502    0  0.70371679154E+01 -0.15087203414E+03 -0.88625874696E+03  0.89904612306E+03  0.41800000000E+01 0.  1.
         -5    1    3    3    0  502  0.25122107057E+02 -0.46179582493E+02 -0.10785508213E+04  0.10798393494E+04  0.41800000000E+01 0.  1.
        -11    1    1    2    0    0 -0.63189724010E+02  0.11305624278E+03 -0.48834872291E+03  0.50523175912E+03  0.00000000000E+00 0. -1.
         11    1    1    2    0    0  0.31030449038E+02  0.83995373857E+02 -0.32949041582E+03  0.34144113068E+03  0.00000000000E+00 0.  1.
</event>
<event>
 7    1  0.2943257E-009  0.7421544E+02  0.7561462E-02  0.1346318E+00
         -2   -1    0    0    0  501 -0.00000000000E+00  0.00000000000E+00  0.16511220105E+02  0.16511220105E+02  0.00000000000E+00 0.  1.
          2   -1    0    0  501    0  0.00000000000E+00 -0.00000000000E+00 -0.10894915779E+04  0.10894915779E+04  0.00000000000E+00 0. -1.
         25    2    1    2    0    0 -0.14692106502E+02 -0.46711817234E+02 -0.88295660606E+03  0.89311650583E+03  0.12508746119E+03 0.  0.
          5    1    3    3  502    0 -0.11435717863E+01 -0.68795533660E+02 -0.83967778307E+03  0.84250245400E+03  0.41800000000E+01 0.  1.
         -5    1    3    3    0  502 -0.13548534715E+02  0.22083716426E+02 -0.43278822989E+02  0.50614051837E+02  0.41800000000E+01 0.  1.
        -11    1    1    2    0    0  0.19064359384E+02  0.26923170966E+02 -0.18977277450E+03  0.19261882793E+03  0.00000000000E+00 0. -1.
         11    1    1    2    0    0 -0.43722528827E+01  0.19788646268E+02 -0.25097722162E+00  0.20267464221E+02  0.00000000000E+00 0.  1.
</event>
<event>
 7    1  0.2943257E-009  0.1186616E+03  0.7561462E-02  0.1245321E+00
         -1   -1    0    0    0  501 -0.00000000000E+00  0.00000000000E+00  0.35768085216E+02  0.35768085216E+02  0.00000000000E+00 0.  1.
          1   -1    0    0  501    0  0.00000000000E+00 -0.00000000000E+00 -0.45498858572E+03  0.45498858572E+03  0.00000000000E+00 0. -1.
         25    2    1    2    0    0 -0.56018419857E+02  0.12638837089E+02 -0.29627798186E+03  0.32669142105E+03  0.12509531761E+03 0.  0.
          5    1    3    3  502    0 -0.21768605612E+02 -0.54229104951E+02 -0.16862564023E+03  0.17851259607E+03  0.41800000000E+01 0.  1.
         -5    1    3    3    0  502 -0.34249814246E+02  0.66867942039E+02 -0.12765234164E+03  0.14817882498E+03  0.41800000000E+01 0.  1.
        -11    1    1    2    0    0  0.65886755601E+02 -0.38153888400E+02 -0.65472979035E+02  0.10041660593E+03  0.00000000000E+00 0.  1.
         11    1    1    2    0    0 -0.98683357438E+01  0.25515051311E+02 -0.57469539601E+02  0.63648643943E+02  0.00000000000E+00 0. -1.
</event>
<event>
 7    1  0.2943257E-009  0.1145893E+03  0.7561462E-02  0.1252300E+00
         -1   -1    0    0    0  501 -0.00000000000E+00  0.00000000000E+00  0.12104170158E+03  0.12104170158E+03  0.00000000000E+00 0.  1.
          1   -1    0    0  501    0  0.00000000000E+00 -0.00000000000E+00 -0.16630485825E+03  0.16630485825E+03  0.00000000000E+00 0. -1.
         25    2    1    2    0    0  0.22119062471E+02  0.69133158217E+02  0.32572877259E+02  0.14824729078E+03  0.12509044888E+03 0.  0.
          5    1    3    3  502    0 -0.51075253886E+02  0.37958145199E+02  0.23923909183E+02  0.68112613935E+02  0.41800000000E+01 0.  1.
         -5    1    3    3    0  502  0.73194316357E+02  0.31175013018E+02  0.86489680762E+01  0.80134676841E+02  0.41800000000E+01 0.  1.
        -11    1    1    2    0    0  0.13205598849E+02 -0.31334673543E+02  0.11473426872E+02  0.35887172237E+02  0.00000000000E+00 0.  1.
         11    1    1    2    0    0 -0.35324661320E+02 -0.37798484674E+02 -0.89309460796E+02  0.10321209681E+03  0.00000000000E+00 0. -1.
</event>
<event>
 7    1  0.2943257E-009  0.2474496E+03  0.7561462E-02  0.1114927E+00
         -1   -1    0    0    0  501 -0.00000000000E+00  0.00000000000E+00  0.17634469946E+03  0.17634469946E+03  0.00000000000E+00 0. -1.
          1   -1    0    0  501    0  0.00000000000E+00 -0.00000000000E+00 -0.40955476188E+03  0.40955476188E+03  0.00000000000E+00 0.  1.
         25    2    1    2    0    0 -0.22356349074E+03  0.98041691364E+02 -0.88559664622E+02  0.28824558745E+03  0.12509954774E+03 0.  0.
          5    1    3    3  502    0 -0.13467870507E+03  0.70624311541E+02 -0.11584789166E+03  0.19121807808E+03  0.41800000000E+01 0.  1.
         -5    1    3    3    0  502 -0.88884785671E+02  0.27417379822E+02  0.27288227037E+02  0.97027509372E+02  0.41800000000E+01 0.  1.
        -11    1    1    2    0    0  0.11798750779E+03 -0.79998352134E+02 -0.12321848519E+03  0.18842394601E+03  0.00000000000E+00 0.  1.
         11    1    1    2    0    0  0.10557598296E+03 -0.18043339230E+02 -0.21431912609E+02  0.10922992789E+03  0.00000000000E+00 0. -1.
</event>
<event>
 7    1  0.2943257E-009  0.1047134E+03  0.7561462E-02  0.1270685E+00
          2   -1    0    0  501    0  0.00000000000E+00  0.00000000000E+00  0.27081780992E+03  0.27081780992E+03  0.00000000000E+00 0. -1.
         -2   -1    0    0    0  501 -0.00000000000E+00 -0.00000000000E+00 -0.51202817374E+02  0.51202817374E+02  0.00000000000E+00 0.  1.
         25    2    1    2    0    0 -0.97839243861E+01  0.40449730455E+02  0.15453524707E+03  0.20312689643E+03  0.12508991805E+03 0.  0.
          5    1    3    3  502    0 -0.63836649038E+02  0.43749981313E+02  0.92307565395E+02  0.12052940577E+03  0.41800000000E+01 0.  1.
         -5    1    3    3    0  502  0.54052724652E+02 -0.33002508578E+01  0.62227681674E+02  0.82597490668E+02  0.41800000000E+01 0.  1.
        -11    1    1    2    0    0 -0.84922524515E+01  0.16087857456E+02  0.55881255468E+02  0.58767782176E+02  0.00000000000E+00 0. -1.
         11    1    1    2    0    0  0.18276176838E+02 -0.56537587911E+02  0.91984900068E+01  0.60125948683E+02  0.00000000000E+00 0.  1.
</event>
<event>
 7    1  0.2943257E-009  0.2141437E+03  0.7561462E-02  0.1138326E+00
          1   -1    0    0  501    0  0.00000000000E+00  0.00000000000E+00  0.68350506329E+02  0.68350506329E+02  0.00000000000E+00 0. -1.
         -1   -1    0    0    0  501 -0.00000000000E+00 -0.00000000000E+00 -0.89389272960E+03  0.89389272960E+03  0.00000000000E+00 0.  1.
         25    2    1    2    0    0 -0.10603640470E+03 -0.18105982032E+03 -0.56359192996E+03  0.61425672607E+03  0.12509630029E+03 0.  0.
          5    1    3    3  502    0 -0.52776207487E+02 -0.88254477657E+02 -0.12077764259E+03  0.15867858158E+03  0.41800000000E+01 0. -1.
         -5    1    3    3    0  502 -0.53260197215E+02 -0.92805342662E+02 -0.44281428736E+03  0.45557814448E+03  0.41800000000E+01 0. -1.
        -11    1    1    2    0    0  0.97004244193E+02  0.11002519466E+03 -0.22173362944E+03  0.26585930353E+03  0.00000000000E+00 0.  1.
         11    1    1    2    0    0  0.90321605084E+01  0.71034625664E+02 -0.40216663872E+02  0.82127206331E+02  0.00000000000E+00 0. -1.
</event>
<event>
 7    1  0.2943257E-009  0.8851595E+02  0.7561462E-02  0.1306486E+00
          3   -1    0    0  501    0  0.00000000000E+00  0.00000000000E+00  0.49820179484E+02  0.49820179484E+02  0.00000000000E+00 0. -1.
         -3   -1    0    0    0  501 -0.00000000000E+00 -0.00000000000E+00 -0.39922190239E+03  0.39922190239E+03  0.00000000000E+00 0.  1.
         25    2    1    2    0    0 -0.60775355933E+02 -0.70420622762E+01 -0.29806193185E+03  0.32898687601E+03  0.12509282488E+03 0.  0.
          5    1    3    3  502    0 -0.59972959203E+02 -0.46441927083E+02 -0.26985567802E+03  0.28034473027E+03  0.41800000000E+01 0. -1.
         -5    1    3    3    0  502 -0.80239672972E+00  0.39399864807E+02 -0.28206253832E+02  0.48642145744E+02  0.41800000000E+01 0. -1.
        -11    1    1    2    0    0  0.37289917153E+02  0.15824182805E+01  0.21676025590E+02  0.43161233234E+02  0.00000000000E+00 0. -1.
         11    1    1    2    0    0  0.23485438780E+02  0.54596439957E+01 -0.73015816640E+02  0.76893972630E+02  0.00000000000E+00 0.  1.
</event>
<event>
 7    1  0.2943257E-009  0.9202558E+02  0.7561462E-02  0.1298019E+00
         -1   -1    0    0    0  501 -0.00000000000E+00  0.00000000000E+00  0.45960581898E+03  0.45960581898E+03  0.00000000000E+00 0.  1.
          1   -1    0    0  501    0  0.00000000000E+00 -0.00000000000E+00 -0.38976946375E+02  0.38976946375E+02  0.00000000000E+00 0. -1.
         25    2    1    2    0    0 -0.49197602105E+02  0.60429801168E+02  0.21649793356E+03  0.26189827112E+03  0.12508870556E+03 0.  0.
          5    1    3    3  502    0  0.94815462608E+01 -0.71915177001E+01 -0.11404611419E+02  0.17004564327E+02  0.41800000000E+01 0.  1.
         -5    1    3    3    0  502 -0.58679148366E+02  0.67621318868E+02  0.22790254498E+03  0.24489370679E+03  0.41800000000E+01 0.  1.
        -11    1    1    2    0    0  0.39180906684E+02 -0.28788640947E+02  0.19677178568E+03  0.20268957777E+03  0.00000000000E+00 0.  1.
         11    1    1    2    0    0  0.10016695422E+02 -0.31641160221E+02  0.73591533646E+01  0.33994916466E+02  0.00000000000E+00 0. -1.
</event>
<event>
 7    1  0.3055009E-009  0.1621024E+03  0.7561462E-02  0.1186343E+00
         -1   -1    0    0    0  501 -0.00000000000E+00  0.00000000000E+00  0.90746444920E+02  0.90746444920E+02  0.00000000000E+00 0.  1.
          1   -1    0    0  501    0  0.00000000000E+00 -0.00000000000E+00 -0.34748929718E+03  0.34748929718E+03  0.00000000000E+00 0. -1.
         25    2    1    2    0    0  0.46564273812E+02  0.13147039972E+03 -0.15023026061E+03  0.24014445620E+03  0.12509009171E+03 0.  0.
          5    1    3    3  502    0 -0.17658509762E+02  0.77578857947E+02 -0.13209966473E+03  0.15426631515E+03  0.41800000000E+01 0.  1.
         -5    1    3    3    0  502  0.64222783574E+02  0.53891541773E+02 -0.18130595880E+02  0.85878141059E+02  0.41800000000E+01 0.  1.
        -11    1    1    2    0    0  0.15322087375E+02 -0.75847982252E+02 -0.24269415793E+02  0.81096777471E+02  0.00000000000E+00 0.  1.
         11    1    1    2    0    0 -0.61886361188E+02 -0.55622417468E+02 -0.82243175857E+02  0.11699450842E+03  0.00000000000E+00 0. -1.
</event>
<event>
 7    1  0.2943257E-009  0.1625195E+03  0.7561462E-02  0.1185881E+00
         -1   -1    0    0    0  501 -0.00000000000E+00  0.00000000000E+00  0.66764615331E+02  0.66764615331E+02  0.00000000000E+00 0.  1.
          1   -1    0    0  501    0  0.00000000000E+00 -0.00000000000E+00 -0.41740196355E+03  0.41740196355E+03  0.00000000000E+00 0. -1.
         25    2    1    2    0    0 -0.94041126992E+02  0.91850801280E+02 -0.18512383230E+03  0.25922705530E+03  0.12509008615E+03 0.  0.
          5    1    3    3  502    0  0.16120936644E+02 -0.14968229481E+02 -0.57136043115E+01  0.23109525445E+02  0.41800000000E+01 0. -1.
         -5    1    3    3    0  502 -0.11016206364E+03  0.10681903076E+03 -0.17941022799E+03  0.23611752985E+03  0.41800000000E+01 0. -1.
        -11    1    1    2    0    0  0.88463854861E+02 -0.40161071899E+02 -0.12862261676E+03  0.16119101357E+03  0.00000000000E+00 0. -1.
         11    1    1    2    0    0  0.55772721311E+01 -0.51689729381E+02 -0.36890899155E+02  0.63748510009E+02  0.00000000000E+00 0.  1.
</event>
<event>
 7    1  0.2943257E-009  0.1042131E+03  0.7561462E-02  0.1271678E+00
         -2   -1    0    0    0  501 -0.00000000000E+00  0.00000000000E+00  0.19334649976E+02  0.19334649976E+02  0.00000000000E+00 0.  1.
          2   -1    0    0  501    0  0.00000000000E+00 -0.00000000000E+00 -0.72295114563E+03  0.72295114563E+03  0.00000000000E+00 0. -1.
         25    2    1    2    0    0  0.34248053735E+02  0.10903289065E+02 -0.49785725361E+03  0.51459352418E+03  0.12511130750E+03 0.  0.
          5    1    3    3  502    0  0.54975138334E+02  0.53442670582E+02 -0.22787664238E+03  0.24046542666E+03  0.41800000000E+01 0. -1.
         -5    1    3    3    0  502 -0.20727084598E+02 -0.42539381517E+02 -0.26998061122E+03  0.27412809753E+03  0.41800000000E+01 0. -1.
        -11    1    1    2    0    0 -0.53043590795E+02 -0.26882843513E+02 -0.18830554506E+03  0.19747224640E+03  0.00000000000E+00 0. -1.
         11    1    1    2    0    0  0.18795537059E+02  0.15979554448E+02 -0.17453696990E+02  0.30220025022E+02  0.00000000000E+00 0.  1.
</event>
<event>
 7    1  0.2943257E-009  0.1347558E+03  0.7561462E-02  0.1220565E+00
          3   -1    0    0  501    0  0.00000000000E+00  0.00000000000E+00  0.54192772834E+02  0.54192772834E+02  0.00000000000E+00 0. -1.
         -3   -1    0    0    0  501 -0.00000000000E+00 -0.00000000000E+00 -0.36504612779E+03  0.36504612779E+03  0.00000000000E+00 0.  1.
         25    2    1    2    0    0  0.86004615073E+02  0.28955685165E+01 -0.13675684643E+03  0.20434177944E+03  0.12509176491E+03 0.  0.
          5    1    3    3  502    0  0.85779907617E+02 -0.46498335353E+02 -0.11305416361E+03  0.14939546195E+03  0.41800000000E+01 0. -1.
         -5    1    3    3    0  502  0.22470745625E+00  0.49393903870E+02 -0.23702682818E+02  0.54946317490E+02  0.41800000000E+01 0. -1.
        -11    1    1    2    0    0 -0.68908416480E+02  0.37473899628E+02 -0.13511313544E+03  0.15623131051E+03  0.00000000000E+00 0.  1.
         11    1    1    2    0    0 -0.17096198593E+02 -0.40369468145E+02 -0.38983373081E+02  0.58665810669E+02  0.00000000000E+00 0. -1.
</event>
<event>
 7    1  0.2943257E-009  0.8471260E+02  0.7561462E-02  0.1316186E+00
         -3   -1    0    0    0  501 -0.00000000000E+00  0.00000000000E+00  0.80422799501E+02  0.80422799501E+02  0.00000000000E+00 0.  1.
          3   -1    0    0  501    0  0.00000000000E+00 -0.00000000000E+00 -0.26008161443E+03  0.26008161443E+03  0.00000000000E+00 0. -1.
         25    2    1    2    0    0 -0.63500181930E+02 -0.59268405720E+01 -0.18295732635E+03  0.23062522280E+03  0.12508880678E+03 0.  0.
          5    1    3    3  502    0 -0.40511061874E+02 -0.18060924450E+02  0.12274115094E+01  0.44568173232E+02  0.41800000000E+01 0.  1.
         -5    1    3    3    0  502 -0.22989120056E+02  0.12134083878E+02 -0.18418473786E+03  0.18605704957E+03  0.41800000000E+01 0.  1.
        -11    1    1    2    0    0  0.78210206921E+02 -0.75773372145E+01  0.22953311930E+02  0.81860289729E+02  0.00000000000E+00 0.  1.
         11    1    1    2    0    0 -0.14710024991E+02  0.13504177787E+02 -0.19654800507E+02  0.28018901404E+02  0.00000000000E+00 0. -1.
</event>
<event>
 7    1  0.2943257E-009  0.4989495E+02  0.7561462E-02  0.1445909E+00
         -1   -1    0    0    0  501 -0.00000000000E+00  0.00000000000E+00  0.96091366657E+02  0.96091366657E+02  0.00000000000E+00 0.  1.
          1   -1    0    0  501    0  0.00000000000E+00 -0.00000000000E+00 -0.15652233535E+03  0.15652233535E+03  0.00000000000E+00 0. -1.
         25    2    1    2    0    0 -0.15017161852E+02 -0.35252763510E+01  0.20443521651E+02  0.12764839039E+03  0.12505291387E+03 0.  0.
          5    1    3    3  502    0  0.35630605986E+01  0.53087468661E+01 -0.51828788463E+02  0.52388681102E+02  0.41800000000E+01 0.  1.
         -5    1    3    3    0  502 -0.18580222451E+02 -0.88340232170E+01  0.72272310114E+02  0.75259709286E+02  0.41800000000E+01 0.  1.
        -11    1    1    2    0    0  0.42681166745E+02 -0.28227453899E+01 -0.39320653775E+01  0.42954755550E+02  0.00000000000E+00 0.  1.
         11    1    1    2    0    0 -0.27664004893E+02  0.63480217409E+01 -0.76942424966E+02  0.82010556067E+02  0.00000000000E+00 0. -1.
</event>
<event>
 6    1  0.2943257E-009  0.1676445E+03  0.7561462E-02  0.1180327E+00
          2   -1    0    0  501    0  0.00000000000E+00  0.00000000000E+00  0.71470011612E+03  0.71470011612E+03  0.00000000000E+00 0.  1.
         -2   -1    0    0    0  501 -0.00000000000E+00 -0.00000000000E+00 -0.86470289336E+02  0.86470289336E+02  0.00000000000E+00 0. -1.
          5    1    1    2  502    0  0.47226465744E+02 -0.13581291685E+03  0.56612445963E+03  0.58411459804E+03  0.41800000000E+01 0.  1.
         -5    1    1    2    0  502 -0.29100007586E+02 -0.63628191376E+01  0.33855607670E+02  0.45287641577E+02  0.41800000000E+01 0.  1.
        -11    1    1    2    0    0  0.24736839798E+02  0.19772729609E+02  0.27704120731E+02  0.42076007235E+02  0.00000000000E+00 0.  1.
         11    1    1    2    0    0 -0.42863297956E+02  0.12240300638E+03  0.54563874967E+00  0.12969215860E+03  0.00000000000E+00 0. -1.
</event>
<event>
 7    1  0.2943257E-009  0.9645137E+02  0.7561462E-02  0.1287940E+00
         -1   -1    0    0    0  501 -0.00000000000E+00  0.00000000000E+00  0.16136349137E+03  0.16136349137E+03  0.00000000000E+00 0.  1.
          1   -1    0    0  501    0  0.00000000000E+00 -0.00000000000E+00 -0.82958544268E+02  0.82958544268E+02  0.00000000000E+00 0. -1.
         25    2    1    2    0    0 -0.23129053472E+02  0.24747722166E+02  0.54576623632E+02  0.14061774373E+03  0.12508932463E+03 0.  0.
          5    1    3    3  502    0  0.40654037318E+02 -0.19328715690E+02  0.42484696681E+02  0.62038470747E+02  0.41800000000E+01 0. -1.
         -5    1    3    3    0  502 -0.63783090791E+02  0.44076437856E+02  0.12091926951E+02  0.78579272981E+02  0.41800000000E+01 0. -1.
        -11    1    1    2    0    0  0.33539177962E+02  0.90067310160E+01  0.49194180206E+02  0.60216816821E+02  0.00000000000E+00 0.  1.
         11    1    1    2    0    0 -0.10410124489E+02 -0.33754453182E+02 -0.25365856738E+02  0.43487475088E+02  0.00000000000E+00 0. -1.
</event>
<event>
 7    1  0.2943257E-009  0.1251081E+03  0.7561462E-02  0.1234900E+00
          2   -1    0    0  501    0  0.00000000000E+00  0.00000000000E+00  0.56305102553E+03  0.56305102553E+03  0.00000000000E+00 0. -1.
         -2   -1    0    0    0  501 -0.00000000000E+00 -0.00000000000E+00 -0.45765723172E+02  0.45765723172E+02  0.00000000000E+00 0.  1.
         25    2    1    2    0    0 -0.44181654350E+02 -0.63861642730E+02  0.44735672351E+03  0.47096218475E+03  0.12508802261E+03 0.  0.
          5    1    3    3  502    0  0.19442870670E+02 -0.68493650768E+02  0.32692090536E+03  0.33461045438E+03  0.41800000000E+01 0. -1.
         -5    1    3    3    0  502 -0.63624525019E+02  0.46320080381E+01  0.12043581815E+03  0.13635173037E+03  0.41800000000E+01 0. -1.
        -11    1    1    2    0    0  0.66763875415E+02  0.63851398458E+02  0.40781138986E+02  0.10098275814E+03  0.00000000000E+00 0.  1.
         11    1    1    2    0    0 -0.22582221065E+02  0.10244272342E-01  0.29147439862E+02  0.36871805810E+02  0.00000000000E+00 0. -1.
</event>
<event>
 7    1  0.2943257E-009  0.1226916E+03  0.7561462E-02  0.1238722E+00
         -2   -1    0    0    0  501 -0.00000000000E+00  0.00000000000E+00  0.88217417700E+02  0.88217417700E+02  0.00000000000E+00 0.  1.
          2   -1    0    0  501    0  0.00000000000E+00 -0.00000000000E+00 -0.18389500314E+03  0.18389500314E+03  0.00000000000E+00 0. -1.
         25    2    1    2    0    0 -0.60084375154E+02  0.17227706356E+02 -0.29807371000E+02  0.14297807806E+03  0.12508926986E+03 0.  0.
          5    1    3    3  502    0  0.28013002789E+02 -0.25493981030E+02 -0.23513158057E+02  0.44777364771E+02  0.41800000000E+01 0.  1.
         -5    1    3    3    0  502 -0.88097377943E+02  0.42721687386E+02 -0.62942129432E+01  0.98200713287E+02  0.41800000000E+01 0.  1.
        -11    1    1    2    0    0  0.38363120139E+02 -0.54196175522E+02 -0.28502814353E+02  0.72259012269E+02  0.00000000000E+00 0.  1.
         11    1    1    2    0    0  0.21721255015E+02  0.36968469166E+02 -0.37367400092E+02  0.56875330518E+02  0.00000000000E+00 0. -1.
</event>
<event>
 7    1  0.2943257E-009  0.1104027E+03  0.7561462E-02  0.1259826E+00
          2   -1    0    0  501    0  0.00000000000E+00  0.00000000000E+00  0.71784754284E+03  0.71784754284E+03  0.00000000000E+00 0.  1.
         -2   -1    0    0    0  501 -0.00000000000E+00 -0.00000000000E+00 -0.21053537785E+02  0.21053537785E+02  0.00000000000E+00 0. -1.
         25    2    1    2    0    0  0.22577460579E+02 -0.11864357294E+02  0.54948273930E+03  0.56411782897E+03  0.12508852656E+03 0.  0.
          5    1    3    3  502    0  0.62776178822E+02 -0.43302260163E+02  0.33881899126E+03  0.34732076760E+03  0.41800000000E+01 0.  1.
         -5    1    3    3    0  502 -0.40198718242E+02  0.31437902869E+02  0.21066374803E+03  0.21679706137E+03  0.41800000000E+01 0.  1.
        -11    1    1    2    0    0 -0.24503992839E+02  0.49662301799E+02  0.98717595276E+02  0.11318990018E+03  0.00000000000E+00 0.  1.
         11    1    1    2    0    0  0.19265322601E+01 -0.37797944505E+02  0.48593670487E+02  0.61593351482E+02  0.00000000000E+00 0. -1.
</event>
<event>
 7    1  0.2943257E-009  0.1236459E+03  0.7561462E-02  0.1237201E+00
         -2   -1    0    0    0  501 -0.00000000000E+00  0.00000000000E+00  0.69187461417E+02  0.69187461417E+02  0.00000000000E+00 0.  1.
          2   -1    0    0  501    0  0.00000000000E+00 -0.00000000000E+00 -0.33309504231E+03  0.33309504231E+03  0.00000000000E+00 0. -1.
         25    2    1    2    0    0 -0.61668894910E+02  0.56840499585E+02 -0.56675517193E+02  0.16091572524E+03  0.12509141212E+03 0.  0.
          5    1    3    3  502    0 -0.76211997622E+02  0.70640005865E+02 -0.36387843911E+01  0.10406244357E+03  0.41800000000E+01 0. -1.
         -5    1    3    3    0  502  0.14543102712E+02 -0.13799506279E+02 -0.53036732802E+02  0.56853281667E+02  0.41800000000E+01 0. -1.
        -11    1    1    2    0    0  0.54234608032E+02  0.10349838177E+02 -0.10802504852E+03  0.12131744708E+03  0.00000000000E+00 0.  1.
         11    1    1    2    0    0  0.74342868777E+01 -0.67190337763E+02 -0.99207015180E+02  0.12004933141E+03  0.00000000000E+00 0. -1.
</event>
<event>
 7    1  0.2943257E-009  0.9949395E+02  0.7561462E-02  0.1281364E+00
         -1   -1    0    0    0  501 -0.00000000000E+00  0.00000000000E+00  0.57033292975E+02  0.57033292975E+02  0.00000000000E+00 0.  1.
          1   -1    0    0  501    0  0.00000000000E+00 -0.00000000000E+00 -0.22838642496E+03  0.22838642496E+03  0.00000000000E+00 0. -1.
         25    2    1    2    0    0 -0.16518767776E+02  0.40182749000E+02 -0.11043482352E+03  0.17242278822E+03  0.12508494972E+03 0.  0.
          5    1    3    3  502    0  0.95477636481E+01  0.77055606281E+02 -0.36994321501E+02  0.86109107957E+02  0.41800000000E+01 0.  1.
         -5    1    3    3    0  502 -0.26066531424E+02 -0.36872857281E+02 -0.73440502015E+02  0.86313680264E+02  0.41800000000E+01 0.  1.
        -11    1    1    2    0    0  0.60609243010E+01  0.16845288950E+02 -0.51160757431E+02  0.54202598315E+02  0.00000000000E+00 0. -1.
         11    1    1    2    0    0  0.10457843475E+02 -0.57028037949E+02 -0.97575510407E+01  0.58794331400E+02  0.00000000000E+00 0.  1.
</event>
<event>
 7    1  0.3082226E-009  0.9693749E+02  0.7561462E-02  0.1286871E+00
          2   -1    0    0  501    0  0.00000000000E+00  0.00000000000E+00  0.15906101922E+03  0.15906101922E+03  0.00000000000E+00 0. -1.
         -2   -1    0    0    0  501 -0.00000000000E+00 -0.00000000000E+00 -0.12081563113E+03  0.12081563113E+03  0.00000000000E+00 0.  1.
         25    2    1    2    0    0 -0.62816936277E+02 -0.52433950326E+02 -0.54397317532E+01  0.14957254179E+03  0.12508824064E+03 0.  0.
          5    1    3    3  502    0 -0.49486866709E+02 -0.67053232251E+02  0.45304599573E+02  0.94947696520E+02  0.41800000000E+01 0. -1.
         -5    1    3    3    0  502 -0.13330069568E+02  0.14619281926E+02 -0.50744331327E+02  0.54624845267E+02  0.41800000000E+01 0. -1.
        -11    1    1    2    0    0  0.61875895304E+02  0.31822976203E+02  0.68766255585E+02  0.97827021529E+02  0.00000000000E+00 0. -1.
         11    1    1    2    0    0  0.94104097299E+00  0.20610974123E+02 -0.25081135739E+02  0.32477087036E+02  0.00000000000E+00 0.  1.
</event>
<event>
 7    1  0.2943257E-009  0.1055581E+03  0.7561462E-02  0.1269024E+00
         -2   -1    0    0    0  501 -0.00000000000E+00  0.00000000000E+00  0.39976791212E+02  0.39976791212E+02  0.00000000000E+00 0.  1.
          2   -1    0    0  501    0  0.00000000000E+00 -0.00000000000E+00 -0.54641356274E+03  0.54641356274E+03  0.00000000000E+00 0. -1.
         25    2    1    2    0    0 -0.45413003709E+02 -0.28839940871E+02 -0.44235058000E+03  0.46283278856E+03  0.12508425740E+03 0.  0.
          5    1    3    3  502    0 -0.84074457507E+02 -0.27675214577E+02 -0.22123610359E+03  0.23832187864E+03  0.41800000000E+01 0. -1.
         -5    1    3    3    0  502  0.38661453799E+02 -0.11647262941E+01 -0.22111447641E+03  0.22451090993E+03  0.41800000000E+01 0. -1.
        -11    1    1    2    0    0  0.12739742343E+02 -0.20670644968E+02  0.11996131534E+02  0.27082905497E+02  0.00000000000E+00 0.  1.
         11    1    1    2    0    0  0.32673261366E+02  0.49510585839E+02 -0.76082323064E+02  0.96474659892E+02  0.00000000000E+00 0. -1.
</event>
<event>
 7    1  0.2943257E-009  0.1332195E+03  0.7561462E-02  0.1222755E+00
         -2   -1    0    0    0  501 -0.00000000000E+00  0.00000000000E+00  0.85524348946E+02  0.85524348946E+02  0.00000000000E+00 0.  1.
          2   -1    0    0  501    0  0.00000000000E+00 -0.00000000000E+00 -0.26359927190E+03  0.26359927190E+03  0.00000000000E+00 0. -1.
         25    2    1    2    0    0  0.60762219923E+02  0.80188733876E+02 -0.64785706505E+02  0.17311057567E+03  0.12509117967E+03 0.  0.
          5    1    3    3  502    0  0.63364543436E+02  0.10508952512E+03 -0.24057845482E+02  0.12512044590E+03  0.41800000000E+01 0.  1.
         -5    1    3    3    0  502 -0.26023235125E+01 -0.24900791239E+02 -0.40727861022E+02  0.47990129771E+02  0.41800000000E+01 0.  1.
        -11    1    1    2    0    0 -0.50010850655E+02 -0.15015657780E+02 -0.93441861657E+02  0.10704175200E+03  0.00000000000E+00 0. -1.
         11    1    1    2    0    0 -0.10751369268E+02 -0.65173076096E+02 -0.19847354789E+02  0.68971293167E+02  0.00000000000E+00 0.  1.
</event>
<event>
 7    1  0.2943257E-009  0.1037062E+03  0.7561462E-02  0.1272690E+00
          1   -1    0    0  501    0  0.00000000000E+00  0.00000000000E+00  0.34720663566E+02  0.34720663566E+02  0.00000000000E+00 0. -1.
         -1   -1    0    0    0  501 -0.00000000000E+00 -0.00000000000E+00 -0.36440315860E+03  0.36440315860E+03  0.00000000000E+00 0.  1.
         25    2    1    2    0    0  0.12001201094E+02 -0.20228480592E+02 -0.21230974310E+03  0.24753995150E+03  0.12508948925E+03 0.  0.
          5    1    3    3  502    0  0.40286093134E+02  0.41436587978E+02 -0.79846565806E+02  0.98655494496E+02  0.41800000000E+01 0. -1.
         -5    1    3    3    0  502 -0.28284892040E+02 -0.61665068571E+02 -0.13246317729E+03  0.14888445701E+03  0.41800000000E+01 0. -1.
        -11    1    1    2    0    0  0.47024088172E+00  0.49592702003E+02 -0.10717001181E+03  0.11808924020E+03  0.00000000000E+00 0.  1.
         11    1    1    2    0    0 -0.12471441976E+02 -0.29364221410E+02 -0.10202740121E+02  0.33494630465E+02  0.00000000000E+00 0. -1.
</event>
<event>
 7    1  0.2943257E-009  0.1226080E+03  0.7561462E-02  0.1238856E+00
         -1   -1    0    0    0  501 -0.00000000000E+00  0.00000000000E+00  0.91153639718E+02  0.91153639718E+02  0.00000000000E+00 0.  1.
          1   -1    0    0  501    0  0.00000000000E+00 -0.00000000000E+00 -0.21945156045E+03  0.21945156045E+03  0.00000000000E+00 0. -1.
         25    2    1    2    0    0 -0.44868363013E+02  0.40476973067E+02 -0.14316752414E+03  0.19948961919E+03  0.12509041870E+03 0.  0.
          5    1    3    3  502    0 -0.68846160848E+02  0.71400502698E+02 -0.10825007447E+03  0.14687878224E+03  0.41800000000E+01 0.  1.
         -5    1    3    3    0  502  0.23977797835E+02 -0.30923529632E+02 -0.34917449670E+02  0.52610836957E+02  0.41800000000E+01 0.  1.
        -11    1    1    2    0    0  0.48109724603E+02  0.15479525381E+02 -0.68568282199E+01  0.51001739192E+02  0.00000000000E+00 0. -1.
         11    1    1    2    0    0 -0.32413615901E+01 -0.55956498448E+02  0.21726431619E+02  0.60113841787E+02  0.00000000000E+00 0.  1.
</event>
<event>
 7    1  0.2943257E-009  0.1526497E+03  0.7561462E-02  0.1197254E+00
          2   -1    0    0  501    0  0.00000000000E+00  0.00000000000E+00  0.30322436844E+03  0.30322436844E+03  0.00000000000E+00 0. -1.
         -2   -1    0    0    0  501 -0.00000000000E+00 -0.00000000000E+00 -0.12430668476E+03  0.12430668476E+03  0.00000000000E+00 0.  1.
         25    2    1    2    0    0 -0.10680961907E+03  0.86243317267E+02 -0.32006767739E+00  0.18572432617E+03  0.12508884199E+03 0.  0.
          5    1    3    3  502    0 -0.52948052202E+02  0.75168014013E+02  0.55320295102E+02  0.10738498039E+03  0.41800000000E+01 0. -1.
         -5    1    3    3    0  502 -0.53861566869E+02  0.11075303253E+02 -0.55640362779E+02  0.78339345784E+02  0.41800000000E+01 0. -1.
        -11    1    1    2    0    0 -0.78946357063E+01 -0.28735642416E+02  0.58338823892E+02  0.65509394679E+02  0.00000000000E+00 0.  1.
         11    1    1    2    0    0  0.11470425478E+03 -0.57507674850E+02  0.12089892746E+03  0.17629733234E+03  0.00000000000E+00 0. -1.
</event>
<event>
 7    1  0.2943257E-009  0.1708513E+03  0.7561462E-02  0.1176963E+00
         -1   -1    0    0    0  501 -0.00000000000E+00  0.00000000000E+00  0.12154347380E+03  0.12154347380E+03  0.00000000000E+00 0. -1.
          1   -1    0    0  501    0  0.00000000000E+00 -0.00000000000E+00 -0.32723809503E+03  0.32723809503E+03  0.00000000000E+00 0.  1.
         25    2    1    2    0    0  0.93565217550E+02  0.12721927467E+03 -0.47359909513E+02  0.20694958509E+03  0.12508387569E+03 0.  0.
          5    1    3    3  502    0  0.81871519635E+02  0.10032385737E+03 -0.88029318425E+02  0.15663478345E+03  0.41800000000E+01 0.  1.
         -5    1    3    3    0  502  0.11693697914E+02  0.26895417299E+02  0.40669408912E+02  0.50314801638E+02  0.41800000000E+01 0.  1.
        -11    1    1    2    0    0  0.10716264289E+02 -0.54118678189E+02 -0.53999844025E+02  0.77198787581E+02  0.00000000000E+00 0.  1.
         11    1    1    2    0    0 -0.10428148184E+03 -0.73100596478E+02 -0.10433486770E+03  0.16463319616E+03  0.00000000000E+00 0. -1.
</event>
<event>
 7    1  0.2943257E-009  0.1144668E+03  0.7561462E-02  0.1252515E+00
         -1   -1    0    0    0  501 -0.00000000000E+00  0.00000000000E+00  0.37695555747E+02  0.37695555747E+02  0.00000000000E+00 0. -1.
          1   -1    0    0  501    0  0.00000000000E+00 -0.00000000000E+00 -0.39287767106E+03  0.39287767106E+03  0.00000000000E+00 0.  1.
         25    2    1    2    0    0 -0.38395533716E+02 -0.17436545138E+02 -0.13782252812E+03  0.19084964193E+03  0.12510110491E+03 0.  0.
          5    1    3    3  502    0  0.14437699104E+02  0.44114373974E+02 -0.74425355973E+02  0.87813046629E+02  0.41800000000E+01 0.  1.
         -5    1    3    3    0  502 -0.52833232820E+02 -0.61550919112E+02 -0.63397172149E+02  0.10303659530E+03  0.41800000000E+01 0.  1.
        -11    1    1    2    0    0 -0.20869713107E+02  0.33708764404E+02 -0.85408520246E+02  0.94161781278E+02  0.00000000000E+00 0. -1.
         11    1    1    2    0    0  0.59265246823E+02 -0.16272219266E+02 -0.13195106695E+03  0.14556180361E+03  0.00000000000E+00 0.  1.
</event>
<event>
 7    1  0.2943257E-009  0.1172323E+03  0.7561462E-02  0.1247734E+00
         -2   -1    0    0    0  501 -0.00000000000E+00  0.00000000000E+00  0.29183486539E+03  0.29183486539E+03  0.00000000000E+00 0. -1.
          2   -1    0    0  501    0  0.00000000000E+00 -0.00000000000E+00 -0.59211358615E+02  0.59211358615E+02  0.00000000000E+00 0.  1.
         25    2    1    2    0    0 -0.71649930830E+01 -0.73521444027E+02  0.11019591672E+03  0.18233945717E+03  0.12509115765E+03 0.  0.
          5    1    3    3  502    0 -0.33271613319E+02  0.15685643390E+02  0.73547584714E+02  0.82339293650E+02  0.41800000000E+01 0. -1.
         -5    1    3    3    0  502  0.26106620236E+02 -0.89207087417E+02  0.36648332009E+02  0.10000016352E+03  0.41800000000E+01 0. -1.
        -11    1    1    2    0    0 -0.31740817812E+02  0.17648509013E+02  0.81606484697E+02  0.89322828719E+02  0.00000000000E+00 0. -1.
         11    1    1    2    0    0  0.38905810895E+02  0.55872935014E+02  0.40821105358E+02  0.79383938118E+02  0.00000000000E+00 0.  1.
</event>
<event>
 7    1  0.2943257E-009  0.1157241E+03  0.7561462E-02  0.1250322E+00
          4   -1    0    0  501    0  0.00000000000E+00  0.00000000000E+00  0.31472100606E+02  0.31472100606E+02  0.00000000000E+00 0. -1.
         -4   -1    0    0    0  501 -0.00000000000E+00 -0.00000000000E+00 -0.10035183634E+04  0.10035183634E+04  0.00000000000E+00 0.  1.
         25    2    1    2    0    0 -0.78034009613E+02  0.24029862990E+02 -0.84451046857E+03  0.85762061271E+03  0.12509373628E+03 0.  0.
          5    1    3    3  502    0 -0.15218955328E+02 -0.30789664793E+02 -0.64836276892E+02  0.73490375292E+02  0.41800000000E+01 0.  1.
         -5    1    3    3    0  502 -0.62815054285E+02  0.54819527783E+02 -0.77967419168E+03  0.78413023742E+03  0.41800000000E+01 0.  1.
        -11    1    1    2    0    0  0.12593008186E+02  0.27390224532E+02 -0.70929787719E+01  0.30969640020E+02  0.00000000000E+00 0. -1.
         11    1    1    2    0    0  0.65441001426E+02 -0.51420087521E+02 -0.12044281549E+03  0.14640021131E+03  0.00000000000E+00 0.  1.
</event>
<event>
 7    1  0.2943257E-009  0.1165844E+03  0.7561462E-02  0.1248841E+00
         -2   -1    0    0    0  501 -0.00000000000E+00  0.00000000000E+00  0.16120145256E+03  0.16120145256E+03  0.00000000000E+00 0.  1.
          2   -1    0    0  501    0  0.00000000000E+00 -0.00000000000E+00 -0.11584957804E+03  0.11584957804E+03  0.00000000000E+00 0. -1.
         25    2    1    2    0    0  0.50974562497E+02  0.30656684783E+02 -0.31806157236E+02  0.14211879326E+03  0.12509149218E+03 0.  0.
          5    1    3    3  502    0  0.24720275776E+02  0.70605416216E+02 -0.50786929516E+02  0.90515200067E+02  0.41800000000E+01 0.  1.
         -5    1    3    3    0  502  0.26254286720E+02 -0.39948731433E+02  0.18980772280E+02  0.51603593195E+02  0.41800000000E+01 0.  1.
        -11    1    1    2    0    0 -0.77786158265E+02 -0.15029643629E+02  0.60697946087E+02  0.99803894035E+02  0.00000000000E+00 0.  1.
         11    1    1    2    0    0  0.26811595768E+02 -0.15627041155E+02  0.16460085670E+02  0.35128343302E+02  0.00000000000E+00 0. -1.
</event>
<event>
 7    1  0.2943257E-009  0.1579897E+03  0.7561462E-02  0.1190985E+00
         -1   -1    0    0    0  501 -0.00000000000E+00  0.00000000000E+00  0.46198856756E+02  0.46198856756E+02  0.00000000000E+00 0.  1.
          1   -1    0    0  501    0  0.00000000000E+00 -0.00000000000E+00 -0.11146052476E+04  0.11146052476E+04  0.00000000000E+00 0. -1.
         25    2    1    2    0    0  0.34967112808E+02 -0.12812464164E+03 -0.92999388502E+03  0.94772058177E+03  0.12508817755E+03 0.  0.
          5    1    3    3  502    0 -0.13913617066E+02  0.19657506559E+02 -0.82671949625E+02  0.86209801988E+02  0.41800000000E+01 0. -1.
         -5    1    3    3    0  502  0.48880729874E+02 -0.14778214820E+03 -0.84732193540E+03  0.86151077978E+03  0.41800000000E+01 0. -1.
        -11    1    1    2    0    0 -0.12322592921E+02  0.94406115452E+02 -0.14343575079E+03  0.17215741499E+03  0.00000000000E+00 0.  1.
         11    1    1    2    0    0 -0.22644519887E+02  0.33718526193E+02  0.50232450041E+01  0.40926107558E+02  0.00000000000E+00 0. -1.
</event>
<event>
 7    1  0.2943257E-009  0.1161817E+03  0.7561462E-02  0.1249532E+00
          1   -1    0    0  501    0  0.00000000000E+00  0.00000000000E+00  0.97901218470E+03  0.97901218470E+03  0.00000000000E+00 0. -1.
         -1   -1    0    0    0  501 -0.00000000000E+00 -0.00000000000E+00 -0.16234710114E+02  0.16234710114E+02  0.00000000000E+00 0.  1.
         25    2    1    2    0    0 -0.47310855327E+02  0.42193705794E+02  0.49163143038E+03  0.51124104959E+03  0.12508925455E+03 0.  0.
          5    1    3    3  502    0  0.18301354162E+02  0.58872064479E+02  0.13857007895E+03  0.15172342838E+03  0.41800000000E+01 0.  1.
         -5    1    3    3    0  502 -0.65612209489E+02 -0.16678358684E+02  0.35306135143E+03  0.35951762121E+03  0.41800000000E+01 0.  1.
        -11    1    1    2    0    0 -0.63650408561E+01  0.19766647938E+02  0.39312466489E+02  0.44460140995E+02  0.00000000000E+00 0.  1.
         11    1    1    2    0    0  0.53675896183E+02 -0.61960353733E+02  0.43183357771E+03  0.43954570423E+03  0.00000000000E+00 0. -1.
</event>
<event>
 7    1  0.2943257E-009  0.8481627E+02  0.7561462E-02  0.1315914E+00
         -2   -1    0    0    0  501 -0.00000000000E+00  0.00000000000E+00  0.57925382616E+02  0.57925382616E+02  0.00000000000E+00 0.  1.
          2   -1    0    0  501    0  0.00000000000E+00 -0.00000000000E+00 -0.45459875653E+03  0.45459875653E+03  0.00000000000E+00 0. -1.
         25    2    1    2    0    0  0.25978409867E+02 -0.59064094042E+02 -0.37234414468E+03  0.39805800342E+03  0.12508623836E+03 0.  0.
          5    1    3    3  502    0 -0.76921759689E+01 -0.35829959470E+02 -0.17475052989E+02  0.40814279900E+02  0.41800000000E+01 0. -1.
         -5    1    3    3    0  502  0.33670585836E+02 -0.23234134572E+02 -0.35486909169E+03  0.35724372352E+03  0.41800000000E+01 0. -1.
        -11    1    1    2    0    0 -0.47722774839E+02  0.45866597500E+02  0.14772564336E+02  0.67819146718E+02  0.00000000000E+00 0.  1.
         11    1    1    2    0    0  0.21744364971E+02  0.13197496541E+02 -0.39101793576E+02  0.46646989011E+02  0.00000000000E+00 0. -1.
</event>
<event>
 7    1  0.2943257E-009  0.1145685E+03  0.7561462E-02  0.1252336E+00
          1   -1    0    0  501    0  0.00000000000E+00  0.00000000000E+00  0.50149150556E+03  0.50149150556E+03  0.00000000000E+00 0. -1.
         -1   -1    0    0    0  501 -0.00000000000E+00 -0.00000000000E+00 -0.29897058075E+02  0.29897058075E+02  0.00000000000E+00 0.  1.
         25    2    1    2    0    0  0.35781745796E+02 -0.41522231368E+02  0.30406798041E+03  0.33333125082E+03  0.12509179443E+03 0.  0.
          5    1    3    3  502    0  0.75439726723E+02 -0.43915666868E+02  0.14478687467E+03  0.16911667464E+03  0.41800000000E+01 0. -1.
         -5    1    3    3    0  502 -0.39657980927E+02  0.23934355008E+01  0.15928110574E+03  0.16421457618E+03  0.41800000000E+01 0. -1.
        -11    1    1    2    0    0 -0.61740614767E+02  0.43858193516E+02  0.14509305363E+03  0.16366868626E+03  0.00000000000E+00 0. -1.
         11    1    1    2    0    0  0.25958868971E+02 -0.23359621488E+01  0.22433413444E+02  0.34388626553E+02  0.00000000000E+00 0.  1.
</event>
<event>
 7    1  0.2943257E-009  0.1840478E+03  0.7561462E-02  0.1163942E+00
          1   -1    0    0  501    0  0.00000000000E+00  0.00000000000E+00  0.16614951347E+03  0.16614951347E+03  0.00000000000E+00 0. -1.
         -1   -1    0    0    0  501 -0.00000000000E+00 -0.00000000000E+00 -0.23706807702E+03  0.23706807702E+03  0.00000000000E+00 0.  1.
         25    2    1    2    0    0  0.16287195916E+03 -0.77989345738E+01 -0.26477769211E+00  0.20551213015E+03  0.12508823714E+03 0.  0.
          5    1    3    3  502    0  0.12401081683E+03  0.50137139572E+02  0.12711806625E+02  0.13443019706E+03  0.41800000000E+01 0.  1.
         -5    1    3    3    0  502  0.38861142338E+02 -0.57936074146E+02 -0.12976584317E+02  0.71081933090E+02  0.41800000000E+01 0.  1.
        -11    1    1    2    0    0 -0.55862092117E+02  0.12589770702E+02 -0.70192616567E+02  0.90587411281E+02  0.00000000000E+00 0.  1.
         11    1    1    2    0    0 -0.10700986705E+03 -0.47908361280E+01 -0.46116928839E+00  0.10711804906E+03  0.00000000000E+00 0. -1.
</event>
<event>
 7    1  0.2943257E-009  0.1426988E+03  0.7561462E-02  0.1209743E+00
          2   -1    0    0  501    0  0.00000000000E+00  0.00000000000E+00  0.24939322218E+03  0.24939322218E+03  0.00000000000E+00 0. -1.
         -2   -1    0    0    0  501 -0.00000000000E+00 -0.00000000000E+00 -0.17241730555E+03  0.17241730555E+03  0.00000000000E+00 0.  1.
         25    2    1    2    0    0 -0.70704192187E+02  0.10886957994E+03 -0.80942344672E+02  0.19761208477E+03  0.12508878710E+03 0.  0.
          5    1    3    3  502    0 -0.36595157287E+02  0.11363020165E+03 -0.11521384935E+02  0.12000517895E+03  0.41800000000E+01 0.  1.
         -5    1    3    3    0  502 -0.34109034901E+02 -0.47606217066E+01 -0.69420959737E+02  0.77606905825E+02  0.41800000000E+01 0.  1.
        -11    1    1    2    0    0  0.64081800265E+02 -0.84796313575E+02  0.16672577061E+03  0.19772297415E+03  0.00000000000E+00 0.  1.
         11    1    1    2    0    0  0.66223919224E+01 -0.24073266368E+02 -0.88075093105E+01  0.26475468809E+02  0.00000000000E+00 0. -1.
</event>
<event>
 7    1  0.2943257E-009  0.9836822E+02  0.7561462E-02  0.1283765E+00
          1   -1    0    0  501    0  0.00000000000E+00  0.00000000000E+00  0.47133258834E+03  0.47133258834E+03  0.00000000000E+00 0. -1.
         -1   -1    0    0    0  501 -0.00000000000E+00 -0.00000000000E+00 -0.38276840454E+02  0.38276840454E+02  0.00000000000E+00 0.  1.
         25    2    1    2    0    0 -0.39815746223E+02  0.82304263513E+01  0.37297633546E+03  0.39548956947E+03  0.12509044402E+03 0.  0.
          5    1    3    3  502    0  0.36413565115E+02 -0.21064378936E+02  0.19640115423E+03  0.20089933193E+03  0.41800000000E+01 0.  1.
         -5    1    3    3    0  502 -0.76229311337E+02  0.29294805287E+02  0.17657518122E+03  0.19459023754E+03  0.41800000000E+01 0.  1.
        -11    1    1    2    0    0  0.53492984792E+02  0.49176094617E+01  0.73386337855E+02  0.90946340711E+02  0.00000000000E+00 0. -1.
         11    1    1    2    0    0 -0.13677238570E+02 -0.13148035813E+02 -0.13306925425E+02  0.23173518613E+02  0.00000000000E+00 0.  1.
</event>
<event>
 7    1  0.2943257E-009  0.8731346E+02  0.7561462E-02  0.1309491E+00
          2   -1    0    0  501    0  0.00000000000E+00  0.00000000000E+00  0.38965378702E+03  0.38965378702E+03  0.00000000000E+00 0. -1.
         -2   -1    0    0    0  501 -0.00000000000E+00 -0.00000000000E+00 -0.41643609089E+02  0.41643609089E+02  0.00000000000E+00 0.  1.
         25    2    1    2    0    0 -0.15584939004E+02  0.60799618802E+02  0.19038400036E+03  0.23628984123E+03  0.12508931811E+03 0.  0.
          5    1    3    3  502    0 -0.95664468987E+00  0.30374656350E+02 -0.10593801410E+02  0.32453596808E+02  0.41800000000E+01 0. -1.
         -5    1    3    3    0  502 -0.14628294314E+02  0.30424962452E+02  0.20097780177E+03  0.20383624442E+03  0.41800000000E+01 0. -1.
        -11    1    1    2    0    0 -0.35076905635E+02 -0.44609252671E+02  0.53048356384E+02  0.77682062588E+02  0.00000000000E+00 0.  1.
         11    1    1    2    0    0  0.50661844639E+02 -0.16190366131E+02  0.10457782119E+03  0.11732549229E+03  0.00000000000E+00 0. -1.
</event>
<event>
 7    1  0.2943257E-009  0.1152575E+03  0.7561462E-02  0.1251132E+00
         -1   -1    0    0    0  501 -0.00000000000E+00  0.00000000000E+00  0.11085447560E+03  0.11085447560E+03  0.00000000000E+00 0. -1.
          1   -1    0    0  501    0  0.00000000000E+00 -0.00000000000E+00 -0.12307694453E+03  0.12307694453E+03  0.00000000000E+00 0.  1.
         25    2    1    2    0    0 -0.92190044137E+01 -0.37497371301E+02  0.29262800997E+01  0.13094639058E+03  0.12508937282E+03 0.  0.
          5    1    3    3  502    0 -0.59551987346E+02  0.85842063499E+01  0.13389372889E+02  0.61780866795E+02  0.41800000000E+01 0. -1.
         -5    1    3    3    0  502  0.50332982933E+02 -0.46081577651E+02 -0.10463092789E+02  0.69165523785E+02  0.41800000000E+01 0. -1.
        -11    1    1    2    0    0  0.17749709744E+02  0.67938591698E+02 -0.92522876123E+01  0.70825908141E+02  0.00000000000E+00 0. -1.
         11    1    1    2    0    0 -0.85307053305E+01 -0.30441220397E+02 -0.58964614086E+01  0.32159121409E+02  0.00000000000E+00 0.  1.
</event>
<event>
 7    1  0.2943257E-009  0.1159903E+03  0.7561462E-02  0.1249862E+00
         -2   -1    0    0    0  501 -0.00000000000E+00  0.00000000000E+00  0.21577578978E+03  0.21577578978E+03  0.00000000000E+00 0.  1.
          2   -1    0    0  501    0  0.00000000000E+00 -0.00000000000E+00 -0.96995961450E+02  0.96995961450E+02  0.00000000000E+00 0. -1.
         25    2    1    2    0    0  0.76508785105E+02  0.40402753666E+02  0.10793428874E+03  0.18650640339E+03  0.12509536808E+03 0.  0.
          5    1    3    3  502    0  0.84976645064E+02  0.24610502087E+02  0.13029597232E+03  0.15754751607E+03  0.41800000000E+01 0.  1.
         -5    1    3    3    0  502 -0.84678599592E+01  0.15792251578E+02 -0.22361683573E+02  0.28958887313E+02  0.41800000000E+01 0.  1.
        -11    1    1    2    0    0 -0.97353038237E+02 -0.35278890582E+02  0.14277947508E+02  0.10452786212E+03  0.00000000000E+00 0. -1.
         11    1    1    2    0    0  0.20844253132E+02 -0.51238630838E+01 -0.34324079172E+01  0.21737485725E+02  0.00000000000E+00 0.  1.
</event>
<event>
 7    1  0.2943257E-009  0.5291190E+03  0.7561462E-02  0.1006446E+00
         -1   -1    0    0    0  501 -0.00000000000E+00  0.00000000000E+00  0.39479873438E+03  0.39479873438E+03  0.00000000000E+00 0.  1.
          1   -1    0    0  501    0  0.00000000000E+00 -0.00000000000E+00 -0.84512231788E+03  0.84512231788E+03  0.00000000000E+00 0. -1.
         25    2    1    2    0    0 -0.50388078255E+03 -0.13344642890E+03 -0.46612189872E+03  0.71036651177E+03  0.12508862523E+03 0.  0.
          5    1    3    3  502    0 -0.19104467248E+03 -0.11385545213E+03 -0.18558857282E+03  0.28969246042E+03  0.41800000000E+01 0. -1.
         -5    1    3    3    0  502 -0.31283611008E+03 -0.19590976765E+02 -0.28053332590E+03  0.42067405135E+03  0.41800000000E+01 0. -1.
        -11    1    1    2    0    0  0.11525688678E+03  0.45221040391E+02 -0.32820999355E+02  0.12808712052E+03  0.00000000000E+00 0. -1.
         11    1    1    2    0    0  0.38862389578E+03  0.88225388505E+02  0.48619314575E+02  0.40146741997E+03  0.00000000000E+00 0.  1.
</event>
<event>
 7    1  0.2943257E-009  0.8880005E+02  0.7561462E-02  0.1305784E+00
          3   -1    0    0  501    0  0.00000000000E+00  0.00000000000E+00  0.25268879549E+02  0.25268879549E+02  0.00000000000E+00 0. -1.
         -3   -1    0    0    0  501 -0.00000000000E+00 -0.00000000000E+00 -0.46604749859E+03  0.46604749859E+03  0.00000000000E+00 0.  1.
         25    2    1    2    0    0  0.50990493275E+01 -0.78581644042E+01 -0.24129081041E+03  0.27194600571E+03  0.12508246793E+03 0.  0.
          5    1    3    3  502    0 -0.45915740510E+02 -0.10095435696E+02 -0.33363361295E+02  0.57799302118E+02  0.41800000000E+01 0.  1.
         -5    1    3    3    0  502  0.51014789837E+02  0.22372712922E+01 -0.20792744912E+03  0.21414670360E+03  0.41800000000E+01 0.  1.
        -11    1    1    2    0    0 -0.33989280224E+02  0.27927015244E+02 -0.16240462229E+03  0.16825709700E+03  0.00000000000E+00 0.  1.
         11    1    1    2    0    0  0.28890230897E+02 -0.20068850840E+02 -0.37083186342E+02  0.51113275424E+02  0.00000000000E+00 0. -1.
</event>
<event>
 7    1  0.2943257E-009  0.8622156E+02  0.7561462E-02  0.1312269E+00
         -2   -1    0    0    0  501 -0.00000000000E+00  0.00000000000E+00  0.20491755490E+03  0.20491755490E+03  0.00000000000E+00 0.  1.
          2   -1    0    0  501    0  0.00000000000E+00 -0.00000000000E+00 -0.55367163922E+02  0.55367163922E+02  0.00000000000E+00 0. -1.
         25    2    1    2    0    0 -0.32886139229E+01  0.15431782664E+02  0.69177074984E+02  0.14380724037E+03  0.12508437065E+03 0.  0.
          5    1    3    3  502    0 -0.22199495956E+02 -0.50746766739E+02  0.19694824105E+02  0.58935646698E+02  0.41800000000E+01 0. -1.
         -5    1    3    3    0  502  0.18910882033E+02  0.66178549404E+02  0.49482250879E+02  0.84871593672E+02  0.41800000000E+01 0. -1.
        -11    1    1    2    0    0  0.28810071409E+01  0.16125790451E+02  0.83194062018E+02  0.84791469352E+02  0.00000000000E+00 0.  1.
         11    1    1    2    0    0  0.40760678204E+00 -0.31557573116E+02 -0.28207460287E+01  0.31686009096E+02  0.00000000000E+00 0. -1.
</event>
<event>
 7    1  0.2943257E-009  0.8730486E+02  0.7561462E-02  0.1309513E+00
          2   -1    0    0  501    0  0.00000000000E+00  0.00000000000E+00  0.11728161999E+04  0.11728161999E+04  0.00000000000E+00 0. -1.
         -2   -1    0    0    0  501 -0.00000000000E+00 -0.00000000000E+00 -0.12098005188E+02  0.12098005188E+02  0.00000000000E+00 0.  1.
         25    2    1    2    0    0 -0.37372019996E+02  0.22875496866E+02  0.79565272057E+03  0.80661712606E+03  0.12509188654E+03 0.  0.
          5    1    3    3  502    0  0.22514952559E+02  0.18199798495E+02  0.62443534422E+03  0.62512009028E+03  0.41800000000E+01 0. -1.
         -5    1    3    3    0  502 -0.59886972554E+02  0.46756983716E+01  0.17121737634E+03  0.18149703579E+03  0.41800000000E+01 0. -1.
        -11    1    1    2    0    0  0.59654682990E+02 -0.15011018140E+02  0.33203140359E+03  0.33768160275E+03  0.00000000000E+00 0. -1.
         11    1    1    2    0    0 -0.22282662995E+02 -0.78644787263E+01  0.33034070587E+02  0.40615476303E+02  0.00000000000E+00 0.  1.
</event>
<event>
 7    1  0.2943257E-009  0.1273365E+03  0.7561462E-02  0.1231462E+00
          1   -1    0    0  501    0  0.00000000000E+00  0.00000000000E+00  0.10295868644E+03  0.10295868644E+03  0.00000000000E+00 0. -1.
         -1   -1    0    0    0  501 -0.00000000000E+00 -0.00000000000E+00 -0.29181835716E+03  0.29181835716E+03  0.00000000000E+00 0.  1.
         25    2    1    2    0    0  0.95805383018E+02  0.89970603391E+01  0.79381073837E+01  0.15801308319E+03  0.12508198272E+03 0.  0.
          5    1    3    3  502    0 -0.28692874818E+01  0.28039057709E+02  0.42923568188E+02  0.51520157937E+02  0.41800000000E+01 0.  1.
         -5    1    3    3    0  502  0.98674670500E+02 -0.19041997370E+02 -0.34985460804E+02  0.10649292526E+03  0.41800000000E+01 0.  1.
        -11    1    1    2    0    0 -0.59587183179E+02  0.34611222182E+02 -0.14240580978E+03  0.15820235068E+03  0.00000000000E+00 0. -1.
         11    1    1    2    0    0 -0.36218199839E+02 -0.43608282521E+02 -0.54391968323E+02  0.78561609722E+02  0.00000000000E+00 0.  1.
</event>
<event>
 7    1  0.2943257E-009  0.1179594E+03  0.7561462E-02  0.1246502E+00
         -2   -1    0    0    0  501 -0.00000000000E+00  0.00000000000E+00  0.13042345298E+03  0.13042345298E+03  0.00000000000E+00 0.  1.
          2   -1    0    0  501    0  0.00000000000E+00 -0.00000000000E+00 -0.15427547750E+03  0.15427547750E+03  0.00000000000E+00 0. -1.
         25    2    1    2    0    0 -0.64600132658E+02  0.11437688232E+02 -0.76603252015E+02  0.16069571951E+03  0.12510418937E+03 0.  0.
          5    1    3    3  502    0 -0.90353402237E+00 -0.50166520255E+02 -0.41662153741E+02  0.65350620369E+02  0.41800000000E+01 0. -1.
         -5    1    3    3    0  502 -0.63696598635E+02  0.61604208487E+02 -0.34941098273E+02  0.95345099138E+02  0.41800000000E+01 0. -1.
        -11    1    1    2    0    0  0.73423339870E+02  0.95973273514E+01  0.64629135826E+02  0.98285404448E+02  0.00000000000E+00 0.  1.
         11    1    1    2    0    0 -0.88232072121E+01 -0.21035015583E+02 -0.11877908330E+02  0.25717806524E+02  0.00000000000E+00 0. -1.
</event>
<event>
 7    1  0.2943257E-009  0.6236918E+02  0.7561462E-02  0.1388150E+00
          2   -1    0    0  501    0  0.00000000000E+00  0.00000000000E+00  0.32094671461E+03  0.32094671461E+03  0.00000000000E+00 0. -1.
         -2   -1    0    0    0  501 -0.00000000000E+00 -0.00000000000E+00 -0.47157609992E+02  0.47157609992E+02  0.00000000000E+00 0.  1.
         25    2    1    2    0    0  0.88531630747E+01 -0.13826513663E+02  0.23672234494E+03  0.26824114447E+03  0.12508513907E+03 0.  0.
          5    1    3    3  502    0  0.36974885566E+02 -0.11816796950E+02  0.10772246471E+02  0.40500525266E+02  0.41800000000E+01 0.  1.
         -5    1    3    3    0  502 -0.28121722491E+02 -0.20097167127E+01  0.22595009847E+03  0.22774061921E+03  0.41800000000E+01 0.  1.
        -11    1    1    2    0    0 -0.18385132700E+02 -0.16931588832E+02 -0.21538510335E+02  0.32993927203E+02  0.00000000000E+00 0.  1.
         11    1    1    2    0    0  0.95319696255E+01  0.30758102495E+02  0.58605270005E+02  0.66869252923E+02  0.00000000000E+00 0. -1.
</event>
<event>
 7    1  0.2943257E-009  0.1003749E+03  0.7561462E-02  0.1279510E+00
          1   -1    0    0  501    0  0.00000000000E+00  0.00000000000E+00  0.49540638074E+03  0.49540638074E+03  0.00000000000E+00 0. -1.
         -1   -1    0    0    0  501 -0.00000000000E+00 -0.00000000000E+00 -0.35518879772E+02  0.35518879772E+02  0.00000000000E+00 0.  1.
         25    2    1    2    0    0  0.12362134918E+02 -0.50329194717E+02  0.36573033215E+03  0.38998954509E+03  0.12508924496E+03 0.  0.
          5    1    3    3  502    0  0.10464068532E+02 -0.80917360657E+02  0.34023280338E+03  0.34990419957E+03  0.41800000000E+01 0. -1.
         -5    1    3    3    0  502  0.18980663860E+01  0.30588165940E+02  0.25497528774E+02  0.40085345517E+02  0.41800000000E+01 0. -1.
        -11    1    1    2    0    0  0.19461370364E+02  0.52730272672E+02  0.19080225074E+02  0.59357236975E+02  0.00000000000E+00 0. -1.
         11    1    1    2    0    0 -0.31823505282E+02 -0.24010779548E+01  0.75076943741E+02  0.81578478444E+02  0.00000000000E+00 0.  1.
</event>
<event>
 7    1  0.2943257E-009  0.1125887E+03  0.7561462E-02  0.1255850E+00
         -1   -1    0    0    0  501 -0.00000000000E+00  0.00000000000E+00  0.36913055368E+03  0.36913055368E+03  0.00000000000E+00 0.  1.
          1   -1    0    0  501    0  0.00000000000E+00 -0.00000000000E+00 -0.55993670483E+02  0.55993670483E+02  0.00000000000E+00 0. -1.
         25    2    1    2    0    0 -0.36532988219E+02  0.84710556275E+02  0.14321374471E+03  0.21134854756E+03  0.12508994487E+03 0.  0.
          5    1    3    3  502    0 -0.10851936635E+02  0.95367885473E+02  0.15376935200E+03  0.18131542715E+03  0.41800000000E+01 0. -1.
         -5    1    3    3    0  502 -0.25681051584E+02 -0.10657329197E+02 -0.10555607293E+02  0.30033120407E+02  0.41800000000E+01 0. -1.
        -11    1    1    2    0    0  0.45076585464E+02 -0.61480537469E+02  0.17278883100E+03  0.18885903516E+03  0.00000000000E+00 0.  1.
         11    1    1    2    0    0 -0.85435972450E+01 -0.23230018807E+02 -0.28656925007E+01  0.24916641450E+02  0.00000000000E+00 0. -1.
</event>
<event>
 7    1  0.2943257E-009  0.1133933E+03  0.7561462E-02  0.1254412E+00
          2   -1    0    0  501    0  0.00000000000E+00  0.00000000000E+00  0.10231968765E+03  0.10231968765E+03  0.00000000000E+00 0. -1.
         -2   -1    0    0    0  501 -0.00000000000E+00 -0.00000000000E+00 -0.12753582674E+03  0.12753582674E+03  0.00000000000E+00 0.  1.
         25    2    1    2    0    0 -0.12791583191E+02  0.36056991234E+02 -0.13200751702E+02  0.13147402254E+03  0.12508967800E+03 0.  0.
          5    1    3    3  502    0 -0.67248407026E+02  0.31602429518E+02  0.25240082139E+01  0.74464117644E+02  0.41800000000E+01 0. -1.
         -5    1    3    3    0  502  0.54456823835E+02  0.44545617159E+01 -0.15724759916E+02  0.57009904900E+02  0.41800000000E+01 0. -1.
        -11    1    1    2    0    0 -0.32176457720E+02 -0.41233102614E+02 -0.44782929129E+01  0.52493316622E+02  0.00000000000E+00 0.  1.
         11    1    1    2    0    0  0.44968040911E+02  0.51761113791E+01 -0.75370944726E+01  0.45888175225E+02  0.00000000000E+00 0. -1.
</event>
<event>
 7    1  0.2943257E-009  0.1264606E+03  0.7561462E-02  0.1232804E+00
         -4   -1    0    0    0  501 -0.00000000000E+00  0.00000000000E+00  0.62000065152E+02  0.62000065152E+02  0.00000000000E+00 0.  1.
          4   -1    0    0  501    0  0.00000000000E+00 -0.00000000000E+00 -0.35805090862E+03  0.35805090862E+03  0.00000000000E+00 0. -1.
         25    2    1    2    0    0  0.82676978895E+02  0.74402907749E+01 -0.76517326237E+02  0.16850123859E+03  0.12508767095E+03 0.  0.
          5    1    3    3  502    0  0.10041189736E+03 -0.18924489323E+02 -0.21002134516E+02  0.10439946112E+03  0.41800000000E+01 0. -1.
         -5    1    3    3    0  502 -0.17734918465E+02  0.26364780098E+02 -0.55515191721E+02  0.64101777467E+02  0.41800000000E+01 0. -1.
        -11    1    1    2    0    0 -0.79632297478E+02 -0.37762949583E+02 -0.18833917222E+03  0.20793986379E+03  0.00000000000E+00 0.  1.
         11    1    1    2    0    0 -0.30446814170E+01  0.30322658808E+02 -0.31194345015E+02  0.43609871395E+02  0.00000000000E+00 0. -1.
</event>
<event>
 7    1  0.2943257E-009  0.9425691E+02  0.7561462E-02  0.1292859E+00
          1   -1    0    0  501    0  0.00000000000E+00  0.00000000000E+00  0.14253819080E+03  0.14253819080E+03  0.00000000000E+00 0. -1.
         -1   -1    0    0    0  501 -0.00000000000E+00 -0.00000000000E+00 -0.12855633619E+03  0.12855633619E+03  0.00000000000E+00 0.  1.
         25    2    1    2    0    0 -0.32335635967E+02  0.45578128470E+02  0.64617428131E+02  0.15147868905E+03  0.12508965613E+03 0.  0.
          5    1    3    3  502    0 -0.34485076603E+02 -0.34371282294E+02  0.47313779850E+00  0.48870254903E+02  0.41800000000E+01 0.  1.
         -5    1    3    3    0  502  0.21494406360E+01  0.79949410765E+02  0.64144290333E+02  0.10260843415E+03  0.41800000000E+01 0.  1.
        -11    1    1    2    0    0  0.84024879595E+00 -0.17028105294E+02  0.26518475286E+02  0.31526051441E+02  0.00000000000E+00 0. -1.
         11    1    1    2    0    0  0.31495387171E+02 -0.28550023176E+02 -0.77154048812E+02  0.88089786494E+02  0.00000000000E+00 0.  1.
</event>
<event>
 7    1  0.2943257E-009  0.1500570E+03  0.7561462E-02  0.1200403E+00
         -1   -1    0    0    0  501 -0.00000000000E+00  0.00000000000E+00  0.21628473964E+02  0.21628473964E+02  0.00000000000E+00 0.  1.
          1   -1    0    0  501    0  0.00000000000E+00 -0.00000000000E+00 -0.10971712383E+04  0.10971712383E+04  0.00000000000E+00 0. -1.
         25    2    1    2    0    0  0.75642140159E+02  0.73747133316E+02 -0.66838184622E+03  0.68814209814E+03  0.12507950205E+03 0.  0.
          5    1    3    3  502    0 -0.32430468460E+02  0.40495878548E+01 -0.18598670184E+03  0.18888266228E+03  0.41800000000E+01 0. -1.
         -5    1    3    3    0  502  0.10807260862E+03  0.69697545461E+02 -0.48239514437E+03  0.49925943586E+03  0.41800000000E+01 0. -1.
        -11    1    1    2    0    0 -0.95335689753E+02 -0.70427501667E+02 -0.32022269010E+03  0.34145497212E+03  0.00000000000E+00 0.  1.
         11    1    1    2    0    0  0.19693549594E+02 -0.33196316490E+01 -0.86938227975E+02  0.89202641964E+02  0.00000000000E+00 0. -1.
</event>
<event>
 7    1  0.2943257E-009  0.1170766E+03  0.7561462E-02  0.1247999E+00
         -1   -1    0    0    0  501 -0.00000000000E+00  0.00000000000E+00  0.46604927142E+02  0.46604927142E+02  0.00000000000E+00 0.  1.
          1   -1    0    0  501    0  0.00000000000E+00 -0.00000000000E+00 -0.33473267986E+03  0.33473267986E+03  0.00000000000E+00 0. -1.
         25    2    1    2    0    0 -0.59221533025E+02  0.13779980122E+02 -0.16339214263E+03  0.21457294044E+03  0.12508987437E+03 0.  0.
          5    1    3    3  502    0 -0.94816854811E+02 -0.95853521639E+01 -0.10105705663E+03  0.13896803959E+03  0.41800000000E+01 0.  1.
         -5    1    3    3    0  502  0.35595321786E+02  0.23365332286E+02 -0.62335085997E+02  0.75604900847E+02  0.41800000000E+01 0.  1.
        -11    1    1    2    0    0 -0.17121465588E+02 -0.93457078704E+01 -0.70145814033E+02  0.72807431391E+02  0.00000000000E+00 0. -1.
         11    1    1    2    0    0  0.76342998612E+02 -0.44342722513E+01 -0.54589796050E+02  0.93957235168E+02  0.00000000000E+00 0.  1.
</event>
<event>
 7    1  0.2978312E-009  0.2445934E+03  0.7561462E-02  0.1116770E+00
          1   -1    0    0  501    0  0.00000000000E+00  0.00000000000E+00  0.23163805988E+04  0.23163805988E+04  0.00000000000E+00 0. -1.
         -1   -1    0    0    0  501 -0.00000000000E+00 -0.00000000000E+00 -0.30899282371E+02  0.30899282371E+02  0.00000000000E+00 0.  1.
         25    2    1    2    0    0  0.18519972722E+03 -0.15785087973E+03  0.12585898906E+04  0.12879871819E+04  0.12508648586E+03 0.  0.
          5    1    3    3  502    0  0.19305713882E+01 -0.18897887626E+01  0.28653975923E+03  0.28658298000E+03  0.41800000000E+01 0. -1.
         -5    1    3    3    0  502  0.18326915583E+03 -0.15596109096E+03  0.97205013135E+03  0.10014042019E+04  0.41800000000E+01 0. -1.
        -11    1    1    2    0    0 -0.10296125420E+03  0.81583569580E+02  0.36399124357E+03  0.38697096026E+03  0.00000000000E+00 0.  1.
         11    1    1    2    0    0 -0.82238473017E+02  0.76267310146E+02  0.66290018229E+03  0.67232173899E+03  0.00000000000E+00 0. -1.
</event>
<event>
 7    1  0.3066212E-009  0.1253937E+03  0.7561462E-02  0.1234455E+00
         -2   -1    0    0    0  501 -0.00000000000E+00  0.00000000000E+00  0.24326422287E+02  0.24326422287E+02  0.00000000000E+00 0. -1.
          2   -1    0    0  501    0  0.00000000000E+00 -0.00000000000E+00 -0.75488726693E+03  0.75488726693E+03  0.00000000000E+00 0.  1.
         25    2    1    2    0    0  0.55882929266E+02  0.55402831925E+02 -0.44932739588E+03  0.47300617477E+03  0.12508939647E+03 0.  0.
          5    1    3    3  502    0  0.68824644088E+02 -0.65709150998E+01 -0.12863435789E+03  0.14609681376E+03  0.41800000000E+01 0.  1.
         -5    1    3    3    0  502 -0.12941714821E+02  0.61973747025E+02 -0.32069303799E+03  0.32690936101E+03  0.41800000000E+01 0.  1.
        -11    1    1    2    0    0  0.15076556652E+02 -0.43609796093E+02 -0.78081484829E+02  0.90696389944E+02  0.00000000000E+00 0. -1.
         11    1    1    2    0    0 -0.70959485919E+02 -0.11793035832E+02 -0.20315196393E+03  0.21551112451E+03  0.00000000000E+00 0.  1.
</event>
<event>
 7    1  0.2943257E-009  0.7435146E+02  0.7561462E-02  0.1345891E+00
         -2   -1    0    0    0  501 -0.00000000000E+00  0.00000000000E+00  0.34966078528E+02  0.34966078528E+02  0.00000000000E+00 0.  1.
          2   -1    0    0  501    0  0.00000000000E+00 -0.00000000000E+00 -0.45567165220E+03  0.45567165220E+03  0.00000000000E+00 0. -1.
         25    2    1    2    0    0  0.13269855956E+02  0.41270183726E+02 -0.32571791353E+03  0.35159520241E+03  0.12509080708E+03 0.  0.
          5    1    3    3  502    0 -0.78422373357E+01  0.46148554736E+02 -0.31558531596E+02  0.56609213977E+02  0.41800000000E+01 0. -1.
         -5    1    3    3    0  502  0.21112093291E+02 -0.48783710100E+01 -0.29415938194E+03  0.29498598843E+03  0.41800000000E+01 0. -1.
        -11    1    1    2    0    0 -0.38731578011E+02 -0.11369440012E+02 -0.47689579942E+01  0.40646552889E+02  0.00000000000E+00 0.  1.
         11    1    1    2    0    0  0.25461722056E+02 -0.29900743714E+02 -0.90218702143E+02  0.98395975432E+02  0.00000000000E+00 0. -1.
</event>
<event>
 7    1  0.2943257E-009  0.2320650E+03  0.7561462E-02  0.1125195E+00
          2   -1    0    0  501    0  0.00000000000E+00  0.00000000000E+00  0.49547782765E+03  0.49547782765E+03  0.00000000000E+00 0. -1.
         -2   -1    0    0    0  501 -0.00000000000E+00 -0.00000000000E+00 -0.13173123827E+03  0.13173123827E+03  0.00000000000E+00 0.  1.
         25    2    1    2    0    0  0.78393696914E+02 -0.20956879755E+03  0.12329941242E+03  0.28445520452E+03  0.12508943062E+03 0.  0.
          5    1    3    3  502    0 -0.16562410630E+02 -0.65913631731E+02  0.83356415445E+02  0.10763217312E+03  0.41800000000E+01 0. -1.
         -5    1    3    3    0  502  0.94956107544E+02 -0.14365516582E+03  0.39942996971E+02  0.17682303140E+03  0.41800000000E+01 0. -1.
        -11    1    1    2    0    0 -0.26330116771E+02  0.75813532259E+02  0.15803581920E+03  0.17724640158E+03  0.00000000000E+00 0.  1.
         11    1    1    2    0    0 -0.52063580144E+02  0.13375526529E+03  0.82411357770E+02  0.16550745983E+03  0.00000000000E+00 0. -1.
</event>
<event>
 7    1  0.2943257E-009  0.1050296E+03  0.7561462E-02  0.1270061E+00
         -2   -1    0    0    0  501 -0.00000000000E+00  0.00000000000E+00  0.95235749296E+02  0.95235749296E+02  0.00000000000E+00 0.  1.
          2   -1    0    0  501    0  0.00000000000E+00 -0.00000000000E+00 -0.25510627919E+03  0.25510627919E+03  0.00000000000E+00 0. -1.
         25    2    1    2    0    0  0.36106469804E+02 -0.36138620484E+02 -0.19665838668E+03  0.23860797381E+03  0.12509822966E+03 0.  0.
          5    1    3    3  502    0 -0.19989215289E+02  0.34188385676E+02 -0.32630237144E+02  0.51484164741E+02  0.41800000000E+01 0. -1.
         -5    1    3    3    0  502  0.56095685094E+02 -0.70327006160E+02 -0.16402814953E+03  0.18712380907E+03  0.41800000000E+01 0. -1.
        -11    1    1    2    0    0 -0.12657439297E+02  0.50914205103E+02 -0.13625308140E+02  0.54204391637E+02  0.00000000000E+00 0. -1.
         11    1    1    2    0    0 -0.23449030507E+02 -0.14775584619E+02  0.50413164919E+02  0.57529663042E+02  0.00000000000E+00 0.  1.
</event>
<event>
 7    1  0.2943257E-009  0.9996849E+02  0.7561462E-02  0.1280362E+00
          2   -1    0    0  501    0  0.00000000000E+00  0.00000000000E+00  0.23178570391E+03  0.23178570391E+03  0.00000000000E+00 0. -1.
         -2   -1    0    0    0  501 -0.00000000000E+00 -0.00000000000E+00 -0.65138408401E+02  0.65138408401E+02  0.00000000000E+00 0.  1.
         25    2    1    2    0    0 -0.39374932083E+02  0.14513233629E+02  0.46653018470E+02  0.13993907749E+03  0.12508166152E+03 0.  0.
          5    1    3    3  502    0  0.34415321838E+02  0.22293928062E+01 -0.19632384342E+02  0.39903477097E+02  0.41800000000E+01 0.  1.
         -5    1    3    3    0  502 -0.73790253921E+02  0.12283840822E+02  0.66285402812E+02  0.10003560039E+03  0.41800000000E+01 0.  1.
        -11    1    1    2    0    0 -0.22898105579E+02  0.77005849976E+01  0.70126006281E+02  0.74170607422E+02  0.00000000000E+00 0. -1.
         11    1    1    2    0    0  0.62273037662E+02 -0.22213818626E+02  0.49868270757E+02  0.82814427402E+02  0.00000000000E+00 0.  1.
</event>
<event>
 7    1  0.2943257E-009  0.4582533E+02  0.7561462E-02  0.1469254E+00
          4   -1    0    0  501    0  0.00000000000E+00  0.00000000000E+00  0.99292272264E+02  0.99292272264E+02  0.00000000000E+00 0. -1.
         -4   -1    0    0    0  501 -0.00000000000E+00 -0.00000000000E+00 -0.13722093498E+03  0.13722093498E+03  0.00000000000E+00 0.  1.
         25    2    1    2    0    0  0.22706926367E+02 -0.32661210252E+01 -0.60361567677E+02  0.14077426557E+03  0.12509037910E+03 0.  0.
          5    1    3    3  502    0  0.68048774704E+01 -0.16583346365E+02  0.36901034767E+02  0.41236785773E+02  0.41800000000E+01 0. -1.
         -5    1    3    3    0  502  0.15902048896E+02  0.13317225340E+02 -0.97262602444E+02  0.99537479796E+02  0.41800000000E+01 0. -1.
        -11    1    1    2    0    0 -0.10053827284E+02  0.24994993082E+02 -0.28326842666E+02  0.39092699288E+02  0.00000000000E+00 0.  1.
         11    1    1    2    0    0 -0.12653099083E+02 -0.21728872056E+02  0.50759747628E+02  0.56646242386E+02  0.00000000000E+00 0. -1.
</event>
<event>
 7    1  0.2943257E-009  0.2868618E+03  0.7561462E-02  0.1091999E+00
          1   -1    0    0  501    0  0.00000000000E+00  0.00000000000E+00  0.20254024077E+03  0.20254024077E+03  0.00000000000E+00 0. -1.
         -1   -1    0    0    0  501 -0.00000000000E+00 -0.00000000000E+00 -0.49407918562E+03  0.49407918562E+03  0.00000000000E+00 0.  1.
         25    2    1    2    0    0 -0.23343194626E+03  0.13996513534E+03 -0.27788560252E+03  0.40859380729E+03  0.12509108132E+03 0.  0.
          5    1    3    3  502    0 -0.14531707325E+03  0.14473080215E+02 -0.13159048407E+03  0.19662159018E+03  0.41800000000E+01 0. -1.
         -5    1    3    3    0  502 -0.88114873011E+02  0.12549205512E+03 -0.14629511845E+03  0.21197221711E+03  0.41800000000E+01 0. -1.
        -11    1    1    2    0    0  0.20066941859E+03 -0.10562234111E+03 -0.44938005194E+02  0.23117897571E+03  0.00000000000E+00 0.  1.
         11    1    1    2    0    0  0.32762527667E+02 -0.34342794227E+02  0.31284662857E+02  0.56846643388E+02  0.00000000000E+00 0. -1.
</event>
<event>
 7    1  0.2943257E-009  0.9508965E+02  0.7561462E-02  0.1290974E+00
          2   -1    0    0  501    0  0.00000000000E+00  0.00000000000E+00  0.93564534402E+02  0.93564534402E+02  0.00000000000E+00 0. -1.
         -2   -1    0    0    0  501 -0.00000000000E+00 -0.00000000000E+00 -0.26455385065E+03  0.26455385065E+03  0.00000000000E+00 0.  1.
         25    2    1    2    0    0 -0.60924773887E+02 -0.19033802519E+02  0.15149344359E+02  0.14124839051E+03  0.12508993355E+03 0.  0.
          5    1    3    3  502    0 -0.67165785639E+02 -0.23353619431E+02  0.61491764046E+02  0.94102836017E+02  0.41800000000E+01 0.  1.
         -5    1    3    3    0  502  0.62410117514E+01  0.43198169120E+01 -0.46342419687E+02  0.47145554491E+02  0.41800000000E+01 0.  1.
        -11    1    1    2    0    0  0.15608518742E+02 -0.35853900545E+02 -0.52556474252E+02  0.65508098945E+02  0.00000000000E+00 0.  1.
         11    1    1    2    0    0  0.45316255145E+02  0.54887703064E+02 -0.13358218635E+03  0.15136189560E+03  0.00000000000E+00 0. -1.
</event>
<event>
 7    1  0.2943257E-009  0.2458311E+03  0.7561462E-02  0.1115968E+00
         -1   -1    0    0    0  501 -0.00000000000E+00  0.00000000000E+00  0.83784366590E+03  0.83784366590E+03  0.00000000000E+00 0.  1.
          1   -1    0    0  501    0  0.00000000000E+00 -0.00000000000E+00 -0.77501030330E+02  0.77501030330E+02  0.00000000000E+00 0. -1.
         25    2    1    2    0    0  0.11002533643E+03  0.20060711912E+03  0.39606964015E+03  0.47420280588E+03  0.12509336657E+03 0.  0.
          5    1    3    3  502    0  0.12519857439E+03  0.12342759668E+03  0.31748926334E+03  0.36294071057E+03  0.41800000000E+01 0. -1.
         -5    1    3    3    0  502 -0.15173237963E+02  0.77179522434E+02  0.78580376813E+02  0.11126209531E+03  0.41800000000E+01 0. -1.
        -11    1    1    2    0    0 -0.11795509687E+02 -0.82853508975E+02  0.69166569320E+02  0.10857187624E+03  0.00000000000E+00 0. -1.
         11    1    1    2    0    0 -0.98229826738E+02 -0.11775361014E+03  0.29510642610E+03  0.33257001412E+03  0.00000000000E+00 0.  1.
</event>
<event>
 7    1  0.2943257E-009  0.1218777E+03  0.7561462E-02  0.1240031E+00
         -4   -1    0    0    0  501 -0.00000000000E+00  0.00000000000E+00  0.99810506538E+02  0.99810506538E+02  0.00000000000E+00 0.  1.
          4   -1    0    0  501    0  0.00000000000E+00 -0.00000000000E+00 -0.18996606948E+03  0.18996606948E+03  0.00000000000E+00 0. -1.
         25    2    1    2    0    0  0.78505036860E+02 -0.32156060729E+02 -0.41824289139E+02  0.15682495997E+03  0.12509094233E+03 0.  0.
          5    1    3    3  502    0  0.87040429241E+02  0.21462130631E+02 -0.48418858555E+02  0.10197312213E+03  0.41800000000E+01 0. -1.
         -5    1    3    3    0  502 -0.85353923807E+01 -0.53618191360E+02  0.65945694162E+01  0.54851837833E+02  0.41800000000E+01 0. -1.
        -11    1    1    2    0    0 -0.29944050443E+02  0.40413993840E+02  0.15215195774E+02  0.52549398069E+02  0.00000000000E+00 0.  1.
         11    1    1    2    0    0 -0.48560986417E+02 -0.82579331107E+01 -0.63546469579E+02  0.80402217986E+02  0.00000000000E+00 0. -1.
</event>
<event>
 7    1  0.2943257E-009  0.1525006E+03  0.7561462E-02  0.1197434E+00
         -1   -1    0    0    0  501 -0.00000000000E+00  0.00000000000E+00  0.27511217635E+02  0.27511217635E+02  0.00000000000E+00 0.  1.
          1   -1    0    0  501    0  0.00000000000E+00 -0.00000000000E+00 -0.93733149459E+03  0.93733149459E+03  0.00000000000E+00 0. -1.
         25    2    1    2    0    0  0.90736553477E+02  0.66807133338E+02 -0.39231536702E+03  0.42691427172E+03  0.12509249775E+03 0.  0.
          5    1    3    3  502    0 -0.25291938026E+02 -0.66995490853E+00 -0.12685120283E+03  0.12941727484E+03  0.41800000000E+01 0. -1.
         -5    1    3    3    0  502  0.11602849150E+03  0.67477088247E+02 -0.26546416419E+03  0.29749699688E+03  0.41800000000E+01 0. -1.
        -11    1    1    2    0    0 -0.53029118536E+02  0.14898727890E+02 -0.23817424262E+03  0.24446069081E+03  0.00000000000E+00 0. -1.
         11    1    1    2    0    0 -0.37707434941E+02 -0.81705861229E+02 -0.27933066731E+03  0.29346774969E+03  0.00000000000E+00 0.  1.
</event>
<event>
 7    1  0.2943257E-009  0.1023499E+03  0.7561462E-02  0.1275431E+00
          2   -1    0    0  501    0  0.00000000000E+00  0.00000000000E+00  0.32752788674E+03  0.32752788674E+03  0.00000000000E+00 0. -1.
         -2   -1    0    0    0  501 -0.00000000000E+00 -0.00000000000E+00 -0.50075207487E+02  0.50075207487E+02  0.00000000000E+00 0.  1.
         25    2    1    2    0    0  0.40098364981E+02 -0.15343643686E+02  0.24367980795E+03  0.27725612506E+03  0.12509118195E+03 0.  0.
          5    1    3    3  502    0  0.70292593274E+02  0.29357871588E+02  0.16481352253E+03  0.18161471004E+03  0.41800000000E+01 0.  1.
         -5    1    3    3    0  502 -0.30194228293E+02 -0.44701515274E+02  0.78866285425E+02  0.95641415018E+02  0.41800000000E+01 0.  1.
        -11    1    1    2    0    0 -0.37967033084E+02 -0.17205782254E+02 -0.12694158257E+02  0.43573801740E+02  0.00000000000E+00 0.  1.
         11    1    1    2    0    0 -0.21313318966E+01  0.32549425940E+02  0.46467029558E+02  0.56773167435E+02  0.00000000000E+00 0. -1.
</event>
<event>
 7    1  0.2943257E-009  0.1078437E+03  0.7561462E-02  0.1264616E+00
         -1   -1    0    0    0  501 -0.00000000000E+00  0.00000000000E+00  0.45660600623E+03  0.45660600623E+03  0.00000000000E+00 0.  1.
          1   -1    0    0  501    0  0.00000000000E+00 -0.00000000000E+00 -0.33369264544E+02  0.33369264544E+02  0.00000000000E+00 0. -1.
         25    2    1    2    0    0 -0.57319137123E+02  0.10642155524E+02  0.25213150493E+03  0.28743029079E+03  0.12508851797E+03 0.  0.
          5    1    3    3  502    0 -0.49243733622E+02  0.48327538768E+02  0.23516478821E+03  0.24511312963E+03  0.41800000000E+01 0. -1.
         -5    1    3    3    0  502 -0.80754035004E+01 -0.37685383245E+02  0.16966716727E+02  0.42317161158E+02  0.41800000000E+01 0. -1.
        -11    1    1    2    0    0  0.44831789659E+02  0.37260375539E+02  0.10295419942E+03  0.11831226533E+03  0.00000000000E+00 0. -1.
         11    1    1    2    0    0  0.12487347463E+02 -0.47902531063E+02  0.68151037341E+02  0.84232714663E+02  0.00000000000E+00 0.  1.
</event>
<event>
 7    1  0.2943257E-009  0.1138029E+03  0.7561462E-02  0.1253685E+00
          3   -1    0    0  501    0  0.00000000000E+00  0.00000000000E+00  0.47720246609E+03  0.47720246609E+03  0.00000000000E+00 0. -1.
         -3   -1    0    0    0  501 -0.00000000000E+00 -0.00000000000E+00 -0.38020739970E+02  0.38020739970E+02  0.00000000000E+00 0.  1.
         25    2    1    2    0    0 -0.62335934321E+02 -0.45376494909E+02  0.21070676629E+03  0.25688381543E+03  0.12508860170E+03 0.  0.
          5    1    3    3  502    0 -0.22441239528E+02 -0.71520259732E+02  0.19078378364E+03  0.20502361153E+03  0.41800000000E+01 0. -1.
         -5    1    3    3    0  502 -0.39894694793E+02  0.26143764823E+02  0.19922982649E+02  0.51860203908E+02  0.41800000000E+01 0. -1.
        -11    1    1    2    0    0  0.31088582094E+02  0.61925564960E+02  0.20370508140E+03  0.21516745972E+03  0.00000000000E+00 0. -1.
         11    1    1    2    0    0  0.31247352227E+02 -0.16549070051E+02  0.24769878426E+02  0.43171930904E+02  0.00000000000E+00 0.  1.
</event>
<event>
 7    1  0.2943257E-009  0.1017593E+03  0.7561462E-02  0.1276639E+00
         -2   -1    0    0    0  501 -0.00000000000E+00  0.00000000000E+00  0.24499356494E+03  0.24499356494E+03  0.00000000000E+00 0.  1.
          2   -1    0    0  501    0  0.00000000000E+00 -0.00000000000E+00 -0.66326353014E+02  0.66326353014E+02  0.00000000000E+00 0. -1.
         25    2    1    2    0    0 -0.29005876964E+02  0.42491457221E+01  0.25853181170E+02  0.13105130615E+03  0.12508661691E+03 0.  0.
          5    1    3    3  502    0 -0.17294910270E+02 -0.57577330620E+02 -0.57015421507E+01  0.60532990224E+02  0.41800000000E+01 0. -1.
         -5    1    3    3    0  502 -0.11710966694E+02  0.61826476342E+02  0.31554723320E+02  0.70518315930E+02  0.41800000000E+01 0. -1.
        -11    1    1    2    0    0 -0.24871351492E+02  0.54128336521E+01  0.10353259790E+03  0.10661557917E+03  0.00000000000E+00 0.  1.
         11    1    1    2    0    0  0.53877228456E+02 -0.96619793742E+01  0.49281432852E+02  0.73653032629E+02  0.00000000000E+00 0. -1.
</event>
<event>
 7    1  0.2943257E-009  0.1002046E+03  0.7561462E-02  0.1279866E+00
          1   -1    0    0  501    0  0.00000000000E+00  0.00000000000E+00  0.63571168670E+03  0.63571168670E+03  0.00000000000E+00 0. -1.
         -1   -1    0    0    0  501 -0.00000000000E+00 -0.00000000000E+00 -0.31492874367E+02  0.31492874367E+02  0.00000000000E+00 0.  1.
         25    2    1    2    0    0 -0.58762786255E+01  0.90789955949E+02  0.32456000599E+03  0.35953356848E+03  0.12509133712E+03 0.  0.
          5    1    3    3  502    0 -0.12498202178E+02  0.59555449745E+01  0.23673303693E+03  0.23717435938E+03  0.41800000000E+01 0. -1.
         -5    1    3    3    0  502  0.66219235524E+01  0.84834410974E+02  0.87826969068E+02  0.12235920910E+03  0.41800000000E+01 0. -1.
        -11    1    1    2    0    0 -0.13691289788E+02 -0.83826223366E+01  0.62526824129E+00  0.16065825023E+02  0.00000000000E+00 0.  1.
         11    1    1    2    0    0  0.19567568413E+02 -0.82407333612E+02  0.27903353810E+03  0.29160516757E+03  0.00000000000E+00 0. -1.
</event>
<event>
 7    1  0.2943257E-009  0.1382610E+03  0.7561462E-02  0.1215688E+00
         -1   -1    0    0    0  501 -0.00000000000E+00  0.00000000000E+00  0.17768735817E+03  0.17768735817E+03  0.00000000000E+00 0.  1.
          1   -1    0    0  501    0  0.00000000000E+00 -0.00000000000E+00 -0.11932941581E+03  0.11932941581E+03  0.00000000000E+00 0. -1.
         25    2    1    2    0    0 -0.91628917868E+02 -0.23406006465E+02  0.79854087513E+01  0.15701909299E+03  0.12509008386E+03 0.  0.
          5    1    3    3  502    0 -0.12084153602E+03 -0.20054103217E+02 -0.88407728688E+01  0.12288399224E+03  0.41800000000E+01 0.  1.
         -5    1    3    3    0  502  0.29212618156E+02 -0.33519032479E+01  0.16826181620E+02  0.34135100744E+02  0.41800000000E+01 0.  1.
        -11    1    1    2    0    0  0.33599346794E+02  0.50146608317E+02  0.46114702813E+02  0.75961597180E+02  0.00000000000E+00 0.  1.
         11    1    1    2    0    0  0.58029571075E+02 -0.26740601853E+02  0.42578307999E+01  0.64036083810E+02  0.00000000000E+00 0. -1.
</event>
<event>
 7    1  0.2943257E-009  0.5893789E+02  0.7561462E-02  0.1402344E+00
         -1   -1    0    0    0  501 -0.00000000000E+00  0.00000000000E+00  0.21621047253E+03  0.21621047253E+03  0.00000000000E+00 0.  1.
          1   -1    0    0  501    0  0.00000000000E+00 -0.00000000000E+00 -0.58750416726E+02  0.58750416726E+02  0.00000000000E+00 0. -1.
         25    2    1    2    0    0 -0.15858826985E+02  0.24578732237E+02  0.86528817642E+02  0.15488829165E+03  0.12509008808E+03 0.  0.
          5    1    3    3  502    0 -0.21497430734E+02  0.41033336426E+02 -0.17228523170E+02  0.49600087067E+02  0.41800000000E+01 0. -1.
         -5    1    3    3    0  502  0.56386037494E+01 -0.16454604189E+02  0.10375734081E+03  0.10528820458E+03  0.41800000000E+01 0. -1.
        -11    1    1    2    0    0  0.21367340817E+02  0.61670719299E+01 -0.16198375522E+02  0.27513331302E+02  0.00000000000E+00 0. -1.
         11    1    1    2    0    0 -0.55085138315E+01 -0.30745804167E+02  0.87129613686E+02  0.92559266309E+02  0.00000000000E+00 0.  1.
</event>
<event>
 7    1  0.2943257E-009  0.1025710E+03  0.7561462E-02  0.1274981E+00
         -1   -1    0    0    0  501 -0.00000000000E+00  0.00000000000E+00  0.65704790532E+02  0.65704790532E+02  0.00000000000E+00 0.  1.
          1   -1    0    0  501    0  0.00000000000E+00 -0.00000000000E+00 -0.17987084236E+03  0.17987084236E+03  0.00000000000E+00 0. -1.
         25    2    1    2    0    0 -0.57076485393E+01 -0.50346203328E+01 -0.73113300071E+02  0.14508825640E+03  0.12508846007E+03 0.  0.
          5    1    3    3  502    0  0.14244523157E+02 -0.58666141581E+02 -0.12819483109E+02  0.61858177755E+02  0.41800000000E+01 0. -1.
         -5    1    3    3    0  502 -0.19952171697E+02  0.53631521248E+02 -0.60293816962E+02  0.83230078642E+02  0.41800000000E+01 0. -1.
        -11    1    1    2    0    0 -0.11317133294E+02  0.43626986379E+02 -0.56598448628E+01  0.45424941281E+02  0.00000000000E+00 0.  1.
         11    1    1    2    0    0  0.17024781833E+02 -0.38592366046E+02 -0.35392906896E+02  0.55062435217E+02  0.00000000000E+00 0. -1.
</event>
<event>
 7    1  0.2943257E-009  0.1093197E+03  0.7561462E-02  0.1261835E+00
         -1   -1    0    0    0  501 -0.00000000000E+00  0.00000000000E+00  0.21300540755E+03  0.21300540755E+03  0.00000000000E+00 0.  1.
          1   -1    0    0  501    0  0.00000000000E+00 -0.00000000000E+00 -0.58509296818E+02  0.58509296818E+02  0.00000000000E+00 0. -1.
         25    2    1    2    0    0 -0.26472496963E+02  0.10525855428E+02  0.10239267261E+03  0.16414812224E+03  0.12509500351E+03 0.  0.
          5    1    3    3  502    0  0.48975749673E+02  0.66184114595E+01  0.23662611681E+02  0.54952879977E+02  0.41800000000E+01 0. -1.
         -5    1    3    3    0  502 -0.75448246636E+02  0.39074439689E+01  0.78730060927E+02  0.10919524226E+03  0.41800000000E+01 0. -1.
        -11    1    1    2    0    0 -0.24977494950E+02 -0.29397111771E+02  0.27019689224E+02  0.47097017318E+02  0.00000000000E+00 0. -1.
         11    1    1    2    0    0  0.51449991913E+02  0.18871256343E+02  0.25083748900E+02  0.60269564812E+02  0.00000000000E+00 0.  1.
</event>
<event>
 7    1  0.2943257E-009  0.1072752E+03  0.7561462E-02  0.1265701E+00
         -4   -1    0    0    0  501 -0.00000000000E+00  0.00000000000E+00  0.81646080216E+02  0.81646080216E+02  0.00000000000E+00 0.  1.
          4   -1    0    0  501    0  0.00000000000E+00 -0.00000000000E+00 -0.19358964690E+03  0.19358964690E+03  0.00000000000E+00 0. -1.
         25    2    1    2    0    0 -0.82559100356E+01 -0.61516998635E+02 -0.58193955288E+02  0.15128220458E+03  0.12508903957E+03 0.  0.
          5    1    3    3  502    0 -0.35142372649E+02  0.23961737851E+02 -0.42389972252E+02  0.60195792077E+02  0.41800000000E+01 0. -1.
         -5    1    3    3    0  502  0.26886462613E+02 -0.85478736486E+02 -0.15803983036E+02  0.91086412505E+02  0.41800000000E+01 0. -1.
        -11    1    1    2    0    0  0.32174218308E+01 -0.99524420089E+01  0.19099461559E+02  0.21775957775E+02  0.00000000000E+00 0.  1.
         11    1    1    2    0    0  0.50384882048E+01  0.71469440644E+02 -0.72849072951E+02  0.10217756475E+03  0.00000000000E+00 0. -1.
</event>
<event>
 7    1  0.2943257E-009  0.2254640E+03  0.7561462E-02  0.1129874E+00
          2   -1    0    0  501    0  0.00000000000E+00  0.00000000000E+00  0.12941082692E+04  0.12941082692E+04  0.00000000000E+00 0. -1.
         -2   -1    0    0    0  501 -0.00000000000E+00 -0.00000000000E+00 -0.49044731899E+02  0.49044731899E+02  0.00000000000E+00 0.  1.
         25    2    1    2    0    0 -0.17747413938E+03 -0.79868407326E+02  0.90718374856E+03  0.93621919202E+03  0.12509192307E+03 0.  0.
          5    1    3    3  502    0 -0.13490739897E+03 -0.11389868906E+03  0.70350215761E+03  0.72533142482E+03  0.41800000000E+01 0. -1.
         -5    1    3    3    0  502 -0.42566740404E+02  0.34030281731E+02  0.20368159095E+03  0.21088776720E+03  0.41800000000E+01 0. -1.
        -11    1    1    2    0    0  0.15844438847E+03  0.23511444280E+02  0.28693266677E+03  0.32861492283E+03  0.00000000000E+00 0.  1.
         11    1    1    2    0    0  0.19029750907E+02  0.56356963046E+02  0.50947121931E+02  0.78318886205E+02  0.00000000000E+00 0. -1.
</event>
<event>
 7    1  0.2943257E-009  0.1202218E+03  0.7561462E-02  0.1242732E+00
         -2   -1    0    0    0  501 -0.00000000000E+00  0.00000000000E+00  0.10169819093E+03  0.10169819093E+03  0.00000000000E+00 0.  1.
          2   -1    0    0  501    0  0.00000000000E+00 -0.00000000000E+00 -0.16813646938E+03  0.16813646938E+03  0.00000000000E+00 0. -1.
         25    2    1    2    0    0  0.13178760659E+02  0.57779100505E+02 -0.88756468423E+02  0.16443102414E+03  0.12509095421E+03 0.  0.
          5    1    3    3  502    0  0.29017770450E+02  0.94100010821E+02 -0.62152098233E+02  0.11652123735E+03  0.41800000000E+01 0. -1.
         -5    1    3    3    0  502 -0.15839009790E+02 -0.36320910315E+02 -0.26604370191E+02  0.47909786793E+02  0.41800000000E+01 0. -1.
        -11    1    1    2    0    0 -0.44982053543E+02 -0.53580654186E+02  0.21952035302E+02  0.73322326053E+02  0.00000000000E+00 0.  1.
         11    1    1    2    0    0  0.31803292884E+02 -0.41984463195E+01  0.36615467634E+00  0.32081310119E+02  0.00000000000E+00 0. -1.
</event>
<event>
 7    1  0.2943257E-009  0.1219262E+03  0.7561462E-02  0.1239953E+00
          2   -1    0    0  501    0  0.00000000000E+00  0.00000000000E+00  0.23289619917E+03  0.23289619917E+03  0.00000000000E+00 0. -1.
         -2   -1    0    0    0  501 -0.00000000000E+00 -0.00000000000E+00 -0.10590447991E+03  0.10590447991E+03  0.00000000000E+00 0.  1.
         25    2    1    2    0    0  0.29453283352E+02 -0.11449068460E+03  0.83621699526E+02  0.19135859138E+03  0.12509959674E+03 0.  0.
          5    1    3    3  502    0 -0.33733387726E-01 -0.50670729751E+02 -0.28998066117E+02  0.58531053553E+02  0.41800000000E+01 0. -1.
         -5    1    3    3    0  502  0.29487016739E+02 -0.63819954845E+02  0.11261976564E+03  0.13282753783E+03  0.41800000000E+01 0. -1.
        -11    1    1    2    0    0  0.58627814575E+01  0.36510261082E+02 -0.18954504635E+02  0.41552913456E+02  0.00000000000E+00 0.  1.
         11    1    1    2    0    0 -0.35316064809E+02  0.77980423514E+02  0.62324524368E+02  0.10588917425E+03  0.00000000000E+00 0. -1.
</event>
<event>
 7    1  0.2943257E-009  0.1014670E+03  0.7561462E-02  0.1277241E+00
          2   -1    0    0  501    0  0.00000000000E+00  0.00000000000E+00  0.15720161722E+03  0.15720161722E+03  0.00000000000E+00 0. -1.
         -2   -1    0    0    0  501 -0.00000000000E+00 -0.00000000000E+00 -0.10489017169E+03  0.10489017169E+03  0.00000000000E+00 0.  1.
         25    2    1    2    0    0  0.12279287753E+02 -0.67190003699E+02  0.35549634571E+02  0.14688779848E+03  0.12508785440E+03 0.  0.
          5    1    3    3  502    0  0.34767774880E+02 -0.92644071831E+02  0.48523784377E+02  0.11028940233E+03  0.41800000000E+01 0. -1.
         -5    1    3    3    0  502 -0.22488487127E+02  0.25454068132E+02 -0.12974149806E+02  0.36598396152E+02  0.41800000000E+01 0. -1.
        -11    1    1    2    0    0  0.28218682298E+01  0.17855288675E+02 -0.36697531701E+02  0.40908227863E+02  0.00000000000E+00 0.  1.
         11    1    1    2    0    0 -0.15101155983E+02  0.49334715025E+02  0.53459342652E+02  0.74295762567E+02  0.00000000000E+00 0. -1.
</event>
<event>
 7    1  0.2943257E-009  0.9845301E+02  0.7561462E-02  0.1283583E+00
         -1   -1    0    0    0  501 -0.00000000000E+00  0.00000000000E+00  0.26950891671E+03  0.26950891671E+03  0.00000000000E+00 0.  1.
          1   -1    0    0  501    0  0.00000000000E+00 -0.00000000000E+00 -0.69307459070E+02  0.69307459070E+02  0.00000000000E+00 0. -1.
         25    2    1    2    0    0 -0.57319611945E+02  0.51230233254E+01  0.41798210489E+02  0.14390369826E+03  0.12509756468E+03 0.  0.
          5    1    3    3  502    0 -0.27168240903E+02 -0.40795952398E+02 -0.26722511034E+02  0.55982033205E+02  0.41800000000E+01 0. -1.
         -5    1    3    3    0  502 -0.30151371042E+02  0.45918975723E+02  0.68520721523E+02  0.87921665050E+02  0.41800000000E+01 0. -1.
        -11    1    1    2    0    0  0.55392256215E+02  0.26174298334E+02  0.15062204092E+03  0.16260502807E+03  0.00000000000E+00 0.  1.
         11    1    1    2    0    0  0.19273557299E+01 -0.31297321660E+02  0.77812062327E+01  0.32307649460E+02  0.00000000000E+00 0. -1.
</event>
<event>
 7    1  0.2943257E-009  0.1014983E+03  0.7561462E-02  0.1277176E+00
         -1   -1    0    0    0  501 -0.00000000000E+00  0.00000000000E+00  0.64555053514E+02  0.64555053514E+02  0.00000000000E+00 0.  1.
          1   -1    0    0  501    0  0.00000000000E+00 -0.00000000000E+00 -0.30834290761E+03  0.30834290761E+03  0.00000000000E+00 0. -1.
         25    2    1    2    0    0  0.64396794977E+02  0.40753186748E+02 -0.18694794211E+03  0.23749795903E+03  0.12509187843E+03 0.  0.
          5    1    3    3  502    0  0.78585822299E+02  0.62298551758E+02 -0.82784588646E+02  0.13010611644E+03  0.41800000000E+01 0. -1.
         -5    1    3    3    0  502 -0.14189027322E+02 -0.21545365009E+02 -0.10416335347E+03  0.10739184259E+03  0.41800000000E+01 0. -1.
        -11    1    1    2    0    0 -0.36581327090E+02 -0.26968274598E+02  0.22128679150E+02  0.50548588184E+02  0.00000000000E+00 0.  1.
         11    1    1    2    0    0 -0.27815467887E+02 -0.13784912150E+02 -0.78968591137E+02  0.84851413912E+02  0.00000000000E+00 0. -1.
</event>
<event>
 7    1  0.2943257E-009  0.9479622E+02  0.7561462E-02  0.1291636E+00
         -1   -1    0    0    0  501 -0.00000000000E+00  0.00000000000E+00  0.42628015423E+02  0.42628015423E+02  0.00000000000E+00 0.  1.
          1   -1    0    0  501    0  0.00000000000E+00 -0.00000000000E+00 -0.36128052582E+03  0.36128052582E+03  0.00000000000E+00 0. -1.
         25    2    1    2    0    0 -0.11042921951E+02 -0.48211699728E+01 -0.27118569065E+03  0.29888825365E+03  0.12508924634E+03 0.  0.
          5    1    3    3  502    0 -0.67995657169E+02 -0.11158673326E+01 -0.15776795607E+03  0.17185125812E+03  0.41800000000E+01 0. -1.
         -5    1    3    3    0  502  0.56952735217E+02 -0.37053026402E+01 -0.11341773458E+03  0.12703699553E+03  0.41800000000E+01 0. -1.
        -11    1    1    2    0    0 -0.25266292649E+02  0.10722969546E+02 -0.60144302480E+02  0.66111305697E+02  0.00000000000E+00 0. -1.
         11    1    1    2    0    0  0.36309214601E+02 -0.59017995729E+01  0.12677482741E+02  0.38908981891E+02  0.00000000000E+00 0.  1.
</event>
<event>
 7    1  0.2943257E-009  0.2957692E+03  0.7561462E-02  0.1087375E+00
         -2   -1    0    0    0  501 -0.00000000000E+00  0.00000000000E+00  0.25384843667E+03  0.25384843667E+03  0.00000000000E+00 0.  1.
          2   -1    0    0  501    0  0.00000000000E+00 -0.00000000000E+00 -0.44635197467E+03  0.44635197467E+03  0.00000000000E+00 0. -1.
         25    2    1    2    0    0 -0.27389460504E+03 -0.54288014998E+02 -0.25688343222E+03  0.39950248050E+03  0.12509073079E+03 0.  0.
          5    1    3    3  502    0 -0.86725037080E+02 -0.78279904107E+02 -0.10707619619E+03  0.15852999600E+03  0.41800000000E+01 0. -1.
         -5    1    3    3    0  502 -0.18716956796E+03  0.23991889108E+02 -0.14980723604E+03  0.24097248449E+03  0.41800000000E+01 0. -1.
        -11    1    1    2    0    0  0.76986665773E+02 -0.12429904899E+02 -0.12610102439E+02  0.78996607055E+02  0.00000000000E+00 0. -1.
         11    1    1    2    0    0  0.19690793927E+03  0.66717919897E+02  0.76989996659E+02  0.22170132378E+03  0.00000000000E+00 0.  1.
</event>
<event>
 7    1  0.2943257E-009  0.1267561E+03  0.7561462E-02  0.1232350E+00
         -1   -1    0    0    0  501 -0.00000000000E+00  0.00000000000E+00  0.88371945374E+02  0.88371945374E+02  0.00000000000E+00 0.  1.
          1   -1    0    0  501    0  0.00000000000E+00 -0.00000000000E+00 -0.19066037462E+03  0.19066037462E+03  0.00000000000E+00 0. -1.
         25    2    1    2    0    0  0.56310498480E+02  0.39696722379E+02 -0.37806046223E+02  0.14772697410E+03  0.12508900727E+03 0.  0.
          5    1    3    3  502    0  0.42117795932E+02  0.83686085671E+02 -0.38335341149E+02  0.10131308134E+03  0.41800000000E+01 0.  1.
         -5    1    3    3    0  502  0.14192702549E+02 -0.43989363292E+02  0.52929492599E+00  0.46413892765E+02  0.41800000000E+01 0.  1.
        -11    1    1    2    0    0 -0.72800455722E+02 -0.54673941226E+02 -0.44318683823E+02  0.10125854008E+03  0.00000000000E+00 0. -1.
         11    1    1    2    0    0  0.16489957242E+02  0.14977218847E+02 -0.20163699199E+02  0.30046805814E+02  0.00000000000E+00 0.  1.
</event>
<event>
 7    1  0.2943257E-009  0.1411877E+03  0.7561462E-02  0.1211740E+00
         -1   -1    0    0    0  501 -0.00000000000E+00  0.00000000000E+00  0.13068931525E+03  0.13068931525E+03  0.00000000000E+00 0.  1.
          1   -1    0    0  501    0  0.00000000000E+00 -0.00000000000E+00 -0.33513348866E+03  0.33513348866E+03  0.00000000000E+00 0. -1.
         25    2    1    2    0    0 -0.10324470437E+03  0.82218091706E+02 -0.24069244923E+03  0.30165238475E+03  0.12506807157E+03 0.  0.
          5    1    3    3  502    0 -0.15978837156E+01  0.20323782180E+01 -0.13329671136E+03  0.13338729120E+03  0.41800000000E+01 0.  1.
         -5    1    3    3    0  502 -0.10164682065E+03  0.80185713488E+02 -0.10739573787E+03  0.16826509355E+03  0.41800000000E+01 0.  1.
        -11    1    1    2    0    0  0.39428418155E+02 -0.73645564897E+02  0.51319537836E+02  0.98040626023E+02  0.00000000000E+00 0.  1.
         11    1    1    2    0    0  0.63816286214E+02 -0.85725268085E+01 -0.15071262020E+02  0.66129793141E+02  0.00000000000E+00 0. -1.
</event>
<event>
 7    1  0.2943257E-009  0.1094630E+03  0.7561462E-02  0.1261568E+00
          1   -1    0    0  501    0  0.00000000000E+00  0.00000000000E+00  0.51183403116E+02  0.51183403116E+02  0.00000000000E+00 0. -1.
         -1   -1    0    0    0  501 -0.00000000000E+00 -0.00000000000E+00 -0.25365546011E+03  0.25365546011E+03  0.00000000000E+00 0.  1.
         25    2    1    2    0    0 -0.67663190574E+01 -0.30957977258E+02 -0.13151153062E+03  0.18424750997E+03  0.12509069836E+03 0.  0.
          5    1    3    3  502    0 -0.54545076154E+01 -0.79642127954E+02 -0.86810580243E+02  0.11800919219E+03  0.41800000000E+01 0.  1.
         -5    1    3    3    0  502 -0.13118114420E+01  0.48684150696E+02 -0.44700950377E+02  0.66238317784E+02  0.41800000000E+01 0.  1.
        -11    1    1    2    0    0  0.45312157107E+02  0.10684099981E+02 -0.59514444414E+02  0.75559980598E+02  0.00000000000E+00 0.  1.
         11    1    1    2    0    0 -0.38545838050E+02  0.20273877277E+02 -0.11446081957E+02  0.45031372653E+02  0.00000000000E+00 0. -1.
</event>
<event>
 7    1  0.2943257E-009  0.1058878E+03  0.7561462E-02  0.1268380E+00
          2   -1    0    0  501    0  0.00000000000E+00  0.00000000000E+00  0.57135859004E+03  0.57135859004E+03  0.00000000000E+00 0.  1.
         -2   -1    0    0    0  501 -0.00000000000E+00 -0.00000000000E+00 -0.26711493574E+02  0.26711493574E+02  0.00000000000E+00 0. -1.
         25    2    1    2    0    0  0.27072667624E+02  0.24345892213E+02  0.42342342384E+03  0.44301296561E+03  0.12508972796E+03 0.  0.
          5    1    3    3  502    0  0.14216776802E+02 -0.50620118238E+02  0.20544905653E+03  0.21211152807E+03  0.41800000000E+01 0.  1.
         -5    1    3    3    0  502  0.12855890822E+02  0.74966010451E+02  0.21797436732E+03  0.23090143754E+03  0.41800000000E+01 0.  1.
        -11    1    1    2    0    0  0.25117048847E+02 -0.16569430174E+02  0.95903098217E+01  0.31581421778E+02  0.00000000000E+00 0.  1.
         11    1    1    2    0    0 -0.52189716471E+02 -0.77764620389E+01  0.11163336280E+03  0.12347569622E+03  0.00000000000E+00 0. -1.
</event>
<event>
 7    1  0.2943257E-009  0.1049111E+03  0.7561462E-02  0.1270295E+00
          2   -1    0    0  501    0  0.00000000000E+00  0.00000000000E+00  0.76653115682E+03  0.76653115682E+03  0.00000000000E+00 0. -1.
         -2   -1    0    0    0  501 -0.00000000000E+00 -0.00000000000E+00 -0.16971262268E+02  0.16971262268E+02  0.00000000000E+00 0.  1.
         25    2    1    2    0    0 -0.15015264447E+02 -0.26983789945E+02  0.37655275438E+03  0.39798600200E+03  0.12508915969E+03 0.  0.
          5    1    3    3  502    0 -0.69504256022E+02 -0.21265434804E+02  0.23975522833E+03  0.25056556474E+03  0.41800000000E+01 0.  1.
         -5    1    3    3    0  502  0.54488991575E+02 -0.57183551416E+01  0.13679752605E+03  0.14742043726E+03  0.41800000000E+01 0.  1.
        -11    1    1    2    0    0  0.33026425444E+02  0.45510541678E+02  0.33417739245E+03  0.33887532192E+03  0.00000000000E+00 0. -1.
         11    1    1    2    0    0 -0.18011160998E+02 -0.18526751732E+02  0.38829747715E+02  0.46641095161E+02  0.00000000000E+00 0.  1.
</event>
<event>
 7    1  0.2943257E-009  0.9533127E+02  0.7561462E-02  0.1290432E+00
         -1   -1    0    0    0  501 -0.00000000000E+00  0.00000000000E+00  0.20287417053E+02  0.20287417053E+02  0.00000000000E+00 0.  1.
          1   -1    0    0  501    0  0.00000000000E+00 -0.00000000000E+00 -0.90225467922E+03  0.90225467922E+03  0.00000000000E+00 0. -1.
         25    2    1    2    0    0 -0.75665434378E+02  0.22904731505E+01 -0.57275330198E+03  0.59112147779E+03  0.12509097627E+03 0.  0.
          5    1    3    3  502    0 -0.40211085322E+02 -0.24117318882E+01 -0.54272926594E+03  0.54423825329E+03  0.41800000000E+01 0.  1.
         -5    1    3    3    0  502 -0.35454349056E+02  0.47022050387E+01 -0.30024036039E+02  0.46883224498E+02  0.41800000000E+01 0.  1.
        -11    1    1    2    0    0 -0.16832550541E+02 -0.12681302313E+02 -0.26989059236E+02  0.34242656213E+02  0.00000000000E+00 0.  1.
         11    1    1    2    0    0  0.92497984919E+02  0.10390829162E+02 -0.28222490095E+03  0.29717796228E+03  0.00000000000E+00 0. -1.
</event>
<event>
 7    1  0.2943257E-009  0.1018775E+03  0.7561462E-02  0.1276397E+00
          1   -1    0    0  501    0  0.00000000000E+00  0.00000000000E+00  0.58598277117E+03  0.58598277117E+03  0.00000000000E+00 0. -1.
         -1   -1    0    0    0  501 -0.00000000000E+00 -0.00000000000E+00 -0.25455156851E+02  0.25455156851E+02  0.00000000000E+00 0.  1.
         25    2    1    2    0    0 -0.23138810679E+02  0.20620928401E+02  0.43437769337E+03  0.45309167777E+03  0.12508981063E+03 0.  0.
          5    1    3    3  502    0 -0.23404152238E+01 -0.48009181492E+02  0.26099778107E+03  0.26541980554E+03  0.41800000000E+01 0.  1.
         -5    1    3    3    0  502 -0.20798395455E+02  0.68630109893E+02  0.17337991230E+03  0.18767187223E+03  0.41800000000E+01 0.  1.
        -11    1    1    2    0    0 -0.26109510493E+02 -0.22387461748E+02  0.16531607201E+02  0.38160175817E+02  0.00000000000E+00 0.  1.
         11    1    1    2    0    0  0.49248321172E+02  0.17665333473E+01  0.10961831375E+03  0.12018607444E+03  0.00000000000E+00 0. -1.
</event>
<event>
 7    1  0.2943257E-009  0.1005812E+03  0.7561462E-02  0.1279079E+00
         -1   -1    0    0    0  501 -0.00000000000E+00  0.00000000000E+00  0.13831667317E+03  0.13831667317E+03  0.00000000000E+00 0.  1.
          1   -1    0    0  501    0  0.00000000000E+00 -0.00000000000E+00 -0.89699343089E+02  0.89699343089E+02  0.00000000000E+00 0. -1.
         25    2    1    2    0    0 -0.36576661197E+01 -0.32498686690E+02  0.17606177288E+02  0.13048633500E+03  0.12508862052E+03 0.  0.
          5    1    3    3  502    0  0.54475447262E+02  0.10072768731E+02 -0.23403036978E+01  0.55605615236E+02  0.41800000000E+01 0. -1.
         -5    1    3    3    0  502 -0.58133113382E+02 -0.42571455422E+02  0.19946480986E+02  0.74880719761E+02  0.41800000000E+01 0. -1.
        -11    1    1    2    0    0 -0.37520492742E+01  0.52224560623E+02  0.47561130293E+02  0.70735731570E+02  0.00000000000E+00 0.  1.
         11    1    1    2    0    0  0.74097153939E+01 -0.19725873932E+02 -0.16549977502E+02  0.26793949689E+02  0.00000000000E+00 0. -1.
</event>
<event>
 7    1  0.2943257E-009  0.7098336E+02  0.7561462E-02  0.1356781E+00
          3   -1    0    0  501    0  0.00000000000E+00  0.00000000000E+00  0.11032357040E+03  0.11032357040E+03  0.00000000000E+00 0. -1.
         -3   -1    0    0    0  501 -0.00000000000E+00 -0.00000000000E+00 -0.14015378609E+03  0.14015378609E+03  0.00000000000E+00 0.  1.
         25    2    1    2    0    0 -0.42284964615E+02  0.31719186404E+02  0.15583822133E+02  0.13669464189E+03  0.12509374321E+03 0.  0.
          5    1    3    3  502    0 -0.51725566489E+02  0.36122497886E+02  0.62230992837E+02  0.88716052390E+02  0.41800000000E+01 0.  1.
         -5    1    3    3    0  502  0.94406018735E+01 -0.44033114822E+01 -0.46647170704E+02  0.47978589500E+02  0.41800000000E+01 0.  1.
        -11    1    1    2    0    0  0.10102560654E+02  0.10405237041E+02 -0.57592717471E+02  0.59390670946E+02  0.00000000000E+00 0. -1.
         11    1    1    2    0    0  0.32182403961E+02 -0.42124423445E+02  0.12178679652E+02  0.54392043659E+02  0.00000000000E+00 0.  1.
</event>
<event>
 7    1  0.3746276E-009  0.1176807E+03  0.7561462E-02  0.1246973E+00
          2   -1    0    0  501    0  0.00000000000E+00  0.00000000000E+00  0.11132201735E+04  0.11132201735E+04  0.00000000000E+00 0. -1.
         -2   -1    0    0    0  501 -0.00000000000E+00 -0.00000000000E+00 -0.13372570499E+02  0.13372570499E+02  0.00000000000E+00 0.  1.
         25    2    1    2    0    0 -0.13611350114E+02  0.46814407424E+02  0.74320097364E+03  0.75522962219E+03  0.12508891807E+03 0.  0.
          5    1    3    3  502    0  0.55139698820E+02  0.28796634459E+02  0.38597929075E+03  0.39098224746E+03  0.41800000000E+01 0. -1.
         -5    1    3    3    0  502 -0.68751048934E+02  0.18017772964E+02  0.35722168289E+03  0.36424737473E+03  0.41800000000E+01 0. -1.
        -11    1    1    2    0    0 -0.33621307114E+02 -0.42785395296E+02  0.22352619895E+03  0.23005421961E+03  0.00000000000E+00 0.  1.
         11    1    1    2    0    0  0.47232657228E+02 -0.40290121282E+01  0.13312043043E+03  0.14130890222E+03  0.00000000000E+00 0. -1.
</event>
<event>
 7    1  0.2943257E-009  0.9761165E+02  0.7561462E-02  0.1285400E+00
         -4   -1    0    0    0  501 -0.00000000000E+00  0.00000000000E+00  0.87150687575E+02  0.87150687575E+02  0.00000000000E+00 0. -1.
          4   -1    0    0  501    0  0.00000000000E+00 -0.00000000000E+00 -0.14660950740E+03  0.14660950740E+03  0.00000000000E+00 0.  1.
         25    2    1    2    0    0  0.26461381831E+02  0.15049449757E+02 -0.53122505216E+02  0.13926794646E+03  0.12508744814E+03 0.  0.
          5    1    3    3  502    0  0.36310543815E+02  0.66661038189E+02 -0.30735154298E+02  0.82001656778E+02  0.41800000000E+01 0. -1.
         -5    1    3    3    0  502 -0.98491619845E+01 -0.51611588432E+02 -0.22387350917E+02  0.57266289677E+02  0.41800000000E+01 0. -1.
        -11    1    1    2    0    0 -0.51478595161E+00 -0.34223898835E+02 -0.36703069555E+02  0.50186208970E+02  0.00000000000E+00 0.  1.
         11    1    1    2    0    0 -0.25946595879E+02  0.19174449078E+02  0.30366754942E+02  0.44306039553E+02  0.00000000000E+00 0. -1.
</event>
<event>
 7    1  0.2943257E-009  0.1130326E+03  0.7561462E-02  0.1255055E+00
         -2   -1    0    0    0  501 -0.00000000000E+00  0.00000000000E+00  0.44020220605E+02  0.44020220605E+02  0.00000000000E+00 0.  1.
          2   -1    0    0  501    0  0.00000000000E+00 -0.00000000000E+00 -0.35197449597E+03  0.35197449597E+03  0.00000000000E+00 0. -1.
         25    2    1    2    0    0  0.42714650702E+02 -0.15247459065E+02 -0.24521937602E+03  0.27899182316E+03  0.12508744390E+03 0.  0.
          5    1    3    3  502    0  0.81088787653E+02 -0.33708194783E+02 -0.13889226435E+03  0.16437812316E+03  0.41800000000E+01 0. -1.
         -5    1    3    3    0  502 -0.38374136951E+02  0.18460735718E+02 -0.10632711167E+03  0.11461370000E+03  0.41800000000E+01 0. -1.
        -11    1    1    2    0    0 -0.40714611658E+02  0.47776154829E+02 -0.26131214683E+02  0.67993241969E+02  0.00000000000E+00 0.  1.
         11    1    1    2    0    0 -0.20000390437E+01 -0.32528695764E+02 -0.36603684664E+02  0.49009651450E+02  0.00000000000E+00 0. -1.
</event>
<event>
 7    1  0.2943257E-009  0.4956393E+02  0.7561462E-02  0.1447708E+00
         -2   -1    0    0    0  501 -0.00000000000E+00  0.00000000000E+00  0.44203762056E+02  0.44203762056E+02  0.00000000000E+00 0. -1.
          2   -1    0    0  501    0  0.00000000000E+00 -0.00000000000E+00 -0.27549231407E+03  0.27549231407E+03  0.00000000000E+00 0.  1.
         25    2    1    2    0    0  0.51517644832E+01 -0.67897322119E+01 -0.15924041567E+03  0.20267519226E+03  0.12508829856E+03 0.  0.
          5    1    3    3  502    0  0.14062408978E+01 -0.26939959948E+02  0.12244779769E+02  0.29918990409E+02  0.41800000000E+01 0.  1.
         -5    1    3    3    0  502  0.37455235855E+01  0.20150227736E+02 -0.17148519544E+03  0.17275620185E+03  0.41800000000E+01 0.  1.
        -11    1    1    2    0    0 -0.17638143199E+01  0.28693556325E+02 -0.86103448945E+02  0.90775740899E+02  0.00000000000E+00 0.  1.
         11    1    1    2    0    0 -0.33879501633E+01 -0.21903824113E+02  0.14055312598E+02  0.26245142966E+02  0.00000000000E+00 0. -1.
</event>
<event>
 7    1  0.2943257E-009  0.1069938E+03  0.7561462E-02  0.1266240E+00
         -2   -1    0    0    0  501 -0.00000000000E+00  0.00000000000E+00  0.32665563992E+03  0.32665563992E+03  0.00000000000E+00 0.  1.
          2   -1    0    0  501    0  0.00000000000E+00 -0.00000000000E+00 -0.44261606542E+02  0.44261606542E+02  0.00000000000E+00 0. -1.
         25    2    1    2    0    0  0.25982130593E+02 -0.38814959587E+02  0.19007990216E+03  0.23229204767E+03  0.12509018350E+03 0.  0.
          5    1    3    3  502    0 -0.57693402695E+01 -0.67517263461E+02  0.46194838248E+02  0.82117608545E+02  0.41800000000E+01 0.  1.
         -5    1    3    3    0  502  0.31751470863E+02  0.28702303875E+02  0.14388506391E+03  0.15017443912E+03  0.41800000000E+01 0.  1.
        -11    1    1    2    0    0  0.22116888449E+02 -0.18095523278E+02  0.20786939428E+02  0.35336971689E+02  0.00000000000E+00 0.  1.
         11    1    1    2    0    0 -0.48099019042E+02  0.56910482865E+02  0.71527191793E+02  0.10328822710E+03  0.00000000000E+00 0. -1.
</event>
<event>
 7    1  0.2943257E-009  0.8570242E+02  0.7561462E-02  0.1313606E+00
          1   -1    0    0  501    0  0.00000000000E+00  0.00000000000E+00  0.11568725033E+04  0.11568725033E+04  0.00000000000E+00 0. -1.
         -1   -1    0    0    0  501 -0.00000000000E+00 -0.00000000000E+00 -0.14149910621E+02  0.14149910621E+02  0.00000000000E+00 0.  1.
         25    2    1    2    0    0 -0.34845303419E+02 -0.35306070776E+02  0.85754547113E+03  0.86803966174E+03  0.12509158844E+03 0.  0.
          5    1    3    3  502    0 -0.53348463459E+02 -0.19549828090E+02  0.82617612887E+03  0.82813810602E+03  0.41800000000E+01 0. -1.
         -5    1    3    3    0  502  0.18503160040E+02 -0.15756242686E+02  0.31369342262E+02  0.39901555722E+02  0.41800000000E+01 0. -1.
        -11    1    1    2    0    0 -0.22584080053E+02  0.20419173348E+02  0.17705146550E+03  0.17965022891E+03  0.00000000000E+00 0. -1.
         11    1    1    2    0    0  0.57429383472E+02  0.14886897428E+02  0.10812565609E+03  0.12333252331E+03  0.00000000000E+00 0.  1.
</event>
<event>
 7    1  0.2943257E-009  0.1156188E+03  0.7561462E-02  0.1250505E+00
          1   -1    0    0  501    0  0.00000000000E+00  0.00000000000E+00  0.86306097196E+02  0.86306097196E+02  0.00000000000E+00 0. -1.
         -1   -1    0    0    0  501 -0.00000000000E+00 -0.00000000000E+00 -0.22211812291E+03  0.22211812291E+03  0.00000000000E+00 0.  1.
         25    2    1    2    0    0  0.38822106400E+02 -0.69466762496E+02 -0.11648123102E+03  0.18853416481E+03  0.12507784409E+03 0.  0.
          5    1    3    3  502    0  0.51694779324E+02 -0.24981754499E+01  0.17816946274E+01  0.51954190646E+02  0.41800000000E+01 0.  1.
         -5    1    3    3    0  502 -0.12872672924E+02 -0.66968587046E+02 -0.11826292565E+03  0.13657997417E+03  0.41800000000E+01 0.  1.
        -11    1    1    2    0    0 -0.44210338878E+01  0.75870719378E+02 -0.32291120690E+02  0.82574984559E+02  0.00000000000E+00 0.  1.
         11    1    1    2    0    0 -0.34401072513E+02 -0.64039568819E+01  0.12960326002E+02  0.37315070734E+02  0.00000000000E+00 0. -1.
</event>
<event>
 7    1  0.2943257E-009  0.1466934E+03  0.7561462E-02  0.1204596E+00
          2   -1    0    0  501    0  0.00000000000E+00  0.00000000000E+00  0.29783047442E+02  0.29783047442E+02  0.00000000000E+00 0. -1.
         -2   -1    0    0    0  501 -0.00000000000E+00 -0.00000000000E+00 -0.78464892414E+03  0.78464892414E+03  0.00000000000E+00 0.  1.
         25    2    1    2    0    0  0.10005710007E+03 -0.31263269799E+02 -0.34703658125E+03  0.38349824226E+03  0.12509075817E+03 0.  0.
          5    1    3    3  502    0  0.16632730014E+02 -0.63152010154E+02 -0.89418422433E+02  0.11080591485E+03  0.41800000000E+01 0. -1.
         -5    1    3    3    0  502  0.83424370059E+02  0.31888740356E+02 -0.25761815882E+03  0.27269232742E+03  0.41800000000E+01 0. -1.
        -11    1    1    2    0    0 -0.53319621311E+02 -0.30235153279E+02 -0.20165287613E+03  0.21076296867E+03  0.00000000000E+00 0. -1.
         11    1    1    2    0    0 -0.46737478763E+02  0.61498423078E+02 -0.20617641932E+03  0.22017076065E+03  0.00000000000E+00 0.  1.
</event>
<event>
 7    1  0.2943257E-009  0.1053315E+03  0.7561462E-02  0.1269468E+00
          1   -1    0    0  501    0  0.00000000000E+00  0.00000000000E+00  0.13658706163E+03  0.13658706163E+03  0.00000000000E+00 0. -1.
         -1   -1    0    0    0  501 -0.00000000000E+00 -0.00000000000E+00 -0.94374731010E+02  0.94374731010E+02  0.00000000000E+00 0.  1.
         25    2    1    2    0    0  0.30219193330E+02 -0.16848499054E+02  0.19174310022E+02  0.13115386332E+03  0.12504643191E+03 0.  0.
          5    1    3    3  502    0  0.37053155626E+02 -0.68204922932E+02  0.12979162125E+02  0.78808495123E+02  0.41800000000E+01 0.  1.
         -5    1    3    3    0  502 -0.68339622963E+01  0.51356423878E+02  0.61951478968E+01  0.52345368197E+02  0.41800000000E+01 0.  1.
        -11    1    1    2    0    0 -0.53912564040E+02  0.18999398526E+02  0.40705358037E+02  0.70174552929E+02  0.00000000000E+00 0. -1.
         11    1    1    2    0    0  0.23693370710E+02 -0.21508994721E+01 -0.17667337439E+02  0.29633376391E+02  0.00000000000E+00 0.  1.
</event>
<event>
 7    1  0.2943257E-009  0.8448714E+02  0.7561462E-02  0.1316779E+00
          2   -1    0    0  501    0  0.00000000000E+00  0.00000000000E+00  0.32126253848E+03  0.32126253848E+03  0.00000000000E+00 0.  1.
         -2   -1    0    0    0  501 -0.00000000000E+00 -0.00000000000E+00 -0.46299280900E+02  0.46299280900E+02  0.00000000000E+00 0. -1.
         25    2    1    2    0    0  0.12865325003E+02 -0.51732313783E+02  0.13579836511E+03  0.19217084360E+03  0.12508672306E+03 0.  0.
          5    1    3    3  502    0  0.26581949898E+02 -0.35095034977E+02 -0.94909981310E+01  0.45230664221E+02  0.41800000000E+01 0.  1.
         -5    1    3    3    0  502 -0.13716624894E+02 -0.16637278806E+02  0.14528936324E+03  0.14694017938E+03  0.41800000000E+01 0.  1.
        -11    1    1    2    0    0 -0.23858781951E+02 -0.19436526224E+02  0.21867884964E+02  0.37752144583E+02  0.00000000000E+00 0. -1.
         11    1    1    2    0    0  0.10993456948E+02  0.71168840007E+02  0.11729700751E+03  0.13763883120E+03  0.00000000000E+00 0.  1.
</event>
<event>
 7    1  0.2943257E-009  0.1036288E+03  0.7561462E-02  0.1272845E+00
         -1   -1    0    0    0  501 -0.00000000000E+00  0.00000000000E+00  0.17036802078E+02  0.17036802078E+02  0.00000000000E+00 0.  1.
          1   -1    0    0  501    0  0.00000000000E+00 -0.00000000000E+00 -0.14669071168E+04  0.14669071168E+04  0.00000000000E+00 0. -1.
         25    2    1    2    0    0 -0.47405765991E+02 -0.31676382209E+02 -0.12446319395E+04  0.12522009137E+04  0.12509102138E+03 0.  0.
          5    1    3    3  502    0 -0.71905172468E+02 -0.14645370599E+02 -0.11607050425E+04  0.11630298830E+04  0.41800000000E+01 0. -1.
         -5    1    3    3    0  502  0.24499406478E+02 -0.17031011610E+02 -0.83926896981E+02  0.89171030672E+02  0.41800000000E+01 0. -1.
        -11    1    1    2    0    0  0.23405882785E+02  0.61233538774E+02 -0.97622898916E+02  0.11759086705E+03  0.00000000000E+00 0.  1.
         11    1    1    2    0    0  0.23999883206E+02 -0.29557156564E+02 -0.10761547633E+03  0.11415213815E+03  0.00000000000E+00 0. -1.
</event>
<event>
 7    1  0.2943257E-009  0.9439742E+02  0.7561462E-02  0.1292539E+00
          1   -1    0    0  501    0  0.00000000000E+00  0.00000000000E+00  0.17667068604E+03  0.17667068604E+03  0.00000000000E+00 0. -1.
         -1   -1    0    0    0  501 -0.00000000000E+00 -0.00000000000E+00 -0.12247049955E+03  0.12247049955E+03  0.00000000000E+00 0.  1.
         25    2    1    2    0    0  0.23865732115E+02  0.16694209947E+02  0.12669139054E+03  0.18040537579E+03  0.12508845415E+03 0.  0.
          5    1    3    3  502    0  0.30582655659E+02  0.57503931003E+02  0.12227429691E+03  0.13860186504E+03  0.41800000000E+01 0.  1.
         -5    1    3    3    0  502 -0.67169235438E+01 -0.40809721056E+02  0.44170936318E+01  0.41803510747E+02  0.41800000000E+01 0.  1.
        -11    1    1    2    0    0  0.15693939812E+02  0.21734788081E+02 -0.54477295698E+02  0.60716361109E+02  0.00000000000E+00 0.  1.
         11    1    1    2    0    0 -0.39559671927E+02 -0.38428998028E+02 -0.18013908359E+02  0.58019448694E+02  0.00000000000E+00 0. -1.
</event>
<event>
 7    1  0.2943257E-009  0.1008200E+03  0.7561462E-02  0.1278581E+00
         -1   -1    0    0    0  501 -0.00000000000E+00  0.00000000000E+00  0.29243238078E+03  0.29243238078E+03  0.00000000000E+00 0.  1.
          1   -1    0    0  501    0  0.00000000000E+00 -0.00000000000E+00 -0.88271243651E+02  0.88271243651E+02  0.00000000000E+00 0. -1.
         25    2    1    2    0    0 -0.51711348007E+02  0.40266835718E+02 -0.73252062244E+01  0.14140699227E+03  0.12508715860E+03 0.  0.
          5    1    3    3  502    0 -0.52448950078E+02  0.35527879545E+01 -0.58191381500E+02  0.78531674803E+02  0.41800000000E+01 0. -1.
         -5    1    3    3    0  502  0.73760207093E+00  0.36714047764E+02  0.50866175276E+02  0.62875317472E+02  0.41800000000E+01 0. -1.
        -11    1    1    2    0    0  0.23774192167E+02  0.28857855943E+02  0.68532612260E+02  0.78068604483E+02  0.00000000000E+00 0.  1.
         11    1    1    2    0    0  0.27937155840E+02 -0.69124691661E+02  0.14295373110E+03  0.16122802768E+03  0.00000000000E+00 0. -1.
</event>
<event>
 7    1  0.2943257E-009  0.1135439E+03  0.7561462E-02  0.1254144E+00
          2   -1    0    0  501    0  0.00000000000E+00  0.00000000000E+00  0.55933272149E+02  0.55933272149E+02  0.00000000000E+00 0.  1.
         -2   -1    0    0    0  501 -0.00000000000E+00 -0.00000000000E+00 -0.31350686012E+03  0.31350686012E+03  0.00000000000E+00 0. -1.
         25    2    1    2    0    0  0.45578879951E+02  0.46185854229E+01 -0.60772411992E+02  0.14641956938E+03  0.12508652449E+03 0.  0.
          5    1    3    3  502    0  0.37722061131E+02 -0.57243856445E+02 -0.19056534773E+02  0.71277183686E+02  0.41800000000E+01 0. -1.
         -5    1    3    3    0  502  0.78568188204E+01  0.61862441868E+02 -0.41715877219E+02  0.75142385696E+02  0.41800000000E+01 0. -1.
        -11    1    1    2    0    0 -0.30596400635E+02 -0.44101603629E+02 -0.15315558073E+03  0.16228901097E+03  0.00000000000E+00 0. -1.
         11    1    1    2    0    0 -0.14982479316E+02  0.39483018206E+02 -0.43645595250E+02  0.60731551914E+02  0.00000000000E+00 0.  1.
</event>
<event>
 7    1  0.2943257E-009  0.7794773E+02  0.7561462E-02  0.1334978E+00
          2   -1    0    0  501    0  0.00000000000E+00  0.00000000000E+00  0.48406786814E+03  0.48406786814E+03  0.00000000000E+00 0. -1.
         -2   -1    0    0    0  501 -0.00000000000E+00 -0.00000000000E+00 -0.29848968489E+02  0.29848968489E+02  0.00000000000E+00 0.  1.
         25    2    1    2    0    0 -0.55791014964E+01 -0.41081804629E+02  0.33824075027E+03  0.36300122265E+03  0.12507694214E+03 0.  0.
          5    1    3    3  502    0 -0.17048458248E+02  0.30805632732E+02  0.22856435277E+03  0.23129801706E+03  0.41800000000E+01 0.  1.
         -5    1    3    3    0  502  0.11469356752E+02 -0.71887437362E+02  0.10967639750E+03  0.13170320559E+03  0.41800000000E+01 0.  1.
        -11    1    1    2    0    0  0.13554016499E+02  0.14848446980E+02 -0.96710629983E+01  0.22309576430E+02  0.00000000000E+00 0.  1.
         11    1    1    2    0    0 -0.79749150030E+01  0.26233357649E+02  0.12564921239E+03  0.12860603756E+03  0.00000000000E+00 0. -1.
</event>
<event>
 7    1  0.2943257E-009  0.7528301E+02  0.7561462E-02  0.1342997E+00
          4   -1    0    0  501    0  0.00000000000E+00  0.00000000000E+00  0.58422613718E+03  0.58422613718E+03  0.00000000000E+00 0. -1.
         -4   -1    0    0    0  501 -0.00000000000E+00 -0.00000000000E+00 -0.25582603578E+02  0.25582603578E+02  0.00000000000E+00 0.  1.
         25    2    1    2    0    0  0.14817548382E+02  0.50552824709E+02  0.26411713628E+03  0.29695052747E+03  0.12508639520E+03 0.  0.
          5    1    3    3  502    0 -0.72503457992E+01  0.43954015043E+02  0.26928530743E+03  0.27297723742E+03  0.41800000000E+01 0.  1.
         -5    1    3    3    0  502  0.22067894182E+02  0.65988096665E+01 -0.51681711558E+01  0.23973290048E+02  0.41800000000E+01 0.  1.
        -11    1    1    2    0    0 -0.37613205187E+02 -0.15680630337E+02  0.24395832337E+03  0.24733842991E+03  0.00000000000E+00 0. -1.
         11    1    1    2    0    0  0.22795656804E+02 -0.34872194372E+02  0.50568073962E+02  0.65519783376E+02  0.00000000000E+00 0.  1.
</event>
<event>
 7    1  0.2943257E-009  0.2170348E+03  0.7561462E-02  0.1136113E+00
          2   -1    0    0  501    0  0.00000000000E+00  0.00000000000E+00  0.47082917137E+03  0.47082917137E+03  0.00000000000E+00 0. -1.
         -2   -1    0    0    0  501 -0.00000000000E+00 -0.00000000000E+00 -0.12807279405E+03  0.12807279405E+03  0.00000000000E+00 0.  1.
         25    2    1    2    0    0  0.39471600884E+02  0.18918950777E+03  0.29911487728E+03  0.37744916970E+03  0.12508992273E+03 0.  0.
          5    1    3    3  502    0 -0.16728885033E+02  0.16422947944E+03  0.24484312447E+03  0.29532491515E+03  0.41800000000E+01 0. -1.
         -5    1    3    3    0  502  0.56200485917E+02  0.24960028337E+02  0.54271752815E+02  0.82124254551E+02  0.41800000000E+01 0. -1.
        -11    1    1    2    0    0 -0.10190862466E+02  0.46937206462E+01 -0.13175265934E+02  0.17305268670E+02  0.00000000000E+00 0.  1.
         11    1    1    2    0    0 -0.29280738419E+02 -0.19388322842E+03  0.56816765978E+02  0.20414752705E+03  0.00000000000E+00 0. -1.
</event>
<event>
 7    1  0.2943257E-009  0.1838389E+03  0.7561462E-02  0.1164139E+00
         -2   -1    0    0    0  501 -0.00000000000E+00  0.00000000000E+00  0.40683608204E+02  0.40683608204E+02  0.00000000000E+00 0.  1.
          2   -1    0    0  501    0  0.00000000000E+00 -0.00000000000E+00 -0.86104139071E+03  0.86104139071E+03  0.00000000000E+00 0. -1.
         25    2    1    2    0    0 -0.12089779517E+03  0.91823374501E+02 -0.48603459213E+03  0.52433274244E+03  0.12508953221E+03 0.  0.
          5    1    3    3  502    0 -0.14474944744E+03  0.89611582573E+02 -0.39581942680E+03  0.43089804977E+03  0.41800000000E+01 0.  1.
         -5    1    3    3    0  502  0.23851652265E+02  0.22117919280E+01 -0.90215165327E+02  0.93434692670E+02  0.41800000000E+01 0.  1.
        -11    1    1    2    0    0  0.63331063952E+02  0.15783589099E+01 -0.15090780563E+03  0.16366575903E+03  0.00000000000E+00 0.  1.
         11    1    1    2    0    0  0.57566731219E+02 -0.93401733411E+02 -0.18341538475E+03  0.21372649744E+03  0.00000000000E+00 0. -1.
</event>
<event>
 7    1  0.2943257E-009  0.1129960E+03  0.7561462E-02  0.1255120E+00
         -1   -1    0    0    0  501 -0.00000000000E+00  0.00000000000E+00  0.12216603448E+03  0.12216603448E+03  0.00000000000E+00 0.  1.
          1   -1    0    0  501    0  0.00000000000E+00 -0.00000000000E+00 -0.12185965391E+03  0.12185965391E+03  0.00000000000E+00 0. -1.
         25    2    1    2    0    0  0.50942011344E+02  0.12610086096E+02 -0.24342362850E+02  0.13782028081E+03  0.12509107236E+03 0.  0.
          5    1    3    3  502    0 -0.36644653314E+02  0.24933440773E+02 -0.20962354937E+02  0.49207721039E+02  0.41800000000E+01 0. -1.
         -5    1    3    3    0  502  0.87586664659E+02 -0.12323354677E+02 -0.33800079136E+01  0.88612559776E+02  0.41800000000E+01 0. -1.
        -11    1    1    2    0    0 -0.56209867784E+02  0.20173516133E+02  0.37593017106E+02  0.70567378615E+02  0.00000000000E+00 0.  1.
         11    1    1    2    0    0  0.52678564399E+01 -0.32783602229E+02 -0.12944273689E+02  0.35638028957E+02  0.00000000000E+00 0. -1.
</event>
<event>
 7    1  0.2943257E-009  0.8878466E+02  0.7561462E-02  0.1305822E+00
          2   -1    0    0  501    0  0.00000000000E+00  0.00000000000E+00  0.11265224612E+04  0.11265224612E+04  0.00000000000E+00 0. -1.
         -2   -1    0    0    0  501 -0.00000000000E+00 -0.00000000000E+00 -0.14024218247E+02  0.14024218247E+02  0.00000000000E+00 0.  1.
         25    2    1    2    0    0 -0.35613834088E+02  0.50628931287E+02  0.71890357089E+03  0.73232578347E+03  0.12508826902E+03 0.  0.
          5    1    3    3  502    0 -0.40017521137E+02  0.52475472154E+02  0.15662739495E+03  0.17001379480E+03  0.41800000000E+01 0.  1.
         -5    1    3    3    0  502  0.44036870497E+01 -0.18465408674E+01  0.56227617594E+03  0.56231198867E+03  0.41800000000E+01 0.  1.
        -11    1    1    2    0    0  0.44248016658E+02  0.87411874397E+01  0.21928741832E+03  0.22387779517E+03  0.00000000000E+00 0.  1.
         11    1    1    2    0    0 -0.86341825705E+01 -0.59370118727E+02  0.17430725378E+03  0.18434310083E+03  0.00000000000E+00 0. -1.
</event>
<event>
 7    1  0.2943257E-009  0.1328752E+03  0.7561462E-02  0.1223251E+00
         -2   -1    0    0    0  501 -0.00000000000E+00  0.00000000000E+00  0.32566755385E+02  0.32566755385E+02  0.00000000000E+00 0.  1.
          2   -1    0    0  501    0  0.00000000000E+00 -0.00000000000E+00 -0.61065743037E+03  0.61065743037E+03  0.00000000000E+00 0. -1.
         25    2    1    2    0    0 -0.66517565695E+02  0.50938757757E+02 -0.38288333646E+03  0.41142032383E+03  0.12509072679E+03 0.  0.
          5    1    3    3  502    0 -0.89590429558E+01  0.82613799823E+02 -0.18433431326E+03  0.20224222066E+03  0.41800000000E+01 0.  1.
         -5    1    3    3    0  502 -0.57558522739E+02 -0.31675042067E+02 -0.19854902320E+03  0.20917810316E+03  0.41800000000E+01 0.  1.
        -11    1    1    2    0    0  0.12709250956E+02 -0.60711321506E+02 -0.14439234451E+03  0.15715132444E+03  0.00000000000E+00 0.  1.
         11    1    1    2    0    0  0.53808314738E+02  0.97725637499E+01 -0.50814994003E+02  0.74652537484E+02  0.00000000000E+00 0. -1.
</event>
<event>
 7    1  0.2943257E-009  0.1085300E+03  0.7561462E-02  0.1263317E+00
          2   -1    0    0  501    0  0.00000000000E+00  0.00000000000E+00  0.37704702206E+03  0.37704702206E+03  0.00000000000E+00 0.  1.
         -2   -1    0    0    0  501 -0.00000000000E+00 -0.00000000000E+00 -0.66182308690E+02  0.66182308690E+02  0.00000000000E+00 0. -1.
         25    2    1    2    0    0  0.82411292860E+02  0.28934576566E+02  0.27026974011E+03  0.31035903601E+03  0.12509263728E+03 0.  0.
          5    1    3    3  502    0  0.78478795302E+01  0.19834460895E+02  0.21721631683E+03  0.21830115838E+03  0.41800000000E+01 0.  1.
         -5    1    3    3    0  502  0.74563413330E+02  0.91001156715E+01  0.53053423287E+02  0.92057877637E+02  0.41800000000E+01 0.  1.
        -11    1    1    2    0    0 -0.29896778242E+02  0.29171214116E+02 -0.52812821416E+01  0.42103076174E+02  0.00000000000E+00 0. -1.
         11    1    1    2    0    0 -0.52514514618E+02 -0.58105790683E+02  0.45876255399E+02  0.90767218564E+02  0.00000000000E+00 0.  1.
</event>
<event>
 7    1  0.2943257E-009  0.1137947E+03  0.7561462E-02  0.1253700E+00
         -2   -1    0    0    0  501 -0.00000000000E+00  0.00000000000E+00  0.17677322051E+02  0.17677322051E+02  0.00000000000E+00 0.  1.
          2   -1    0    0  501    0  0.00000000000E+00 -0.00000000000E+00 -0.10096065663E+04  0.10096065663E+04  0.00000000000E+00 0. -1.
         25    2    1    2    0    0  0.29893191799E+02 -0.11824004650E+02 -0.81165852890E+03  0.82187005024E+03  0.12508957564E+03 0.  0.
          5    1    3    3  502    0  0.34726531871E+02 -0.65929573502E+02 -0.47915749368E+03  0.48493506455E+03  0.41800000000E+01 0. -1.
         -5    1    3    3    0  502 -0.48333400716E+01  0.54105568851E+02 -0.33250103522E+03  0.33693498569E+03  0.41800000000E+01 0. -1.
        -11    1    1    2    0    0  0.27759619062E+02 -0.18474349264E+02 -0.60758746828E+02  0.69307455208E+02  0.00000000000E+00 0. -1.
         11    1    1    2    0    0 -0.57652810861E+02  0.30298353914E+02 -0.11951196855E+03  0.13610638294E+03  0.00000000000E+00 0.  1.
</event>
<event>
 7    1  0.2943257E-009  0.1231687E+03  0.7561462E-02  0.1237959E+00
         -2   -1    0    0    0  501 -0.00000000000E+00  0.00000000000E+00  0.33615982693E+02  0.33615982693E+02  0.00000000000E+00 0. -1.
          2   -1    0    0  501    0  0.00000000000E+00 -0.00000000000E+00 -0.60647803629E+03  0.60647803629E+03  0.00000000000E+00 0.  1.
         25    2    1    2    0    0  0.29483373277E+02 -0.85153227645E+02 -0.26286012487E+03  0.30474230145E+03  0.12510828737E+03 0.  0.
          5    1    3    3  502    0  0.48806660891E+02  0.13668326113E+02 -0.11567133574E+03  0.12635760206E+03  0.41800000000E+01 0.  1.
         -5    1    3    3    0  502 -0.19323287615E+02 -0.98821553758E+02 -0.14718878913E+03  0.17838469939E+03  0.41800000000E+01 0.  1.
        -11    1    1    2    0    0 -0.32263507668E+02  0.50434620778E+02 -0.28799385894E+03  0.29415140266E+03  0.00000000000E+00 0.  1.
         11    1    1    2    0    0  0.27801343914E+01  0.34718606867E+02 -0.22008069795E+02  0.41200314879E+02  0.00000000000E+00 0. -1.
</event>
<event>
 7    1  0.3282110E-009  0.1042584E+03  0.7561462E-02  0.1271588E+00
          1   -1    0    0  501    0  0.00000000000E+00  0.00000000000E+00  0.61892941577E+03  0.61892941577E+03  0.00000000000E+00 0. -1.
         -1   -1    0    0    0  501 -0.00000000000E+00 -0.00000000000E+00 -0.30574408665E+02  0.30574408665E+02  0.00000000000E+00 0.  1.
         25    2    1    2    0    0 -0.94092500088E+01  0.77479413716E+02  0.39610480751E+03  0.42265637114E+03  0.12509115073E+03 0.  0.
          5    1    3    3  502    0  0.34379670315E+02  0.12667596873E+02  0.27979616273E+02  0.46289967253E+02  0.41800000000E+01 0. -1.
         -5    1    3    3    0  502 -0.43788920324E+02  0.64811816843E+02  0.36812519124E+03  0.37636640388E+03  0.41800000000E+01 0. -1.
        -11    1    1    2    0    0  0.29864965346E+02 -0.57083625774E+02  0.18660715995E+03  0.19741501623E+03  0.00000000000E+00 0. -1.
         11    1    1    2    0    0 -0.20455715337E+02 -0.20395787942E+02  0.56430396421E+01  0.29432437074E+02  0.00000000000E+00 0.  1.
</event>
<event>
 7    1  0.3395494E-009  0.1388770E+03  0.7561462E-02  0.1214848E+00
         -4   -1    0    0    0  501 -0.00000000000E+00  0.00000000000E+00  0.24034123648E+03  0.24034123648E+03  0.00000000000E+00 0.  1.
          4   -1    0    0  501    0  0.00000000000E+00 -0.00000000000E+00 -0.98244093549E+02  0.98244093549E+02  0.00000000000E+00 0. -1.
         25    2    1    2    0    0  0.53104457734E+02  0.94007694377E+02  0.90276524741E+02  0.18829547650E+03  0.12509118881E+03 0.  0.
          5    1    3    3  502    0 -0.36724881758E+02  0.48780379615E+01  0.10840506844E+02  0.38826552552E+02  0.41800000000E+01 0. -1.
         -5    1    3    3    0  502  0.89829339491E+02  0.89129656416E+02  0.79436017897E+02  0.14946892395E+03  0.41800000000E+01 0. -1.
        -11    1    1    2    0    0 -0.27957290146E+02 -0.16704075691E+02 -0.22949933921E+02  0.39841381552E+02  0.00000000000E+00 0. -1.
         11    1    1    2    0    0 -0.25147167588E+02 -0.77303618686E+02  0.74770552114E+02  0.11044847198E+03  0.00000000000E+00 0.  1.
</event>
<event>
 7    1  0.2943257E-009  0.2119949E+03  0.7561462E-02  0.1139996E+00
          2   -1    0    0  501    0  0.00000000000E+00  0.00000000000E+00  0.44255622414E+03  0.44255622414E+03  0.00000000000E+00 0. -1.
         -2   -1    0    0    0  501 -0.00000000000E+00 -0.00000000000E+00 -0.11536423156E+03  0.11536423156E+03  0.00000000000E+00 0.  1.
         25    2    1    2    0    0  0.11583953596E+03  0.15361408612E+03  0.11266949624E+03  0.25565363950E+03  0.12509309517E+03 0.  0.
          5    1    3    3  502    0  0.72380677317E+02  0.16758148128E+03  0.99584990289E+02  0.20798355225E+03  0.41800000000E+01 0.  1.
         -5    1    3    3    0  502  0.43458858648E+02 -0.13967395155E+02  0.13084505952E+02  0.47670087250E+02  0.41800000000E+01 0.  1.
        -11    1    1    2    0    0 -0.50252855196E+02 -0.39419127829E+02  0.13258700604E+03  0.14716837725E+03  0.00000000000E+00 0. -1.
         11    1    1    2    0    0 -0.65586680769E+02 -0.11419495829E+03  0.81935490301E+02  0.15509843895E+03  0.00000000000E+00 0.  1.
</event>
<event>
 7    1  0.2943257E-009  0.1095997E+03  0.7561462E-02  0.1261313E+00
          2   -1    0    0  501    0  0.00000000000E+00  0.00000000000E+00  0.15607259686E+04  0.15607259686E+04  0.00000000000E+00 0. -1.
         -2   -1    0    0    0  501 -0.00000000000E+00 -0.00000000000E+00 -0.14721196666E+02  0.14721196666E+02  0.00000000000E+00 0.  1.
         25    2    1    2    0    0 -0.17405087419E+02  0.11100314835E+02  0.13736051452E+04  0.13794434012E+04  0.12508736275E+03 0.  0.
          5    1    3    3  502    0 -0.41906542448E+02 -0.47280140251E+02  0.67698252882E+03  0.67993704612E+03  0.41800000000E+01 0. -1.
         -5    1    3    3    0  502  0.24501455029E+02  0.58380455087E+02  0.69662261636E+03  0.69950635512E+03  0.41800000000E+01 0. -1.
        -11    1    1    2    0    0  0.45924618227E+02 -0.32934417282E+02  0.11772126025E+03  0.13058346571E+03  0.00000000000E+00 0. -1.
         11    1    1    2    0    0 -0.28519530807E+02  0.21834102447E+02  0.54678366475E+02  0.65420298284E+02  0.00000000000E+00 0.  1.
</event>
<event>
 7    1  0.3301746E-009  0.3078066E+03  0.7561462E-02  0.1081402E+00
          1   -1    0    0  501    0  0.00000000000E+00  0.00000000000E+00  0.52370580323E+03  0.52370580323E+03  0.00000000000E+00 0. -1.
         -1   -1    0    0    0  501 -0.00000000000E+00 -0.00000000000E+00 -0.23222775892E+03  0.23222775892E+03  0.00000000000E+00 0.  1.
         25    2    1    2    0    0  0.27024854969E+03 -0.12959066603E+03  0.30078102975E+03  0.44265533517E+03  0.12508596469E+03 0.  0.
          5    1    3    3  502    0  0.29263919813E+01  0.62911333459E+00 -0.10784895457E+02  0.11947632553E+02  0.41800000000E+01 0. -1.
         -5    1    3    3    0  502  0.26732215771E+03 -0.13021977936E+03  0.31156592521E+03  0.43070770261E+03  0.41800000000E+01 0. -1.
        -11    1    1    2    0    0 -0.22238020085E+03  0.63096084833E+02 -0.44162759963E+01  0.23120028794E+03  0.00000000000E+00 0.  1.
         11    1    1    2    0    0 -0.47868348841E+02  0.66494581192E+02 -0.48867094402E+01  0.82077939044E+02  0.00000000000E+00 0. -1.
</event>
<event>
 7    1  0.2943257E-009  0.1180533E+03  0.7561462E-02  0.1246343E+00
         -1   -1    0    0    0  501 -0.00000000000E+00  0.00000000000E+00  0.22268720360E+03  0.22268720360E+03  0.00000000000E+00 0.  1.
          1   -1    0    0  501    0  0.00000000000E+00 -0.00000000000E+00 -0.81357016487E+02  0.81357016487E+02  0.00000000000E+00 0. -1.
         25    2    1    2    0    0  0.73136118163E+02 -0.15270625547E+02  0.11028997945E+03  0.18273718163E+03  0.12508762609E+03 0.  0.
          5    1    3    3  502    0  0.47548237279E+02 -0.69819435376E+02  0.55247961111E+02  0.10102177009E+03  0.41800000000E+01 0.  1.
         -5    1    3    3    0  502  0.25587880883E+02  0.54548809829E+02  0.55042018337E+02  0.81715411548E+02  0.41800000000E+01 0.  1.
        -11    1    1    2    0    0 -0.61121302062E+02 -0.11131450883E+02  0.55543520545E+02  0.83335499273E+02  0.00000000000E+00 0.  1.
         11    1    1    2    0    0 -0.12014816101E+02  0.26402076430E+02 -0.24503312879E+02  0.37971539181E+02  0.00000000000E+00 0. -1.
</event>
<event>
 7    1  0.2943257E-009  0.8319909E+02  0.7561462E-02  0.1320210E+00
         -2   -1    0    0    0  501 -0.00000000000E+00  0.00000000000E+00  0.22368355108E+02  0.22368355108E+02  0.00000000000E+00 0.  1.
          2   -1    0    0  501    0  0.00000000000E+00 -0.00000000000E+00 -0.84870926212E+03  0.84870926212E+03  0.00000000000E+00 0. -1.
         25    2    1    2    0    0  0.67104714754E+01  0.57458743664E+02 -0.64869664842E+03  0.66317586076E+03  0.12509333707E+03 0.  0.
          5    1    3    3  502    0  0.18506746783E+02  0.11838688867E+02 -0.57605501723E+03  0.57648895003E+03  0.41800000000E+01 0.  1.
         -5    1    3    3    0  502 -0.11796275308E+02  0.45620054797E+02 -0.72641631188E+02  0.86686910733E+02  0.41800000000E+01 0.  1.
        -11    1    1    2    0    0 -0.41924147226E+02 -0.37523685987E+02 -0.54707142735E+02  0.78476318702E+02  0.00000000000E+00 0.  1.
         11    1    1    2    0    0  0.35213675751E+02 -0.19935057677E+02 -0.12293711586E+03  0.12942543776E+03  0.00000000000E+00 0. -1.
</event>
<event>
 7    1  0.2943257E-009  0.9995499E+02  0.7561462E-02  0.1280391E+00
          3   -1    0    0  501    0  0.00000000000E+00  0.00000000000E+00  0.32049257530E+03  0.32049257530E+03  0.00000000000E+00 0. -1.
         -3   -1    0    0    0  501 -0.00000000000E+00 -0.00000000000E+00 -0.52957625004E+02  0.52957625004E+02  0.00000000000E+00 0.  1.
         25    2    1    2    0    0  0.22271483145E+02 -0.10165229134E+02  0.10761812397E+03  0.16681761210E+03  0.12508838578E+03 0.  0.
          5    1    3    3  502    0 -0.12065562551E+02  0.47297688519E+02  0.80989216348E+02  0.94653973522E+02  0.41800000000E+01 0. -1.
         -5    1    3    3    0  502  0.34337045696E+02 -0.57462917653E+02  0.26628907619E+02  0.72163638582E+02  0.41800000000E+01 0. -1.
        -11    1    1    2    0    0 -0.44413073691E+02  0.30426127727E+02  0.11291150852E+02  0.55006912753E+02  0.00000000000E+00 0.  1.
         11    1    1    2    0    0  0.22141590545E+02 -0.20260898592E+02  0.14862567548E+03  0.15162567545E+03  0.00000000000E+00 0. -1.
</event>
<event>
 7    1  0.2943257E-009  0.8658434E+02  0.7561462E-02  0.1311341E+00
         -2   -1    0    0    0  501 -0.00000000000E+00  0.00000000000E+00  0.21894014237E+02  0.21894014237E+02  0.00000000000E+00 0.  1.
          2   -1    0    0  501    0  0.00000000000E+00 -0.00000000000E+00 -0.56237938448E+03  0.56237938448E+03  0.00000000000E+00 0. -1.
         25    2    1    2    0    0  0.23701534474E+02  0.62780991755E+01 -0.33547443013E+03  0.35887631772E+03  0.12509172989E+03 0.  0.
          5    1    3    3  502    0  0.56109785963E+02  0.78546029468E+01 -0.31543885273E+03  0.32051387658E+03  0.41800000000E+01 0. -1.
         -5    1    3    3    0  502 -0.32408251490E+02 -0.15765037713E+01 -0.20035577397E+02  0.38362441142E+02  0.41800000000E+01 0. -1.
        -11    1    1    2    0    0 -0.53104392544E+02  0.18527900012E+01 -0.17384996264E+03  0.18178921543E+03  0.00000000000E+00 0. -1.
         11    1    1    2    0    0  0.29402858070E+02 -0.81308891768E+01 -0.31160977475E+02  0.43607865560E+02  0.00000000000E+00 0.  1.
</event>
<event>
 7    1  0.2943257E-009  0.9209761E+02  0.7561462E-02  0.1297850E+00
         -1   -1    0    0    0  501 -0.00000000000E+00  0.00000000000E+00  0.59233615740E+03  0.59233615740E+03  0.00000000000E+00 0.  1.
          1   -1    0    0  501    0  0.00000000000E+00 -0.00000000000E+00 -0.34352249613E+02  0.34352249613E+02  0.00000000000E+00 0. -1.
         25    2    1    2    0    0  0.10236678524E+02  0.17078532486E+02  0.50166147259E+03  0.51740521454E+03  0.12508979610E+03 0.  0.
          5    1    3    3  502    0  0.50911249226E+02 -0.19238918214E+02  0.11982597243E+03  0.13167318383E+03  0.41800000000E+01 0.  1.
         -5    1    3    3    0  502 -0.40674570702E+02  0.36317450700E+02  0.38183550016E+03  0.38573203070E+03  0.41800000000E+01 0.  1.
        -11    1    1    2    0    0  0.27375495822E+02 -0.24320247667E+02 -0.50237366923E+01  0.36961197876E+02  0.00000000000E+00 0. -1.
         11    1    1    2    0    0 -0.37612174346E+02  0.72417151810E+01  0.61346171891E+02  0.72321994603E+02  0.00000000000E+00 0.  1.
</event>
<event>
 7    1  0.2943257E-009  0.1389072E+03  0.7561462E-02  0.1214807E+00
         -1   -1    0    0    0  501 -0.00000000000E+00  0.00000000000E+00  0.67233906274E+02  0.67233906274E+02  0.00000000000E+00 0.  1.
          1   -1    0    0  501    0  0.00000000000E+00 -0.00000000000E+00 -0.49554552758E+03  0.49554552758E+03  0.00000000000E+00 0. -1.
         25    2    1    2    0    0  0.80475195750E+02 -0.11143654550E+03 -0.32152599529E+03  0.37137081653E+03  0.12507180705E+03 0.  0.
          5    1    3    3  502    0  0.58868017413E+02 -0.97663708809E+02 -0.32566756665E+03  0.34508039623E+03  0.41800000000E+01 0. -1.
         -5    1    3    3    0  502  0.21607178337E+02 -0.13772836689E+02  0.41415713621E+01  0.26290420299E+02  0.41800000000E+01 0. -1.
        -11    1    1    2    0    0 -0.53917632949E+02  0.67338487999E+02 -0.17016345431E+02  0.87926896458E+02  0.00000000000E+00 0.  1.
         11    1    1    2    0    0 -0.26557562801E+02  0.44098057499E+02 -0.89769280578E+02  0.10348172086E+03  0.00000000000E+00 0. -1.
</event>
<event>
 7    1  0.2943257E-009  0.1276856E+03  0.7561462E-02  0.1230931E+00
         -1   -1    0    0    0  501 -0.00000000000E+00  0.00000000000E+00  0.73138758989E+02  0.73138758989E+02  0.00000000000E+00 0.  1.
          1   -1    0    0  501    0  0.00000000000E+00 -0.00000000000E+00 -0.64222836159E+03  0.64222836159E+03  0.00000000000E+00 0. -1.
         25    2    1    2    0    0 -0.40919900688E+02 -0.83101313444E+02 -0.56093744606E+03  0.58212522719E+03  0.12505476866E+03 0.  0.
          5    1    3    3  502    0  0.14708116747E+02 -0.69178360846E+02 -0.46432135442E+03  0.46969539797E+03  0.41800000000E+01 0. -1.
         -5    1    3    3    0  502 -0.55628017435E+02 -0.13922952598E+02 -0.96616091644E+02  0.11242982922E+03  0.41800000000E+01 0. -1.
        -11    1    1    2    0    0 -0.26900423910E+02  0.33709994878E+02  0.15896340175E+02  0.45964009749E+02  0.00000000000E+00 0.  1.
         11    1    1    2    0    0  0.67820324599E+02  0.49391318566E+02 -0.24048496708E+02  0.87277883638E+02  0.00000000000E+00 0. -1.
</event>
<event>
 7    1  0.2943257E-009  0.1046146E+03  0.7561462E-02  0.1270881E+00
          2   -1    0    0  501    0  0.00000000000E+00  0.00000000000E+00  0.19254361294E+02  0.19254361294E+02  0.00000000000E+00 0. -1.
         -2   -1    0    0    0  501 -0.00000000000E+00 -0.00000000000E+00 -0.88736295521E+03  0.88736295521E+03  0.00000000000E+00 0.  1.
         25    2    1    2    0    0 -0.44655068988E+02  0.56683357173E+02 -0.44699367239E+03  0.46974219047E+03  0.12508918493E+03 0.  0.
          5    1    3    3  502    0 -0.55386861736E+02  0.69980902207E+02 -0.16874658971E+03  0.19093955867E+03  0.41800000000E+01 0. -1.
         -5    1    3    3    0  502  0.10731792748E+02 -0.13297545034E+02 -0.27824708267E+03  0.27880263179E+03  0.41800000000E+01 0. -1.
        -11    1    1    2    0    0  0.56005162329E+02 -0.66742087588E+02 -0.40678203566E+03  0.41600806363E+03  0.00000000000E+00 0.  1.
         11    1    1    2    0    0 -0.11350093341E+02  0.10058730414E+02 -0.14332885869E+02  0.20867062412E+02  0.00000000000E+00 0. -1.
</event>
<event>
 7    1  0.2943257E-009  0.1463519E+03  0.7561462E-02  0.1205029E+00
         -1   -1    0    0    0  501 -0.00000000000E+00  0.00000000000E+00  0.46575809151E+03  0.46575809151E+03  0.00000000000E+00 0. -1.
          1   -1    0    0  501    0  0.00000000000E+00 -0.00000000000E+00 -0.10952079892E+03  0.10952079892E+03  0.00000000000E+00 0.  1.
         25    2    1    2    0    0  0.27591707914E+02  0.93603133697E+02 -0.33271978528E+02  0.16210464483E+03  0.12509213539E+03 0.  0.
          5    1    3    3  502    0 -0.48495605012E+02  0.39551069667E+02  0.61994368253E+00  0.62721348418E+02  0.41800000000E+01 0.  1.
         -5    1    3    3    0  502  0.76087312926E+02  0.54052064030E+02 -0.33891922211E+02  0.99383296410E+02  0.41800000000E+01 0.  1.
        -11    1    1    2    0    0 -0.52925439600E+02 -0.16555969132E+02  0.13141036932E+03  0.14263200004E+03  0.00000000000E+00 0.  1.
         11    1    1    2    0    0  0.25333731686E+02 -0.77047164565E+02  0.25809890180E+03  0.27054224557E+03  0.00000000000E+00 0. -1.
</event>
<event>
 7    1  0.2943257E-009  0.7371803E+02  0.7561462E-02  0.1347887E+00
          2   -1    0    0  501    0  0.00000000000E+00  0.00000000000E+00  0.98503659136E+03  0.98503659136E+03  0.00000000000E+00 0. -1.
         -2   -1    0    0    0  501 -0.00000000000E+00 -0.00000000000E+00 -0.18756995288E+02  0.18756995288E+02  0.00000000000E+00 0.  1.
         25    2    1    2    0    0  0.84778240672E+01 -0.30898741652E+01  0.83474462477E+03  0.84411259393E+03  0.12508421888E+03 0.  0.
          5    1    3    3  502    0 -0.34015407101E+02 -0.26995855649E+02  0.68884551372E+03  0.69022564305E+03  0.41800000000E+01 0. -1.
         -5    1    3    3    0  502  0.42493231169E+02  0.23905981483E+02  0.14589911105E+03  0.15388695088E+03  0.41800000000E+01 0. -1.
        -11    1    1    2    0    0  0.10055002829E+02 -0.21703619456E+02 -0.64150534685E+00  0.23928261711E+02  0.00000000000E+00 0.  1.
         11    1    1    2    0    0 -0.18532826897E+02  0.24793493622E+02  0.13217647665E+03  0.13575273102E+03  0.00000000000E+00 0. -1.
</event>
<event>
 7    1  0.2943257E-009  0.1422392E+03  0.7561462E-02  0.1210347E+00
          2   -1    0    0  501    0  0.00000000000E+00  0.00000000000E+00  0.28014627584E+03  0.28014627584E+03  0.00000000000E+00 0. -1.
         -2   -1    0    0    0  501 -0.00000000000E+00 -0.00000000000E+00 -0.85864969119E+02  0.85864969119E+02  0.00000000000E+00 0.  1.
         25    2    1    2    0    0  0.11001688325E+03  0.22213848636E+02  0.83535604246E+02  0.18767745526E+03  0.12508980921E+03 0.  0.
          5    1    3    3  502    0  0.94211684811E+02  0.67086266029E+02  0.38320834994E+02  0.12191130973E+03  0.41800000000E+01 0. -1.
         -5    1    3    3    0  502  0.15805198436E+02 -0.44872417393E+02  0.45214769252E+02  0.65766145537E+02  0.41800000000E+01 0. -1.
        -11    1    1    2    0    0 -0.91229319771E+02  0.86006922997E+00  0.11655619303E+03  0.14801646746E+03  0.00000000000E+00 0. -1.
         11    1    1    2    0    0 -0.18787563476E+02 -0.23073917866E+02 -0.58104905575E+01  0.30317322236E+02  0.00000000000E+00 0.  1.
</event>
<event>
 7    1  0.2943257E-009  0.1366742E+03  0.7561462E-02  0.1217875E+00
          1   -1    0    0  501    0  0.00000000000E+00  0.00000000000E+00  0.77630409657E+03  0.77630409657E+03  0.00000000000E+00 0. -1.
         -1   -1    0    0    0  501 -0.00000000000E+00 -0.00000000000E+00 -0.37195921098E+02  0.37195921098E+02  0.00000000000E+00 0.  1.
         25    2    1    2    0    0 -0.94749122216E+02 -0.64168956724E+02  0.24148005520E+03  0.29505166431E+03  0.12509123224E+03 0.  0.
          5    1    3    3  502    0 -0.34963654875E+02  0.16157813582E+02  0.16361040053E+03  0.16813496859E+03  0.41800000000E+01 0.  1.
         -5    1    3    3    0  502 -0.59785467341E+02 -0.80326770306E+02  0.77869654670E+02  0.12691669572E+03  0.41800000000E+01 0.  1.
        -11    1    1    2    0    0  0.88267478361E+02  0.20998740312E+02  0.41704606121E+03  0.42680149016E+03  0.00000000000E+00 0. -1.
         11    1    1    2    0    0  0.64816438548E+01  0.43170216412E+02  0.80582059065E+02  0.91646863204E+02  0.00000000000E+00 0.  1.
</event>
<event>
 7    1  0.2943257E-009  0.1647714E+03  0.7561462E-02  0.1183413E+00
          1   -1    0    0  501    0  0.00000000000E+00  0.00000000000E+00  0.11450657477E+04  0.11450657477E+04  0.00000000000E+00 0. -1.
         -1   -1    0    0    0  501 -0.00000000000E+00 -0.00000000000E+00 -0.34345486417E+02  0.34345486417E+02  0.00000000000E+00 0.  1.
         25    2    1    2    0    0  0.50956456237E+01 -0.13784157486E+03  0.30825604890E+03  0.36013645266E+03  0.12510078933E+03 0.  0.
          5    1    3    3  502    0 -0.31334132673E+02 -0.10881690559E+02  0.11616590238E+02  0.35392889520E+02  0.41800000000E+01 0. -1.
         -5    1    3    3    0  502  0.36429778297E+02 -0.12695988430E+03  0.29663945866E+03  0.32474356314E+03  0.41800000000E+01 0. -1.
        -11    1    1    2    0    0 -0.46283340923E+02  0.86854932253E+02  0.43322565540E+03  0.44426388037E+03  0.00000000000E+00 0. -1.
         11    1    1    2    0    0  0.41187695299E+02  0.50986642608E+02  0.36923855702E+03  0.37501090112E+03  0.00000000000E+00 0.  1.
</event>
<event>
 7    1  0.2943257E-009  0.1751830E+03  0.7561462E-02  0.1172548E+00
          2   -1    0    0  501    0  0.00000000000E+00  0.00000000000E+00  0.83498076815E+03  0.83498076815E+03  0.00000000000E+00 0. -1.
         -2   -1    0    0    0  501 -0.00000000000E+00 -0.00000000000E+00 -0.46268079471E+02  0.46268079471E+02  0.00000000000E+00 0.  1.
         25    2    1    2    0    0  0.12931616671E+03  0.96653851065E+02  0.42203198593E+03  0.46885254954E+03  0.12508828149E+03 0.  0.
          5    1    3    3  502    0  0.62313879624E+02  0.42981977442E+02  0.34565022681E+03  0.35386723735E+03  0.41800000000E+01 0. -1.
         -5    1    3    3    0  502  0.67002287084E+02  0.53671873623E+02  0.76381759123E+02  0.11498531219E+03  0.41800000000E+01 0. -1.
        -11    1    1    2    0    0 -0.11717247234E+03 -0.30139548732E+02  0.22806293562E+03  0.25816754884E+03  0.00000000000E+00 0.  1.
         11    1    1    2    0    0 -0.12143694371E+02 -0.66514302333E+02  0.13861776714E+03  0.15422874924E+03  0.00000000000E+00 0. -1.
</event>
<event>
 7    1  0.2943257E-009  0.2871428E+03  0.7561462E-02  0.1091850E+00
          1   -1    0    0  501    0  0.00000000000E+00  0.00000000000E+00  0.17540926055E+03  0.17540926055E+03  0.00000000000E+00 0. -1.
         -1   -1    0    0    0  501 -0.00000000000E+00 -0.00000000000E+00 -0.51218709525E+03  0.51218709525E+03  0.00000000000E+00 0.  1.
         25    2    1    2    0    0 -0.14481090878E+03 -0.23803757809E+03 -0.18797926434E+03  0.35863098878E+03  0.12509154412E+03 0.  0.
          5    1    3    3  502    0 -0.33263020542E+02 -0.10099783938E+03 -0.13930759949E+03  0.17530280024E+03  0.41800000000E+01 0.  1.
         -5    1    3    3    0  502 -0.11154788824E+03 -0.13703973871E+03 -0.48671664844E+02  0.18332818855E+03  0.41800000000E+01 0.  1.
        -11    1    1    2    0    0 -0.67332150862E+01  0.45996446258E+02 -0.39598682672E+02  0.61066070147E+02  0.00000000000E+00 0.  1.
         11    1    1    2    0    0  0.15154412387E+03  0.19204113183E+03 -0.10919988769E+03  0.26789929687E+03  0.00000000000E+00 0. -1.
</event>
<event>
 7    1  0.2943257E-009  0.2759253E+03  0.7561462E-02  0.1097935E+00
         -1   -1    0    0    0  501 -0.00000000000E+00  0.00000000000E+00  0.10672689505E+03  0.10672689505E+03  0.00000000000E+00 0.  1.
          1   -1    0    0  501    0  0.00000000000E+00 -0.00000000000E+00 -0.80173906978E+03  0.80173906978E+03  0.00000000000E+00 0. -1.
         25    2    1    2    0    0  0.19554959462E+02  0.26475970501E+03 -0.44121759617E+03  0.52990622837E+03  0.12509015092E+03 0.  0.
          5    1    3    3  502    0  0.32135603311E+02  0.24997555453E+03 -0.44328580415E+03  0.50994141960E+03  0.41800000000E+01 0.  1.
         -5    1    3    3    0  502 -0.12580643848E+02  0.14784150476E+02  0.20682079768E+01  0.19964808768E+02  0.41800000000E+01 0.  1.
        -11    1    1    2    0    0 -0.53572239741E+02 -0.19632128862E+03 -0.19804066397E+03  0.28395798601E+03  0.00000000000E+00 0. -1.
         11    1    1    2    0    0  0.34017280278E+02 -0.68438416384E+02 -0.55753914594E+02  0.94601750445E+02  0.00000000000E+00 0.  1.
</event>
<event>
 6    1  0.2943257E-009  0.1166576E+03  0.7561462E-02  0.1248715E+00
          2   -1    0    0  501    0  0.00000000000E+00  0.00000000000E+00  0.14339629621E+03  0.14339629621E+03  0.00000000000E+00 0. -1.
         -2   -1    0    0    0  501 -0.00000000000E+00 -0.00000000000E+00 -0.11898447698E+03  0.11898447698E+03  0.00000000000E+00 0.  1.
          5    1    1    2  502    0 -0.31875592953E+02 -0.49207094330E+02  0.60404268736E+01  0.59087652816E+02  0.41800000000E+01 0. -1.
         -5    1    1    2    0  502  0.68778388225E+02  0.11380394229E+02 -0.41829867386E+02  0.81407556561E+02  0.41800000000E+01 0. -1.
        -11    1    1    2    0    0  0.24254610448E+02 -0.10814404183E+02  0.23882680993E+02  0.35715821665E+02  0.00000000000E+00 0.  1.
         11    1    1    2    0    0 -0.61157405720E+02  0.48641104285E+02  0.36318578751E+02  0.86169742154E+02  0.00000000000E+00 0. -1.
</event>
<event>
 7    1  0.2943257E-009  0.3189730E+03  0.7561462E-02  0.1076123E+00
          1   -1    0    0  501    0  0.00000000000E+00  0.00000000000E+00  0.24058015929E+04  0.24058015929E+04  0.00000000000E+00 0. -1.
         -1   -1    0    0    0  501 -0.00000000000E+00 -0.00000000000E+00 -0.43916361339E+02  0.43916361339E+02  0.00000000000E+00 0.  1.
         25    2    1    2    0    0 -0.22692997961E+03 -0.20282107996E+03  0.10727998466E+04  0.11221337355E+04  0.12510397076E+03 0.  0.
          5    1    3    3  502    0 -0.69816664708E+02 -0.12965429489E+03  0.36956520777E+03  0.39784484168E+03  0.41800000000E+01 0.  1.
         -5    1    3    3    0  502 -0.15711331490E+03 -0.73166785071E+02  0.70323463881E+03  0.72428889387E+03  0.41800000000E+01 0.  1.
        -11    1    1    2    0    0  0.23652322434E+01  0.39547522158E+02  0.17388215027E+03  0.17833845075E+03  0.00000000000E+00 0. -1.
         11    1    1    2    0    0  0.22456474737E+03  0.16327355780E+03  0.11152032348E+04  0.11492457680E+04  0.00000000000E+00 0.  1.
</event>
<event>
 7    1  0.2943257E-009  0.1035660E+03  0.7561462E-02  0.1272971E+00
         -2   -1    0    0    0  501 -0.00000000000E+00  0.00000000000E+00  0.31059105661E+03  0.31059105661E+03  0.00000000000E+00 0.  1.
          2   -1    0    0  501    0  0.00000000000E+00 -0.00000000000E+00 -0.72608633454E+02  0.72608633454E+02  0.00000000000E+00 0. -1.
         25    2    1    2    0    0 -0.46895735512E+02  0.40536025561E+02  0.23856849090E+03  0.27641330600E+03  0.12508801504E+03 0.  0.
          5    1    3    3  502    0 -0.69395851863E+02 -0.19241731285E+02  0.95526649629E+02  0.11970313976E+03  0.41800000000E+01 0.  1.
         -5    1    3    3    0  502  0.22500116350E+02  0.59777756846E+02  0.14304184127E+03  0.15671016624E+03  0.41800000000E+01 0.  1.
        -11    1    1    2    0    0 -0.28248856127E+01 -0.14674253104E+02 -0.37032170466E+02  0.39933636603E+02  0.00000000000E+00 0. -1.
         11    1    1    2    0    0  0.49720621125E+02 -0.25861772456E+02  0.36446102727E+02  0.66852747465E+02  0.00000000000E+00 0.  1.
</event>
<event>
 7    1  0.2943257E-009  0.1376160E+03  0.7561462E-02  0.1216573E+00
          1   -1    0    0  501    0  0.00000000000E+00  0.00000000000E+00  0.33105576749E+03  0.33105576749E+03  0.00000000000E+00 0. -1.
         -1   -1    0    0    0  501 -0.00000000000E+00 -0.00000000000E+00 -0.67916301254E+02  0.67916301254E+02  0.00000000000E+00 0.  1.
         25    2    1    2    0    0  0.32748033516E+02 -0.92617252287E+02  0.18552574590E+03  0.24436996158E+03  0.12508591692E+03 0.  0.
          5    1    3    3  502    0 -0.21204910604E+02 -0.10101198495E+03  0.10793428432E+03  0.14939997145E+03  0.41800000000E+01 0.  1.
         -5    1    3    3    0  502  0.53952944120E+02  0.83947326653E+01  0.77591461585E+02  0.94969990137E+02  0.41800000000E+01 0.  1.
        -11    1    1    2    0    0 -0.11189861256E+02 -0.83288789839E+01  0.43822992537E+02  0.45989541148E+02  0.00000000000E+00 0. -1.
         11    1    1    2    0    0 -0.21558172260E+02  0.10094613127E+03  0.33790727794E+02  0.10861256601E+03  0.00000000000E+00 0.  1.
</event>
<event>
 7    1  0.2943257E-009  0.1025803E+03  0.7561462E-02  0.1274962E+00
         -1   -1    0    0    0  501 -0.00000000000E+00  0.00000000000E+00  0.12718844004E+03  0.12718844004E+03  0.00000000000E+00 0.  1.
          1   -1    0    0  501    0  0.00000000000E+00 -0.00000000000E+00 -0.15981996172E+03  0.15981996172E+03  0.00000000000E+00 0. -1.
         25    2    1    2    0    0 -0.20829943051E+02 -0.43006638496E+02 -0.96662173933E+02  0.16515076408E+03  0.12509093302E+03 0.  0.
          5    1    3    3  502    0 -0.54364758021E+02 -0.11893974322E+02 -0.10457929663E+03  0.11853815936E+03  0.41800000000E+01 0.  1.
         -5    1    3    3    0  502  0.33534814970E+02 -0.31112664174E+02  0.79171227018E+01  0.46612604721E+02  0.41800000000E+01 0.  1.
        -11    1    1    2    0    0 -0.32400424334E+02  0.38022014383E+02  0.26614197840E+02  0.56601913408E+02  0.00000000000E+00 0.  1.
         11    1    1    2    0    0  0.53230367385E+02  0.49846241127E+01  0.37416454407E+02  0.65255724269E+02  0.00000000000E+00 0. -1.
</event>
<event>
 7    1  0.2943257E-009  0.1354467E+03  0.7561462E-02  0.1219590E+00
          2   -1    0    0  501    0  0.00000000000E+00  0.00000000000E+00  0.45543338017E+03  0.45543338017E+03  0.00000000000E+00 0. -1.
         -2   -1    0    0    0  501 -0.00000000000E+00 -0.00000000000E+00 -0.64367798008E+02  0.64367798008E+02  0.00000000000E+00 0.  1.
         25    2    1    2    0    0  0.85504038436E+02  0.51966910666E+02  0.33371380633E+03  0.37016719492E+03  0.12508935714E+03 0.  0.
          5    1    3    3  502    0  0.79299769013E+02 -0.39760150479E+01  0.28411251213E+03  0.29502822579E+03  0.41800000000E+01 0. -1.
         -5    1    3    3    0  502  0.62042694231E+01  0.55942925714E+02  0.49601294193E+02  0.75138969132E+02  0.41800000000E+01 0. -1.
        -11    1    1    2    0    0 -0.61696598328E+02 -0.78140858654E+02  0.27363223808E+02  0.10325313581E+03  0.00000000000E+00 0. -1.
         11    1    1    2    0    0 -0.23807440108E+02  0.26173947988E+02  0.29988552029E+02  0.46380847454E+02  0.00000000000E+00 0.  1.
</event>
<event>
 7    1  0.2943257E-009  0.1358846E+03  0.7561462E-02  0.1218976E+00
          1   -1    0    0  501    0  0.00000000000E+00  0.00000000000E+00  0.54625614750E+02  0.54625614750E+02  0.00000000000E+00 0. -1.
         -1   -1    0    0    0  501 -0.00000000000E+00 -0.00000000000E+00 -0.43821612323E+03  0.43821612323E+03  0.00000000000E+00 0.  1.
         25    2    1    2    0    0 -0.76863103620E+02 -0.76274385626E+02 -0.26303494853E+03  0.31074036568E+03  0.12508585898E+03 0.  0.
          5    1    3    3  502    0 -0.92792395149E+02 -0.93588711886E+02 -0.17261238406E+03  0.21721368079E+03  0.41800000000E+01 0.  1.
         -5    1    3    3    0  502  0.15929291529E+02  0.17314326260E+02 -0.90422564466E+02  0.93526684893E+02  0.41800000000E+01 0.  1.
        -11    1    1    2    0    0  0.74847562622E+02  0.50795585853E+02 -0.12683146160E+03  0.15578372452E+03  0.00000000000E+00 0.  1.
         11    1    1    2    0    0  0.20155409984E+01  0.25478799773E+02  0.62759016462E+01  0.26317647783E+02  0.00000000000E+00 0. -1.
</event>
<event>
 7    1  0.2943257E-009  0.1023290E+03  0.7561462E-02  0.1275473E+00
         -3   -1    0    0    0  501 -0.00000000000E+00  0.00000000000E+00  0.29557633637E+03  0.29557633637E+03  0.00000000000E+00 0.  1.
          3   -1    0    0  501    0  0.00000000000E+00 -0.00000000000E+00 -0.54021444386E+02  0.54021444386E+02  0.00000000000E+00 0. -1.
         25    2    1    2    0    0 -0.57592584474E+02 -0.21238658422E+02  0.11510868828E+03  0.18073768251E+03  0.12509241930E+03 0.  0.
          5    1    3    3  502    0 -0.72586760482E+02 -0.45774599829E+02  0.30321878867E+02  0.91110046234E+02  0.41800000000E+01 0. -1.
         -5    1    3    3    0  502  0.14994176009E+02  0.24535941406E+02  0.84786809410E+02  0.89627636278E+02  0.41800000000E+01 0. -1.
        -11    1    1    2    0    0  0.11927646965E+01  0.32206192468E+02  0.10100704926E+03  0.10602398559E+03  0.00000000000E+00 0.  1.
         11    1    1    2    0    0  0.56399819777E+02 -0.10967534046E+02  0.25439154447E+02  0.62836112650E+02  0.00000000000E+00 0. -1.
</event>
<event>
 7    1  0.2943257E-009  0.1021294E+03  0.7561462E-02  0.1275881E+00
         -4   -1    0    0    0  501 -0.00000000000E+00  0.00000000000E+00  0.23464211761E+03  0.23464211761E+03  0.00000000000E+00 0. -1.
          4   -1    0    0  501    0  0.00000000000E+00 -0.00000000000E+00 -0.61529216860E+02  0.61529216860E+02  0.00000000000E+00 0.  1.
         25    2    1    2    0    0 -0.38971225236E+02 -0.34343357751E+02  0.11680689486E+03  0.17885525025E+03  0.12508847763E+03 0.  0.
          5    1    3    3  502    0 -0.70476378776E+02  0.24195044988E+01  0.10862592232E+03  0.12957560483E+03  0.41800000000E+01 0.  1.
         -5    1    3    3    0  502  0.31505153541E+02 -0.36762862250E+02  0.81809725354E+01  0.49279645413E+02  0.41800000000E+01 0.  1.
        -11    1    1    2    0    0  0.57361094847E+02  0.33892781351E+02  0.98493994493E+01  0.67350029690E+02  0.00000000000E+00 0.  1.
         11    1    1    2    0    0 -0.18389869611E+02  0.45057640059E+00  0.46456606443E+02  0.49966054533E+02  0.00000000000E+00 0. -1.
</event>
<event>
 7    1  0.2943257E-009  0.1389422E+03  0.7561462E-02  0.1214759E+00
          2   -1    0    0  501    0  0.00000000000E+00  0.00000000000E+00  0.96492318100E+03  0.96492318100E+03  0.00000000000E+00 0. -1.
         -2   -1    0    0    0  501 -0.00000000000E+00 -0.00000000000E+00 -0.29862906176E+02  0.29862906176E+02  0.00000000000E+00 0.  1.
         25    2    1    2    0    0 -0.12122872548E+03  0.48151085463E+02  0.48794782069E+03  0.52034196527E+03  0.12509098367E+03 0.  0.
          5    1    3    3  502    0 -0.34832518142E+01  0.74316764493E+01 -0.59435033628E+01  0.10961774048E+02  0.41800000000E+01 0. -1.
         -5    1    3    3    0  502 -0.11774547367E+03  0.40719409014E+02  0.49389132405E+03  0.50938019123E+03  0.41800000000E+01 0. -1.
        -11    1    1    2    0    0  0.11016162209E+03 -0.61903885428E+02  0.43513475605E+03  0.45311138800E+03  0.00000000000E+00 0. -1.
         11    1    1    2    0    0  0.11067103392E+02  0.13752799965E+02  0.11977698088E+02  0.21332733905E+02  0.00000000000E+00 0.  1.
</event>
<event>
 7    1  0.2943257E-009  0.1000101E+03  0.7561462E-02  0.1280275E+00
         -1   -1    0    0    0  501 -0.00000000000E+00  0.00000000000E+00  0.64450640681E+02  0.64450640681E+02  0.00000000000E+00 0.  1.
          1   -1    0    0  501    0  0.00000000000E+00 -0.00000000000E+00 -0.67215615713E+03  0.67215615713E+03  0.00000000000E+00 0. -1.
         25    2    1    2    0    0 -0.46743600601E+02  0.11131507332E+02 -0.61827463039E+03  0.63262959141E+03  0.12509119350E+03 0.  0.
          5    1    3    3  502    0 -0.57786875611E+02  0.37586442126E+02 -0.17102462772E+03  0.18444229263E+03  0.41800000000E+01 0.  1.
         -5    1    3    3    0  502  0.11043275010E+02 -0.26454934794E+02 -0.44725000267E+03  0.44818729878E+03  0.41800000000E+01 0.  1.
        -11    1    1    2    0    0  0.44530435131E+02 -0.47756239526E+02 -0.16127033602E+01  0.65316298722E+02  0.00000000000E+00 0. -1.
         11    1    1    2    0    0  0.22131654698E+01  0.36624732194E+02  0.12181817301E+02  0.38660907678E+02  0.00000000000E+00 0.  1.
</event>
<event>
 7    1  0.2943257E-009  0.1406089E+03  0.7561462E-02  0.1212512E+00
         -2   -1    0    0    0  501 -0.00000000000E+00  0.00000000000E+00  0.60472079297E+03  0.60472079297E+03  0.00000000000E+00 0.  1.
          2   -1    0    0  501    0  0.00000000000E+00 -0.00000000000E+00 -0.79787104517E+02  0.79787104517E+02  0.00000000000E+00 0. -1.
         25    2    1    2    0    0 -0.46413258887E+02  0.83722161150E+02  0.15705698406E+02  0.15829391652E+03  0.12508678657E+03 0.  0.
          5    1    3    3  502    0  0.43933588850E+01 -0.27806806783E+02 -0.14586171721E+02  0.31980445764E+02  0.41800000000E+01 0. -1.
         -5    1    3    3    0  502 -0.50806617772E+02  0.11152896793E+03  0.30291870127E+02  0.12631347075E+03  0.41800000000E+01 0. -1.
        -11    1    1    2    0    0 -0.23771959713E+02 -0.42603191035E+02  0.14409206872E+03  0.15212712520E+03  0.00000000000E+00 0. -1.
         11    1    1    2    0    0  0.70185218600E+02 -0.41118970114E+02  0.36513592133E+03  0.37408685577E+03  0.00000000000E+00 0.  1.
</event>
<event>
 7    1  0.2943257E-009  0.1560447E+03  0.7561462E-02  0.1193236E+00
         -1   -1    0    0    0  501 -0.00000000000E+00  0.00000000000E+00  0.83408502216E+02  0.83408502216E+02  0.00000000000E+00 0.  1.
          1   -1    0    0  501    0  0.00000000000E+00 -0.00000000000E+00 -0.31919757683E+03  0.31919757683E+03  0.00000000000E+00 0. -1.
         25    2    1    2    0    0 -0.20302393774E+02  0.11230294849E+03 -0.16728214830E+03  0.23802400391E+03  0.12509184573E+03 0.  0.
          5    1    3    3  502    0  0.29763705511E+02  0.11341077241E+03 -0.10075964403E+03  0.15465400005E+03  0.41800000000E+01 0. -1.
         -5    1    3    3    0  502 -0.50066099284E+02 -0.11078239252E+01 -0.66522504264E+02  0.83370003868E+02  0.41800000000E+01 0. -1.
        -11    1    1    2    0    0  0.35503218094E+02 -0.46687807303E+01 -0.36806778235E+02  0.51351873701E+02  0.00000000000E+00 0.  1.
         11    1    1    2    0    0 -0.15200824320E+02 -0.10763416776E+03 -0.31700148084E+02  0.11323020143E+03  0.00000000000E+00 0. -1.
</event>
<event>
 7    1  0.2943257E-009  0.1020451E+03  0.7561462E-02  0.1276053E+00
          2   -1    0    0  501    0  0.00000000000E+00  0.00000000000E+00  0.10340401441E+03  0.10340401441E+03  0.00000000000E+00 0. -1.
         -2   -1    0    0    0  501 -0.00000000000E+00 -0.00000000000E+00 -0.15889874351E+03  0.15889874351E+03  0.00000000000E+00 0.  1.
         25    2    1    2    0    0  0.17143587861E+02  0.39177009683E+02 -0.88556440486E+02  0.15911636722E+03  0.12508810684E+03 0.  0.
          5    1    3    3  502    0 -0.13048182196E+02 -0.42145251636E+02 -0.39542694087E+02  0.59393386414E+02  0.41800000000E+01 0.  1.
         -5    1    3    3    0  502  0.30191770057E+02  0.81322261319E+02 -0.49013746398E+02  0.99722980808E+02  0.41800000000E+01 0.  1.
        -11    1    1    2    0    0  0.19113211266E+01 -0.50649264041E+02  0.52986467583E+02  0.73325076497E+02  0.00000000000E+00 0. -1.
         11    1    1    2    0    0 -0.19054908987E+02  0.11472254358E+02 -0.19924756196E+02  0.29861314205E+02  0.00000000000E+00 0.  1.
</event>
<event>
 7    1  0.2943257E-009  0.1059462E+03  0.7561462E-02  0.1268267E+00
          1   -1    0    0  501    0  0.00000000000E+00  0.00000000000E+00  0.12422327848E+04  0.12422327848E+04  0.00000000000E+00 0. -1.
         -1   -1    0    0    0  501 -0.00000000000E+00 -0.00000000000E+00 -0.13507433945E+02  0.13507433945E+02  0.00000000000E+00 0.  1.
         25    2    1    2    0    0  0.32662919783E+02  0.41962173826E+02  0.88258770542E+03  0.89299279265E+03  0.12508948643E+03 0.  0.
          5    1    3    3  502    0 -0.29193632162E+02  0.40664219501E+02  0.66058184218E+03  0.66248901087E+03  0.41800000000E+01 0.  1.
         -5    1    3    3    0  502  0.61856551945E+02  0.12979543249E+01  0.22200586324E+03  0.23050378178E+03  0.41800000000E+01 0.  1.
        -11    1    1    2    0    0  0.21668244519E+02 -0.39750028941E+02  0.88198511934E+02  0.99139069638E+02  0.00000000000E+00 0.  1.
         11    1    1    2    0    0 -0.54331164302E+02 -0.22121448845E+01  0.25793913347E+03  0.26360835642E+03  0.00000000000E+00 0. -1.
</event>
<event>
 7    1  0.2943257E-009  0.7972950E+02  0.7561462E-02  0.1329821E+00
         -2   -1    0    0    0  501 -0.00000000000E+00  0.00000000000E+00  0.35591386647E+03  0.35591386647E+03  0.00000000000E+00 0.  1.
          2   -1    0    0  501    0  0.00000000000E+00 -0.00000000000E+00 -0.34158750970E+02  0.34158750970E+02  0.00000000000E+00 0. -1.
         25    2    1    2    0    0 -0.18143857339E+02  0.36103375563E+01  0.14698715982E+03  0.19389485183E+03  0.12509098415E+03 0.  0.
          5    1    3    3  502    0  0.40811225617E+02 -0.18285213979E+02  0.11448308453E+03  0.12297867389E+03  0.41800000000E+01 0. -1.
         -5    1    3    3    0  502 -0.58955082956E+02  0.21895551535E+02  0.32504075286E+02  0.70916177940E+02  0.41800000000E+01 0. -1.
        -11    1    1    2    0    0  0.31591388107E+02 -0.13967699653E+02  0.17581087891E+03  0.17917192185E+03  0.00000000000E+00 0.  1.
         11    1    1    2    0    0 -0.13447530768E+02  0.10357362097E+02 -0.10429232285E+01  0.17005843767E+02  0.00000000000E+00 0. -1.
</event>
<event>
 7    1  0.2943257E-009  0.9573837E+02  0.7561462E-02  0.1289522E+00
          1   -1    0    0  501    0  0.00000000000E+00  0.00000000000E+00  0.22814023002E+04  0.22814023002E+04  0.00000000000E+00 0. -1.
         -1   -1    0    0    0  501 -0.00000000000E+00 -0.00000000000E+00 -0.18844467816E+02  0.18844467816E+02  0.00000000000E+00 0.  1.
         25    2    1    2    0    0  0.41455659318E+01  0.53881908702E+02  0.21079912731E+04  0.21123908028E+04  0.12508896895E+03 0.  0.
          5    1    3    3  502    0 -0.22314124511E+02  0.55040002335E+02  0.42127417466E+03  0.42546060293E+03  0.41800000000E+01 0.  1.
         -5    1    3    3    0  502  0.26459690443E+02 -0.11580936331E+01  0.16867170985E+04  0.16869301998E+04  0.41800000000E+01 0.  1.
        -11    1    1    2    0    0  0.19767651584E+02 -0.72292486810E+02  0.94299034850E+02  0.12045443816E+03  0.00000000000E+00 0.  1.
         11    1    1    2    0    0 -0.23913217515E+02  0.18410578107E+02  0.60267524376E+02  0.67401527079E+02  0.00000000000E+00 0. -1.
</event>
<event>
 7    1  0.2983768E-009  0.1104837E+03  0.7561462E-02  0.1259677E+00
         -4   -1    0    0    0  501 -0.00000000000E+00  0.00000000000E+00  0.60705886696E+02  0.60705886696E+02  0.00000000000E+00 0.  1.
          4   -1    0    0  501    0  0.00000000000E+00 -0.00000000000E+00 -0.36357200759E+03  0.36357200759E+03  0.00000000000E+00 0. -1.
         25    2    1    2    0    0 -0.40735040121E+02  0.27812756448E+02 -0.37792006350E+02  0.13966922904E+03  0.12508543034E+03 0.  0.
          5    1    3    3  502    0 -0.76886053031E+02 -0.11898700423E+02 -0.35861197599E+02  0.85770286905E+02  0.41800000000E+01 0. -1.
         -5    1    3    3    0  502  0.36151012910E+02  0.39711456871E+02 -0.19308087511E+01  0.53898942139E+02  0.41800000000E+01 0. -1.
        -11    1    1    2    0    0  0.55054870483E+02  0.30782684385E+01 -0.22668695688E+03  0.23329700153E+03  0.00000000000E+00 0. -1.
         11    1    1    2    0    0 -0.14319830361E+02 -0.30891024886E+02 -0.38387157666E+02  0.51311663721E+02  0.00000000000E+00 0.  1.
</event>
<event>
 7    1  0.2943257E-009  0.9061032E+02  0.7561462E-02  0.1301380E+00
          1   -1    0    0  501    0  0.00000000000E+00  0.00000000000E+00  0.25318906341E+02  0.25318906341E+02  0.00000000000E+00 0. -1.
         -1   -1    0    0    0  501 -0.00000000000E+00 -0.00000000000E+00 -0.58638478557E+03  0.58638478557E+03  0.00000000000E+00 0.  1.
         25    2    1    2    0    0  0.82084017321E+01  0.19194746549E+02 -0.45144565908E+03  0.46891936079E+03  0.12508544147E+03 0.  0.
          5    1    3    3  502    0  0.26013901959E+02  0.62193920311E+02 -0.35940251858E+03  0.36569447573E+03  0.41800000000E+01 0. -1.
         -5    1    3    3    0  502 -0.17805500226E+02 -0.42999173762E+02 -0.92043140498E+02  0.10322488506E+03  0.41800000000E+01 0. -1.
        -11    1    1    2    0    0 -0.37418713707E-01  0.23489459865E+02 -0.93542180950E+02  0.96446336073E+02  0.00000000000E+00 0.  1.
         11    1    1    2    0    0 -0.81709830184E+01 -0.42684206414E+02 -0.16078039200E+02  0.46337995050E+02  0.00000000000E+00 0. -1.
</event>
<event>
 7    1  0.2943257E-009  0.4122716E+03  0.7561462E-02  0.1039611E+00
          1   -1    0    0  501    0  0.00000000000E+00  0.00000000000E+00  0.29017514445E+03  0.29017514445E+03  0.00000000000E+00 0. -1.
         -1   -1    0    0    0  501 -0.00000000000E+00 -0.00000000000E+00 -0.59293723883E+03  0.59293723883E+03  0.00000000000E+00 0.  1.
         25    2    1    2    0    0 -0.34016367719E+03 -0.21080104164E+03 -0.16601512557E+03  0.45096057515E+03  0.12512398646E+03 0.  0.
          5    1    3    3  502    0  0.53451996431E+01  0.41710036380E+01 -0.14835320201E+02  0.16838276517E+02  0.41800000000E+01 0.  1.
         -5    1    3    3    0  502 -0.34550887683E+03 -0.21497204527E+03 -0.15117980536E+03  0.43412229863E+03  0.41800000000E+01 0.  1.
        -11    1    1    2    0    0  0.13248408864E+03  0.33729382314E+02 -0.37677204414E+02  0.14180718144E+03  0.00000000000E+00 0. -1.
         11    1    1    2    0    0  0.20767958855E+03  0.17707165932E+03 -0.99069764398E+02  0.29034462670E+03  0.00000000000E+00 0.  1.
</event>
<event>
 6    1  0.2943257E-009  0.1245098E+03  0.7561462E-02  0.1235837E+00
         -1   -1    0    0    0  501 -0.00000000000E+00  0.00000000000E+00  0.16467339406E+03  0.16467339406E+03  0.00000000000E+00 0.  1.
          1   -1    0    0  501    0  0.00000000000E+00 -0.00000000000E+00 -0.10719099228E+03  0.10719099228E+03  0.00000000000E+00 0. -1.
          5    1    1    2  502    0 -0.68096882341E+02 -0.38861316743E+02  0.20410996520E+02  0.81126250391E+02  0.41800000000E+01 0. -1.
         -5    1    1    2    0  502  0.56619497831E+02 -0.37893092395E+02  0.55546521280E+01  0.68483432640E+02  0.41800000000E+01 0. -1.
        -11    1    1    2    0    0 -0.10380651151E+02 -0.90061968784E+01  0.30824882509E+02  0.33749709365E+02  0.00000000000E+00 0.  1.
         11    1    1    2    0    0  0.21858035661E+02  0.85760606017E+02  0.69187062232E+00  0.88504993939E+02  0.00000000000E+00 0. -1.
</event>
<event>
 7    1  0.2943257E-009  0.9386267E+02  0.7561462E-02  0.1293758E+00
         -1   -1    0    0    0  501 -0.00000000000E+00  0.00000000000E+00  0.17295569388E+03  0.17295569388E+03  0.00000000000E+00 0.  1.
          1   -1    0    0  501    0  0.00000000000E+00 -0.00000000000E+00 -0.70346208005E+02  0.70346208005E+02  0.00000000000E+00 0. -1.
         25    2    1    2    0    0  0.29720892065E+01 -0.52836994460E+01  0.44972708206E+02  0.13306551183E+03  0.12508850930E+03 0.  0.
          5    1    3    3  502    0 -0.59626189500E+02 -0.36000250739E+01  0.85117136119E+01  0.60482760547E+02  0.41800000000E+01 0.  1.
         -5    1    3    3    0  502  0.62598278706E+02 -0.16836743721E+01  0.36460994594E+02  0.72582751278E+02  0.41800000000E+01 0.  1.
        -11    1    1    2    0    0 -0.76069309802E+01 -0.29259145795E+02  0.67545827802E+02  0.74002715255E+02  0.00000000000E+00 0.  1.
         11    1    1    2    0    0  0.46348417737E+01  0.34542845241E+02 -0.99090501294E+01  0.36233674808E+02  0.00000000000E+00 0. -1.
</event>
<event>
 7    1  0.2943257E-009  0.1141141E+03  0.7561462E-02  0.1253135E+00
         -1   -1    0    0    0  501 -0.00000000000E+00  0.00000000000E+00  0.95654971502E+02  0.95654971502E+02  0.00000000000E+00 0.  1.
          1   -1    0    0  501    0  0.00000000000E+00 -0.00000000000E+00 -0.14578249558E+03  0.14578249558E+03  0.00000000000E+00 0. -1.
         25    2    1    2    0    0  0.97186295547E+01 -0.37658031444E+02 -0.33168991071E+02  0.13513109771E+03  0.12509057721E+03 0.  0.
          5    1    3    3  502    0  0.42349246299E+02 -0.71281434591E+02 -0.28872134350E+02  0.87895245158E+02  0.41800000000E+01 0.  1.
         -5    1    3    3    0  502 -0.32630616744E+02  0.33623403148E+02 -0.42968567205E+01  0.47235852549E+02  0.41800000000E+01 0.  1.
        -11    1    1    2    0    0  0.36130173465E+02 -0.38355098431E+01 -0.24776551218E+02  0.43977017413E+02  0.00000000000E+00 0.  1.
         11    1    1    2    0    0 -0.45848803019E+02  0.41493541287E+02  0.78180182124E+01  0.62329351959E+02  0.00000000000E+00 0. -1.
</event>
<event>
 7    1  0.2943257E-009  0.1360153E+03  0.7561462E-02  0.1218794E+00
         -2   -1    0    0    0  501 -0.00000000000E+00  0.00000000000E+00  0.38835713388E+02  0.38835713388E+02  0.00000000000E+00 0.  1.
          2   -1    0    0  501    0  0.00000000000E+00 -0.00000000000E+00 -0.51959491653E+03  0.51959491653E+03  0.00000000000E+00 0. -1.
         25    2    1    2    0    0  0.87888924875E+02  0.75060494153E+01 -0.20820310194E+03  0.25841969592E+03  0.12510557018E+03 0.  0.
          5    1    3    3  502    0  0.63878925471E+02 -0.53933839079E+02 -0.14221709191E+03  0.16502287644E+03  0.41800000000E+01 0.  1.
         -5    1    3    3    0  502  0.24009999404E+02  0.61439888495E+02 -0.65986010027E+02  0.93396819480E+02  0.41800000000E+01 0.  1.
        -11    1    1    2    0    0 -0.10475211846E+03 -0.31028002632E+01 -0.25282692262E+03  0.27368610942E+03  0.00000000000E+00 0.  1.
         11    1    1    2    0    0  0.16863193587E+02 -0.44032491521E+01 -0.19729178583E+02  0.26324824570E+02  0.00000000000E+00 0. -1.
</event>
<event>
 7    1  0.2943257E-009  0.1145783E+03  0.7561462E-02  0.1252319E+00
          1   -1    0    0  501    0  0.00000000000E+00  0.00000000000E+00  0.23202666139E+03  0.23202666139E+03  0.00000000000E+00 0. -1.
         -1   -1    0    0    0  501 -0.00000000000E+00 -0.00000000000E+00 -0.86835192824E+02  0.86835192824E+02  0.00000000000E+00 0.  1.
         25    2    1    2    0    0 -0.66511268468E+02  0.46094267495E+02  0.12666343477E+03  0.19555316670E+03  0.12509590309E+03 0.  0.
          5    1    3    3  502    0 -0.28396802648E+02  0.61519883687E+02  0.61669485570E+01  0.68165813602E+02  0.41800000000E+01 0.  1.
         -5    1    3    3    0  502 -0.38114465820E+02 -0.15425616192E+02  0.12049648621E+03  0.12738735309E+03  0.41800000000E+01 0.  1.
        -11    1    1    2    0    0  0.88202603215E+01  0.26086800006E+02  0.13756193716E+02  0.30782316226E+02  0.00000000000E+00 0. -1.
         11    1    1    2    0    0  0.57691008146E+02 -0.72181067501E+02  0.47718400847E+01  0.92526371292E+02  0.00000000000E+00 0.  1.
</event>
<event>
 7    1  0.2943257E-009  0.1380290E+03  0.7561462E-02  0.1216006E+00
          1   -1    0    0  501    0  0.00000000000E+00  0.00000000000E+00  0.86685491208E+03  0.86685491208E+03  0.00000000000E+00 0. -1.
         -1   -1    0    0    0  501 -0.00000000000E+00 -0.00000000000E+00 -0.37959770266E+02  0.37959770266E+02  0.00000000000E+00 0.  1.
         25    2    1    2    0    0  0.66315738627E+02  0.94813607705E+02  0.65450176490E+03  0.67631244158E+03  0.12505423217E+03 0.  0.
          5    1    3    3  502    0  0.96722978570E+02  0.78167704142E+02  0.58987861019E+03  0.60285966170E+03  0.41800000000E+01 0.  1.
         -5    1    3    3    0  502 -0.30407239943E+02  0.16645903563E+02  0.64623154713E+02  0.73452779876E+02  0.41800000000E+01 0.  1.
        -11    1    1    2    0    0 -0.41328871974E+02 -0.45766071210E+02  0.20377108958E+02  0.64944865094E+02  0.00000000000E+00 0. -1.
         11    1    1    2    0    0 -0.24986866652E+02 -0.49047536496E+02  0.15401626796E+03  0.16355737568E+03  0.00000000000E+00 0.  1.
</event>
<event>
 7    1  0.2943257E-009  0.2265785E+03  0.7561462E-02  0.1129071E+00
          1   -1    0    0  501    0  0.00000000000E+00  0.00000000000E+00  0.63555797224E+03  0.63555797224E+03  0.00000000000E+00 0. -1.
         -1   -1    0    0    0  501 -0.00000000000E+00 -0.00000000000E+00 -0.89028885466E+02  0.89028885466E+02  0.00000000000E+00 0.  1.
         25    2    1    2    0    0 -0.87986824425E+02 -0.18329931171E+03  0.19794965963E+03  0.31011582905E+03  0.12508973072E+03 0.  0.
          5    1    3    3  502    0 -0.11926619147E+03 -0.15926997705E+03  0.16300564079E+03  0.25725407936E+03  0.41800000000E+01 0.  1.
         -5    1    3    3    0  502  0.31279367047E+02 -0.24029334660E+02  0.34944018834E+02  0.52861749681E+02  0.41800000000E+01 0.  1.
        -11    1    1    2    0    0  0.42870395714E+02  0.15590259095E+03  0.20240421847E+03  0.25905782433E+03  0.00000000000E+00 0.  1.
         11    1    1    2    0    0  0.45116428710E+02  0.27396720769E+02  0.14617520868E+03  0.15541320433E+03  0.00000000000E+00 0. -1.
</event>
<event>
 7    1  0.2943257E-009  0.1565478E+03  0.7561462E-02  0.1192650E+00
          1   -1    0    0  501    0  0.00000000000E+00  0.00000000000E+00  0.75949561511E+02  0.75949561511E+02  0.00000000000E+00 0. -1.
         -1   -1    0    0    0  501 -0.00000000000E+00 -0.00000000000E+00 -0.38488513663E+03  0.38488513663E+03  0.00000000000E+00 0.  1.
         25    2    1    2    0    0 -0.22069263967E+02  0.12892034305E+03 -0.14398060523E+03  0.23126795947E+03  0.12508775772E+03 0.  0.
          5    1    3    3  502    0  0.31372842105E+02  0.66893014193E+02 -0.10671787300E+02  0.74768242013E+02  0.41800000000E+01 0.  1.
         -5    1    3    3    0  502 -0.53442106071E+02  0.62027328858E+02 -0.13330881793E+03  0.15649971745E+03  0.41800000000E+01 0.  1.
        -11    1    1    2    0    0 -0.33638597928E+02 -0.41073037840E+02 -0.75938465567E+02  0.92656355749E+02  0.00000000000E+00 0.  1.
         11    1    1    2    0    0  0.55707861895E+02 -0.87847305211E+02 -0.89016504322E+02  0.13691038292E+03  0.00000000000E+00 0. -1.
</event>
<event>
 7    1  0.2943257E-009  0.1227922E+03  0.7561462E-02  0.1238561E+00
         -2   -1    0    0    0  501 -0.00000000000E+00  0.00000000000E+00  0.40096792132E+02  0.40096792132E+02  0.00000000000E+00 0.  1.
          2   -1    0    0  501    0  0.00000000000E+00 -0.00000000000E+00 -0.48494526648E+03  0.48494526648E+03  0.00000000000E+00 0. -1.
         25    2    1    2    0    0 -0.57762310650E+02 -0.66040401487E+02 -0.24997661576E+03  0.29297350284E+03  0.12508935118E+03 0.  0.
          5    1    3    3  502    0  0.91032216510E+01  0.31962061744E+02 -0.44935528689E+02  0.56045661508E+02  0.41800000000E+01 0. -1.
         -5    1    3    3    0  502 -0.66865532301E+02 -0.98002463232E+02 -0.20504108707E+03  0.23692784133E+03  0.41800000000E+01 0. -1.
        -11    1    1    2    0    0  0.30386173848E+02  0.56915265755E+02 -0.19260358198E+03  0.20312263988E+03  0.00000000000E+00 0.  1.
         11    1    1    2    0    0  0.27376136802E+02  0.91251357323E+01 -0.22682766001E+01  0.28945915896E+02  0.00000000000E+00 0. -1.
</event>
<event>
 7    1  0.2943257E-009  0.1441795E+03  0.7561462E-02  0.1207813E+00
          2   -1    0    0  501    0  0.00000000000E+00  0.00000000000E+00  0.16321682311E+04  0.16321682311E+04  0.00000000000E+00 0. -1.
         -2   -1    0    0    0  501 -0.00000000000E+00 -0.00000000000E+00 -0.13017389871E+02  0.13017389871E+02  0.00000000000E+00 0.  1.
         25    2    1    2    0    0 -0.85773495633E+02  0.42437192477E+02  0.97746284437E+03  0.99007084034E+03  0.12509455988E+03 0.  0.
          5    1    3    3  502    0 -0.10719618974E+03  0.65088367030E+02  0.81308539504E+03  0.82271067250E+03  0.41800000000E+01 0.  1.
         -5    1    3    3    0  502  0.21422694108E+02 -0.22651174553E+02  0.16437744933E+03  0.16736016784E+03  0.41800000000E+01 0.  1.
        -11    1    1    2    0    0  0.13111051711E+02 -0.55993294429E+02  0.31021281305E+03  0.31549823783E+03  0.00000000000E+00 0. -1.
         11    1    1    2    0    0  0.72662443922E+02  0.13556101952E+02  0.33147518380E+03  0.33961654278E+03  0.00000000000E+00 0.  1.
</event>
<event>
 7    1  0.2943257E-009  0.9497529E+02  0.7561462E-02  0.1291232E+00
          2   -1    0    0  501    0  0.00000000000E+00  0.00000000000E+00  0.27539885038E+03  0.27539885038E+03  0.00000000000E+00 0.  1.
         -2   -1    0    0    0  501 -0.00000000000E+00 -0.00000000000E+00 -0.43248481952E+02  0.43248481952E+02  0.00000000000E+00 0. -1.
         25    2    1    2    0    0 -0.18715317610E+01 -0.12661675106E+02  0.14031161189E+03  0.18841153368E+03  0.12509091471E+03 0.  0.
          5    1    3    3  502    0  0.15400135349E+02 -0.52429316333E+02  0.13351756598E+03  0.14432744093E+03  0.41800000000E+01 0.  1.
         -5    1    3    3    0  502 -0.17271667110E+02  0.39767641227E+02  0.67940459119E+01  0.44084092748E+02  0.41800000000E+01 0.  1.
        -11    1    1    2    0    0  0.34231668576E+02 -0.24662156101E+02  0.50635187753E+02  0.65908658884E+02  0.00000000000E+00 0.  1.
         11    1    1    2    0    0 -0.32360136815E+02  0.37323831207E+02  0.41203568781E+02  0.64327139770E+02  0.00000000000E+00 0. -1.
</event>
<event>
 7    1  0.2943257E-009  0.1089433E+03  0.7561462E-02  0.1262539E+00
          1   -1    0    0  501    0  0.00000000000E+00  0.00000000000E+00  0.11658850296E+03  0.11658850296E+03  0.00000000000E+00 0. -1.
         -1   -1    0    0    0  501 -0.00000000000E+00 -0.00000000000E+00 -0.20243932106E+03  0.20243932106E+03  0.00000000000E+00 0.  1.
         25    2    1    2    0    0  0.61143638581E+02 -0.66794644590E+02  0.16203983747E+02  0.15527662567E+03  0.12509273482E+03 0.  0.
          5    1    3    3  502    0  0.30862540078E+02 -0.42995150715E+02 -0.53600477049E+02  0.75442447634E+02  0.41800000000E+01 0.  1.
         -5    1    3    3    0  502  0.30281098502E+02 -0.23799493875E+02  0.69804460795E+02  0.79834178032E+02  0.41800000000E+01 0.  1.
        -11    1    1    2    0    0 -0.26524737701E+02  0.83504026270E+02 -0.83635943936E+02  0.12112578269E+03  0.00000000000E+00 0.  1.
         11    1    1    2    0    0 -0.34618900880E+02 -0.16709381680E+02 -0.18418857910E+02  0.42625415669E+02  0.00000000000E+00 0. -1.
</event>
<event>
 7    1  0.2943257E-009  0.1107825E+03  0.7561462E-02  0.1259128E+00
          2   -1    0    0  501    0  0.00000000000E+00  0.00000000000E+00  0.55513850450E+03  0.55513850450E+03  0.00000000000E+00 0. -1.
         -2   -1    0    0    0  501 -0.00000000000E+00 -0.00000000000E+00 -0.32274404711E+02  0.32274404711E+02  0.00000000000E+00 0.  1.
         25    2    1    2    0    0 -0.55288979107E+02  0.27279089953E+02  0.17976937268E+03  0.22751849103E+03  0.12508643591E+03 0.  0.
          5    1    3    3  502    0  0.14730575355E+02  0.40663632553E+02  0.13824629663E+03  0.14491387716E+03  0.41800000000E+01 0. -1.
         -5    1    3    3    0  502 -0.70019554462E+02 -0.13384542600E+02  0.41523076054E+02  0.82604613870E+02  0.41800000000E+01 0. -1.
        -11    1    1    2    0    0  0.37745120674E+02  0.29098855091E+02  0.11998405842E+03  0.12910310522E+03  0.00000000000E+00 0.  1.
         11    1    1    2    0    0  0.17543858433E+02 -0.56377945043E+02  0.22311066869E+03  0.23079131297E+03  0.00000000000E+00 0. -1.
</event>
<event>
 7    1  0.2943257E-009  0.1156384E+03  0.7561462E-02  0.1250471E+00
          2   -1    0    0  501    0  0.00000000000E+00  0.00000000000E+00  0.19632334221E+03  0.19632334221E+03  0.00000000000E+00 0. -1.
         -2   -1    0    0    0  501 -0.00000000000E+00 -0.00000000000E+00 -0.92255252684E+02  0.92255252684E+02  0.00000000000E+00 0.  1.
         25    2    1    2    0    0 -0.28852283914E+02  0.59503710316E+02  0.10696949471E+03  0.17737433272E+03  0.12508411283E+03 0.  0.
          5    1    3    3  502    0  0.13069379477E+02 -0.34107057174E+02  0.42321881015E+02  0.56059914749E+02  0.41800000000E+01 0.  1.
         -5    1    3    3    0  502 -0.41921663392E+02  0.93610767490E+02  0.64647613698E+02  0.12131441797E+03  0.41800000000E+01 0.  1.
        -11    1    1    2    0    0  0.39127871459E+02 -0.87746376009E+01  0.29817496333E+02  0.49970668171E+02  0.00000000000E+00 0. -1.
         11    1    1    2    0    0 -0.10275587544E+02 -0.50729072715E+02 -0.32718901517E+02  0.61233594002E+02  0.00000000000E+00 0.  1.
</event>
<event>
 7    1  0.2943257E-009  0.1021516E+03  0.7561462E-02  0.1275835E+00
          1   -1    0    0  501    0  0.00000000000E+00  0.00000000000E+00  0.70168922209E+03  0.70168922209E+03  0.00000000000E+00 0. -1.
         -1   -1    0    0    0  501 -0.00000000000E+00 -0.00000000000E+00 -0.26538246950E+02  0.26538246950E+02  0.00000000000E+00 0.  1.
         25    2    1    2    0    0 -0.77489586566E+02 -0.93468184563E+01  0.44141377449E+03  0.46538662322E+03  0.12508632909E+03 0.  0.
          5    1    3    3  502    0 -0.57674559985E+02 -0.39443751686E+02  0.10007422163E+03  0.12212488138E+03  0.41800000000E+01 0. -1.
         -5    1    3    3    0  502 -0.19815026580E+02  0.30096933230E+02  0.34133955286E+03  0.34326174184E+03  0.41800000000E+01 0. -1.
        -11    1    1    2    0    0  0.58963738967E+02  0.33324605316E+02  0.21882978902E+03  0.22907144823E+03  0.00000000000E+00 0. -1.
         11    1    1    2    0    0  0.18525847599E+02 -0.23977786860E+02  0.14907411635E+02  0.33769397590E+02  0.00000000000E+00 0.  1.
</event>
<event>
 7    1  0.2943257E-009  0.1152023E+03  0.7561462E-02  0.1251228E+00
         -1   -1    0    0    0  501 -0.00000000000E+00  0.00000000000E+00  0.64195990201E+02  0.64195990201E+02  0.00000000000E+00 0.  1.
          1   -1    0    0  501    0  0.00000000000E+00 -0.00000000000E+00 -0.32982608567E+03  0.32982608567E+03  0.00000000000E+00 0. -1.
         25    2    1    2    0    0 -0.21635654016E+02  0.48015774866E+02 -0.34520658638E+02  0.14004518231E+03  0.12508941224E+03 0.  0.
          5    1    3    3  502    0 -0.87864364566E+01  0.85543353569E+02  0.17801559144E+01  0.86113344846E+02  0.41800000000E+01 0.  1.
         -5    1    3    3    0  502 -0.12849217560E+02 -0.37527578703E+02 -0.36300814553E+02  0.53931837465E+02  0.41800000000E+01 0.  1.
        -11    1    1    2    0    0 -0.22266150876E+02 -0.55580789164E+02 -0.14859868363E+03  0.16020790984E+03  0.00000000000E+00 0.  1.
         11    1    1    2    0    0  0.43901804892E+02  0.75650142975E+01 -0.82510753209E+02  0.93768983727E+02  0.00000000000E+00 0. -1.
</event>
<event>
 7    1  0.2943257E-009  0.7303623E+02  0.7561462E-02  0.1350062E+00
          1   -1    0    0  501    0  0.00000000000E+00  0.00000000000E+00  0.25581833973E+03  0.25581833973E+03  0.00000000000E+00 0. -1.
         -1   -1    0    0    0  501 -0.00000000000E+00 -0.00000000000E+00 -0.50130300659E+02  0.50130300659E+02  0.00000000000E+00 0.  1.
         25    2    1    2    0    0  0.13737999738E+02 -0.20210075661E+02  0.84611509949E+02  0.15298120881E+03  0.12508782050E+03 0.  0.
          5    1    3    3  502    0  0.36416418715E+02  0.11817825938E+02 -0.18389129551E+02  0.42678437736E+02  0.41800000000E+01 0. -1.
         -5    1    3    3    0  502 -0.22678418978E+02 -0.32027901598E+02  0.10300063950E+03  0.11030277107E+03  0.41800000000E+01 0. -1.
        -11    1    1    2    0    0 -0.18137307723E+02 -0.20370325339E+02  0.22984421639E+01  0.27371425288E+02  0.00000000000E+00 0.  1.
         11    1    1    2    0    0  0.43993079859E+01  0.40580401000E+02  0.11877808696E+03  0.12559600630E+03  0.00000000000E+00 0. -1.
</event>
<event>
 7    1  0.2943257E-009  0.1300078E+03  0.7561462E-02  0.1227444E+00
          2   -1    0    0  501    0  0.00000000000E+00  0.00000000000E+00  0.49458892434E+03  0.49458892434E+03  0.00000000000E+00 0. -1.
         -2   -1    0    0    0  501 -0.00000000000E+00 -0.00000000000E+00 -0.72086821076E+02  0.72086821076E+02  0.00000000000E+00 0.  1.
         25    2    1    2    0    0  0.97787605687E+02 -0.12660584156E+02  0.40046515539E+03  0.43097914172E+03  0.12509186105E+03 0.  0.
          5    1    3    3  502    0  0.62139070425E+02 -0.45771019630E+02  0.35805328724E+03  0.36630025828E+03  0.41800000000E+01 0.  1.
         -5    1    3    3    0  502  0.35648535262E+02  0.33110435474E+02  0.42411868152E+02  0.64678883446E+02  0.41800000000E+01 0.  1.
        -11    1    1    2    0    0 -0.46725812532E+02 -0.39290633353E+02  0.10391880348E+02  0.61927753094E+02  0.00000000000E+00 0. -1.
         11    1    1    2    0    0 -0.51061793156E+02  0.51951217510E+02  0.11645067524E+02  0.73768850599E+02  0.00000000000E+00 0.  1.
</event>
<event>
 7    1  0.2943257E-009  0.1017312E+03  0.7561462E-02  0.1276697E+00
          2   -1    0    0  501    0  0.00000000000E+00  0.00000000000E+00  0.62635175791E+02  0.62635175791E+02  0.00000000000E+00 0. -1.
         -2   -1    0    0    0  501 -0.00000000000E+00 -0.00000000000E+00 -0.23048826208E+03  0.23048826208E+03  0.00000000000E+00 0.  1.
         25    2    1    2    0    0 -0.36237291504E+02 -0.20929696961E+02 -0.14665070032E+03  0.19723862710E+03  0.12508179166E+03 0.  0.
          5    1    3    3  502    0  0.46493730422E+02 -0.11657255956E+02 -0.61445293654E+02  0.78042008541E+02  0.41800000000E+01 0. -1.
         -5    1    3    3    0  502 -0.82731021925E+02 -0.92724410042E+01 -0.85205406670E+02  0.11919661856E+03  0.41800000000E+01 0. -1.
        -11    1    1    2    0    0 -0.11740347028E+02  0.20950925082E+02 -0.38083753507E+02  0.45023874682E+02  0.00000000000E+00 0.  1.
         11    1    1    2    0    0  0.47977638532E+02 -0.21228121372E-01  0.16881367540E+02  0.50860936088E+02  0.00000000000E+00 0. -1.
</event>
<event>
 7    1  0.2943257E-009  0.9536441E+02  0.7561462E-02  0.1290357E+00
          2   -1    0    0  501    0  0.00000000000E+00  0.00000000000E+00  0.74595157537E+02  0.74595157537E+02  0.00000000000E+00 0. -1.
         -2   -1    0    0    0  501 -0.00000000000E+00 -0.00000000000E+00 -0.23969562888E+03  0.23969562888E+03  0.00000000000E+00 0.  1.
         25    2    1    2    0    0 -0.34710971540E+02 -0.70336975337E+02 -0.77860344430E+02  0.16692004687E+03  0.12509167506E+03 0.  0.
          5    1    3    3  502    0  0.11409135642E+02  0.40427028039E+01  0.27233025417E+02  0.30093552390E+02  0.41800000000E+01 0.  1.
         -5    1    3    3    0  502 -0.46120107182E+02 -0.74379678141E+02 -0.10509336985E+03  0.13682649448E+03  0.41800000000E+01 0.  1.
        -11    1    1    2    0    0  0.41638648977E+02  0.35294149943E+02 -0.96142648087E+02  0.11055705717E+03  0.00000000000E+00 0.  1.
         11    1    1    2    0    0 -0.69276774368E+01  0.35042825394E+02  0.89025211788E+01  0.36813682370E+02  0.00000000000E+00 0. -1.
</event>
<event>
 7    1  0.2943257E-009  0.2195186E+03  0.7561462E-02  0.1134242E+00
          2   -1    0    0  501    0  0.00000000000E+00  0.00000000000E+00  0.86698437717E+03  0.86698437717E+03  0.00000000000E+00 0. -1.
         -2   -1    0    0    0  501 -0.00000000000E+00 -0.00000000000E+00 -0.99737793415E+02  0.99737793415E+02  0.00000000000E+00 0.  1.
         25    2    1    2    0    0  0.25917957637E+01 -0.19856767004E+03  0.79570646451E+02  0.24783259788E+03  0.12511463465E+03 0.  0.
          5    1    3    3  502    0  0.62142699095E+02 -0.76771590371E+02  0.28340491686E+02  0.10284088685E+03  0.41800000000E+01 0. -1.
         -5    1    3    3    0  502 -0.59550903331E+02 -0.12179607967E+03  0.51230154766E+02  0.14499171103E+03  0.41800000000E+01 0. -1.
        -11    1    1    2    0    0 -0.21253746775E+02  0.16293338120E+03  0.60546774976E+03  0.62736767885E+03  0.00000000000E+00 0. -1.
         11    1    1    2    0    0  0.18661951011E+02  0.35634288841E+02  0.82208187539E+02  0.91521893857E+02  0.00000000000E+00 0.  1.
</event>
<event>
 7    1  0.2943257E-009  0.1310369E+03  0.7561462E-02  0.1225925E+00
          1   -1    0    0  501    0  0.00000000000E+00  0.00000000000E+00  0.10862775279E+04  0.10862775279E+04  0.00000000000E+00 0. -1.
         -1   -1    0    0    0  501 -0.00000000000E+00 -0.00000000000E+00 -0.20810270324E+02  0.20810270324E+02  0.00000000000E+00 0.  1.
         25    2    1    2    0    0 -0.35508153053E+02 -0.97949018089E+02  0.59846719419E+03  0.62021380411E+03  0.12508933289E+03 0.  0.
          5    1    3    3  502    0 -0.13199686098E+02  0.17234671538E+02  0.19546178574E+02  0.29509169980E+02  0.41800000000E+01 0.  1.
         -5    1    3    3    0  502 -0.22308466956E+02 -0.11518368963E+03  0.57892101562E+03  0.59070463413E+03  0.41800000000E+01 0.  1.
        -11    1    1    2    0    0 -0.18796451906E+02  0.18836440065E+02  0.32999908242E+02  0.42392358068E+02  0.00000000000E+00 0.  1.
         11    1    1    2    0    0  0.54304604959E+02  0.79112578024E+02  0.43400015515E+03  0.44448163605E+03  0.00000000000E+00 0. -1.
</event>
<event>
 6    1  0.2943257E-009  0.7598448E+02  0.7561462E-02  0.1340849E+00
          2   -1    0    0  501    0  0.00000000000E+00  0.00000000000E+00  0.78228805908E+03  0.78228805908E+03  0.00000000000E+00 0. -1.
         -2   -1    0    0    0  501 -0.00000000000E+00 -0.00000000000E+00 -0.16109448537E+02  0.16109448537E+02  0.00000000000E+00 0.  1.
          5    1    1    2  502    0 -0.22505359494E+02 -0.68831353895E+01  0.36552062957E+03  0.36630134015E+03  0.41800000000E+01 0. -1.
         -5    1    1    2    0  502  0.29033263671E+02 -0.22297157518E+02  0.24062047133E+02  0.44006228480E+02  0.41800000000E+01 0. -1.
        -11    1    1    2    0    0 -0.45310127427E+02  0.51607688704E+01  0.14349143349E+03  0.15056371631E+03  0.00000000000E+00 0.  1.
         11    1    1    2    0    0  0.38782223250E+02  0.24019524037E+02  0.23310450036E+03  0.23752622268E+03  0.00000000000E+00 0. -1.
</event>
<event>
 7    1  0.2943257E-009  0.1632540E+03  0.7561462E-02  0.1185071E+00
          2   -1    0    0  501    0  0.00000000000E+00  0.00000000000E+00  0.18846737670E+04  0.18846737670E+04  0.00000000000E+00 0. -1.
         -2   -1    0    0    0  501 -0.00000000000E+00 -0.00000000000E+00 -0.18752044907E+02  0.18752044907E+02  0.00000000000E+00 0.  1.
         25    2    1    2    0    0  0.13456254854E+03  0.56635992230E+02  0.12085016783E+04  0.12236989347E+04  0.12509221102E+03 0.  0.
          5    1    3    3  502    0 -0.11122126677E+02 -0.71423291331E+01  0.36875931788E+03  0.36901981179E+03  0.41800000000E+01 0.  1.
         -5    1    3    3    0  502  0.14568467522E+03  0.63778321363E+02  0.83974236042E+03  0.85467912292E+03  0.41800000000E+01 0.  1.
        -11    1    1    2    0    0 -0.10739617080E+03 -0.22152132975E+02  0.58382056183E+03  0.59402954718E+03  0.00000000000E+00 0. -1.
         11    1    1    2    0    0 -0.27166377739E+02 -0.34483859255E+02  0.73599481950E+02  0.85697330016E+02  0.00000000000E+00 0.  1.
</event>
<event>
 7    1  0.2943257E-009  0.1041767E+03  0.7561462E-02  0.1271750E+00
          1   -1    0    0  501    0  0.00000000000E+00  0.00000000000E+00  0.79582806147E+03  0.79582806147E+03  0.00000000000E+00 0. -1.
         -1   -1    0    0    0  501 -0.00000000000E+00 -0.00000000000E+00 -0.18538700159E+02  0.18538700159E+02  0.00000000000E+00 0.  1.
         25    2    1    2    0    0 -0.26279008924E+02  0.24094516348E+02  0.54565934986E+03  0.56094337458E+03  0.12506882654E+03 0.  0.
          5    1    3    3  502    0 -0.55756787266E+01  0.69394716548E+02  0.41924677632E+03  0.42500829019E+03  0.41800000000E+01 0. -1.
         -5    1    3    3    0  502 -0.20703330197E+02 -0.45300200200E+02  0.12641257354E+03  0.13593508439E+03  0.41800000000E+01 0. -1.
        -11    1    1    2    0    0 -0.10230995975E+02  0.25250446556E+02  0.22081132735E+02  0.35068999883E+02  0.00000000000E+00 0.  1.
         11    1    1    2    0    0  0.36510004899E+02 -0.49344962905E+02  0.20954887872E+03  0.21835438716E+03  0.00000000000E+00 0. -1.
</event>
<event>
 7    1  0.2943257E-009  0.8584343E+02  0.7561462E-02  0.1313241E+00
          1   -1    0    0  501    0  0.00000000000E+00  0.00000000000E+00  0.42332464272E+03  0.42332464272E+03  0.00000000000E+00 0. -1.
         -1   -1    0    0    0  501 -0.00000000000E+00 -0.00000000000E+00 -0.40186495035E+02  0.40186495035E+02  0.00000000000E+00 0.  1.
         25    2    1    2    0    0 -0.31039913900E+02  0.47249665096E+02  0.14219613686E+03  0.19764539423E+03  0.12509177997E+03 0.  0.
          5    1    3    3  502    0 -0.25570853535E+02  0.74293052127E+02  0.14937565096E+03  0.16883093213E+03  0.41800000000E+01 0. -1.
         -5    1    3    3    0  502 -0.54690603652E+01 -0.27043387031E+02 -0.71795140960E+01  0.28814462099E+02  0.41800000000E+01 0. -1.
        -11    1    1    2    0    0  0.79340352080E+01 -0.40151593002E+02  0.23802580168E+03  0.24151890526E+03  0.00000000000E+00 0. -1.
         11    1    1    2    0    0  0.23105878692E+02 -0.70980720932E+01  0.29162091441E+01  0.24346838262E+02  0.00000000000E+00 0.  1.
</event>
<event>
 7    1  0.2943257E-009  0.1583826E+03  0.7561462E-02  0.1190535E+00
          2   -1    0    0  501    0  0.00000000000E+00  0.00000000000E+00  0.80338623888E+03  0.80338623888E+03  0.00000000000E+00 0. -1.
         -2   -1    0    0    0  501 -0.00000000000E+00 -0.00000000000E+00 -0.37191276961E+02  0.37191276961E+02  0.00000000000E+00 0.  1.
         25    2    1    2    0    0 -0.11483957171E+03 -0.32854713748E+02  0.55569444076E+03  0.58198986057E+03  0.12509327268E+03 0.  0.
          5    1    3    3  502    0 -0.12013799340E+03  0.14418882482E+02  0.33551350903E+03  0.35669010187E+03  0.41800000000E+01 0.  1.
         -5    1    3    3    0  502  0.52984216904E+01 -0.47273596230E+02  0.22018093173E+03  0.22529975870E+03  0.41800000000E+01 0.  1.
        -11    1    1    2    0    0  0.57681304389E+02 -0.28285094441E+02  0.69711672957E+02  0.94799244670E+02  0.00000000000E+00 0. -1.
         11    1    1    2    0    0  0.57158267322E+02  0.61139808189E+02  0.14078884820E+03  0.16378841060E+03  0.00000000000E+00 0.  1.
</event>
<event>
 7    1  0.2943257E-009  0.8665775E+02  0.7561462E-02  0.1311153E+00
         -1   -1    0    0    0  501 -0.00000000000E+00  0.00000000000E+00  0.12264057956E+03  0.12264057956E+03  0.00000000000E+00 0.  1.
          1   -1    0    0  501    0  0.00000000000E+00 -0.00000000000E+00 -0.10502645243E+03  0.10502645243E+03  0.00000000000E+00 0. -1.
         25    2    1    2    0    0 -0.28495101187E+02  0.15483297704E+02 -0.12387151084E+01  0.12923411556E+03  0.12509284116E+03 0.  0.
          5    1    3    3  502    0  0.22486476755E+02  0.11804194684E+02 -0.51407835979E+02  0.57491031031E+02  0.41800000000E+01 0.  1.
         -5    1    3    3    0  502 -0.50981577941E+02  0.36791030197E+01  0.50169120871E+02  0.71743084526E+02  0.41800000000E+01 0.  1.
        -11    1    1    2    0    0 -0.27227391317E+02  0.16702851913E+02  0.10033834573E+02  0.33481247531E+02  0.00000000000E+00 0.  1.
         11    1    1    2    0    0  0.55722492504E+02 -0.32186149617E+02  0.88190076646E+01  0.64951668910E+02  0.00000000000E+00 0. -1.
</event>
<event>
 7    1  0.2943257E-009  0.9121797E+02  0.7561462E-02  0.1299929E+00
          2   -1    0    0  501    0  0.00000000000E+00  0.00000000000E+00  0.11133439254E+03  0.11133439254E+03  0.00000000000E+00 0.  1.
         -2   -1    0    0    0  501 -0.00000000000E+00 -0.00000000000E+00 -0.14540747203E+03  0.14540747203E+03  0.00000000000E+00 0. -1.
         25    2    1    2    0    0  0.25283203246E+02  0.56209743745E+02  0.94502530633E+01  0.13976895879E+03  0.12508908385E+03 0.  0.
          5    1    3    3  502    0  0.35308110126E+02 -0.19280729365E+01  0.54722477264E+02  0.65287073941E+02  0.41800000000E+01 0. -1.
         -5    1    3    3    0  502 -0.10024906880E+02  0.58137816681E+02 -0.45272224200E+02  0.74481884848E+02  0.41800000000E+01 0. -1.
        -11    1    1    2    0    0 -0.82453815078E+01  0.13557415993E+02  0.16853521201E+02  0.23148024138E+02  0.00000000000E+00 0.  1.
         11    1    1    2    0    0 -0.17037821738E+02 -0.69767159738E+02 -0.60376853754E+02  0.93824881651E+02  0.00000000000E+00 0. -1.
</event>
<event>
 7    1  0.3285901E-009  0.2112912E+03  0.7561462E-02  0.1140548E+00
         -1   -1    0    0    0  501 -0.00000000000E+00  0.00000000000E+00  0.41576010012E+02  0.41576010012E+02  0.00000000000E+00 0.  1.
          1   -1    0    0  501    0  0.00000000000E+00 -0.00000000000E+00 -0.13672613080E+04  0.13672613080E+04  0.00000000000E+00 0. -1.
         25    2    1    2    0    0 -0.14582301187E+03 -0.11074949469E+03 -0.36931809675E+03  0.43078190666E+03  0.12508954055E+03 0.  0.
          5    1    3    3  502    0  0.11451996514E+02 -0.52651230997E+02 -0.90240614232E+02  0.10518622156E+03  0.41800000000E+01 0. -1.
         -5    1    3    3    0  502 -0.15727500838E+03 -0.58098263691E+02 -0.27907748252E+03  0.32559568510E+03  0.41800000000E+01 0. -1.
        -11    1    1    2    0    0  0.89524820215E+02  0.16489682172E+02 -0.33942465970E+03  0.35141955362E+03  0.00000000000E+00 0.  1.
         11    1    1    2    0    0  0.56298191652E+02  0.94259812517E+02 -0.61694254151E+03  0.62663585770E+03  0.00000000000E+00 0. -1.
</event>
<event>
 7    1  0.2943257E-009  0.8830221E+02  0.7561462E-02  0.1307016E+00
         -1   -1    0    0    0  501 -0.00000000000E+00  0.00000000000E+00  0.12517314273E+03  0.12517314273E+03  0.00000000000E+00 0.  1.
          1   -1    0    0  501    0  0.00000000000E+00 -0.00000000000E+00 -0.12944469826E+03  0.12944469826E+03  0.00000000000E+00 0. -1.
         25    2    1    2    0    0  0.42011213427E+02  0.21647605146E+02 -0.55175407211E+02  0.14465281367E+03  0.12508617062E+03 0.  0.
          5    1    3    3  502    0  0.15390498371E+02  0.42437710955E+02 -0.86970379014E+02  0.98077244951E+02  0.41800000000E+01 0. -1.
         -5    1    3    3    0  502  0.26620715055E+02 -0.20790105809E+02  0.31794971803E+02  0.46575568720E+02  0.41800000000E+01 0. -1.
        -11    1    1    2    0    0  0.26292314873E+02 -0.32210598183E+01  0.10493317693E+02  0.28491591109E+02  0.00000000000E+00 0.  1.
         11    1    1    2    0    0 -0.68303528300E+02 -0.18426545327E+02  0.40410533982E+02  0.81473436208E+02  0.00000000000E+00 0. -1.
</event>
<event>
 7    1  0.2943257E-009  0.2187221E+03  0.7561462E-02  0.1134839E+00
          2   -1    0    0  501    0  0.00000000000E+00  0.00000000000E+00  0.69912556666E+02  0.69912556666E+02  0.00000000000E+00 0. -1.
         -2   -1    0    0    0  501 -0.00000000000E+00 -0.00000000000E+00 -0.83009368130E+03  0.83009368130E+03  0.00000000000E+00 0.  1.
         25    2    1    2    0    0 -0.16767395677E+03 -0.11294904550E+03 -0.53198418741E+03  0.58268926718E+03  0.12509022253E+03 0.  0.
          5    1    3    3  502    0  0.15397557620E+02 -0.30252567671E+02 -0.50809281041E+02  0.61248331171E+02  0.41800000000E+01 0. -1.
         -5    1    3    3    0  502 -0.18307151439E+03 -0.82696477833E+02 -0.48117490637E+03  0.52144093601E+03  0.41800000000E+01 0. -1.
        -11    1    1    2    0    0  0.12855254060E+03  0.90473762182E+02 -0.22163724219E+03  0.27172472185E+03  0.00000000000E+00 0.  1.
         11    1    1    2    0    0  0.39121416171E+02  0.22475283323E+02 -0.65596950244E+01  0.45592248930E+02  0.00000000000E+00 0. -1.
</event>
<event>
 7    1  0.2943257E-009  0.2430500E+03  0.7561462E-02  0.1117778E+00
          1   -1    0    0  501    0  0.00000000000E+00  0.00000000000E+00  0.59340521928E+03  0.59340521928E+03  0.00000000000E+00 0. -1.
         -1   -1    0    0    0  501 -0.00000000000E+00 -0.00000000000E+00 -0.11270277976E+03  0.11270277976E+03  0.00000000000E+00 0.  1.
         25    2    1    2    0    0 -0.15808907149E+03 -0.15068867992E+03  0.13128394052E+03  0.28386964024E+03  0.12508903562E+03 0.  0.
          5    1    3    3  502    0 -0.32421869843E+02  0.19909762160E+02  0.94816841629E+01  0.39432867102E+02  0.41800000000E+01 0.  1.
         -5    1    3    3    0  502 -0.12566720165E+03 -0.17059844208E+03  0.12180225636E+03  0.24443677314E+03  0.41800000000E+01 0.  1.
        -11    1    1    2    0    0  0.84398238240E+02  0.13705124958E+03  0.21841689161E+03  0.27131539980E+03  0.00000000000E+00 0. -1.
         11    1    1    2    0    0  0.73690833253E+02  0.13637430340E+02  0.13100160739E+03  0.15092295899E+03  0.00000000000E+00 0.  1.
</event>
<event>
 7    1  0.2943257E-009  0.1122617E+03  0.7561462E-02  0.1256438E+00
         -1   -1    0    0    0  501 -0.00000000000E+00  0.00000000000E+00  0.40478877932E+02  0.40478877932E+02  0.00000000000E+00 0.  1.
          1   -1    0    0  501    0  0.00000000000E+00 -0.00000000000E+00 -0.37810480013E+03  0.37810480013E+03  0.00000000000E+00 0. -1.
         25    2    1    2    0    0  0.32654675373E+02 -0.43223603046E+02 -0.15257661337E+03  0.20460262025E+03  0.12509197250E+03 0.  0.
          5    1    3    3  502    0 -0.83824089088E+01  0.37198854979E+02 -0.79871402608E+02  0.88605490493E+02  0.41800000000E+01 0.  1.
         -5    1    3    3    0  502  0.41037084282E+02 -0.80422458024E+02 -0.72705210761E+02  0.11599712976E+03  0.41800000000E+01 0.  1.
        -11    1    1    2    0    0  0.18227880078E+02  0.40975606148E+02 -0.39444993190E+02  0.59725734814E+02  0.00000000000E+00 0.  1.
         11    1    1    2    0    0 -0.50882555451E+02  0.22479968976E+01 -0.14560431564E+03  0.15425532300E+03  0.00000000000E+00 0. -1.
</event>
<event>
 7    1  0.2943257E-009  0.9361439E+02  0.7561462E-02  0.1294328E+00
         -2   -1    0    0    0  501 -0.00000000000E+00  0.00000000000E+00  0.50688010711E+02  0.50688010711E+02  0.00000000000E+00 0.  1.
          2   -1    0    0  501    0  0.00000000000E+00 -0.00000000000E+00 -0.35020708649E+03  0.35020708649E+03  0.00000000000E+00 0. -1.
         25    2    1    2    0    0  0.22979178913E+02  0.33207075239E+02 -0.26246055403E+03  0.29353611478E+03  0.12508859159E+03 0.  0.
          5    1    3    3  502    0  0.62012040107E+02  0.45841563099E+02 -0.10245822243E+03  0.12830472232E+03  0.41800000000E+01 0. -1.
         -5    1    3    3    0  502 -0.39032861194E+02 -0.12634487860E+02 -0.16000233160E+03  0.16523139246E+03  0.41800000000E+01 0. -1.
        -11    1    1    2    0    0 -0.13358695237E+02 -0.48713318450E+02  0.14593967571E+02  0.52577809219E+02  0.00000000000E+00 0.  1.
         11    1    1    2    0    0 -0.96204836756E+01  0.15506243211E+02 -0.51652489319E+02  0.54781173204E+02  0.00000000000E+00 0. -1.
</event>
<event>
 7    1  0.2943257E-009  0.9925396E+02  0.7561462E-02  0.1281873E+00
          2   -1    0    0  501    0  0.00000000000E+00  0.00000000000E+00  0.69605039552E+02  0.69605039552E+02  0.00000000000E+00 0. -1.
         -2   -1    0    0    0  501 -0.00000000000E+00 -0.00000000000E+00 -0.21170569137E+03  0.21170569137E+03  0.00000000000E+00 0.  1.
         25    2    1    2    0    0 -0.20600330054E+02  0.44893905737E+02 -0.51112050197E+02  0.14385479993E+03  0.12506768334E+03 0.  0.
          5    1    3    3  502    0 -0.22320901897E+02  0.72126619218E+02  0.10498571622E+02  0.76342414603E+02  0.41800000000E+01 0. -1.
         -5    1    3    3    0  502  0.17205718428E+01 -0.27232713481E+02 -0.61610621819E+02  0.67512385323E+02  0.41800000000E+01 0. -1.
        -11    1    1    2    0    0  0.35278006774E+02 -0.62862035114E+02 -0.88469604419E+02  0.11411855295E+03  0.00000000000E+00 0.  1.
         11    1    1    2    0    0 -0.14677676720E+02  0.17968129377E+02 -0.25189972006E+01  0.23337378047E+02  0.00000000000E+00 0. -1.
</event>
<event>
 7    1  0.2943257E-009  0.1230256E+03  0.7561462E-02  0.1238188E+00
         -1   -1    0    0    0  501 -0.00000000000E+00  0.00000000000E+00  0.16737983318E+03  0.16737983318E+03  0.00000000000E+00 0.  1.
          1   -1    0    0  501    0  0.00000000000E+00 -0.00000000000E+00 -0.13036513346E+03  0.13036513346E+03  0.00000000000E+00 0. -1.
         25    2    1    2    0    0 -0.73181516299E+02  0.57470567577E+02  0.58670580072E+02  0.16657750113E+03  0.12508967364E+03 0.  0.
          5    1    3    3  502    0 -0.90768521360E+01  0.51398323842E+02 -0.27327275555E+02  0.59062926847E+02  0.41800000000E+01 0.  1.
         -5    1    3    3    0  502 -0.64104664163E+02  0.60722437348E+01  0.85997855627E+02  0.10751457429E+03  0.41800000000E+01 0.  1.
        -11    1    1    2    0    0  0.76370477996E+02 -0.77544613601E+02 -0.20910130427E+02  0.11082802246E+03  0.00000000000E+00 0.  1.
         11    1    1    2    0    0 -0.31889616973E+01  0.20074046024E+02 -0.74574993045E+00  0.20339443046E+02  0.00000000000E+00 0. -1.
</event>
<event>
 7    1  0.2943257E-009  0.1220931E+03  0.7561462E-02  0.1239684E+00
         -1   -1    0    0    0  501 -0.00000000000E+00  0.00000000000E+00  0.84122120036E+03  0.84122120036E+03  0.00000000000E+00 0.  1.
          1   -1    0    0  501    0  0.00000000000E+00 -0.00000000000E+00 -0.33288869593E+02  0.33288869593E+02  0.00000000000E+00 0. -1.
         25    2    1    2    0    0 -0.90719676913E+02 -0.11335711544E+01  0.19860712126E+03  0.25164352684E+03  0.12509329009E+03 0.  0.
          5    1    3    3  502    0 -0.66241526831E+02  0.33493093733E+02  0.19522158794E+03  0.20889870273E+03  0.41800000000E+01 0. -1.
         -5    1    3    3    0  502 -0.24478150082E+02 -0.34626664887E+02  0.33855333187E+01  0.42744824114E+02  0.41800000000E+01 0. -1.
        -11    1    1    2    0    0  0.69037183118E+02  0.42113214723E+02  0.33297857051E+03  0.34265782339E+03  0.00000000000E+00 0.  1.
         11    1    1    2    0    0  0.21682493795E+02 -0.40979643568E+02  0.27634663900E+03  0.28020871972E+03  0.00000000000E+00 0. -1.
</event>
<event>
 7    1  0.2943257E-009  0.1158414E+03  0.7561462E-02  0.1250119E+00
          1   -1    0    0  501    0  0.00000000000E+00  0.00000000000E+00  0.30836870367E+02  0.30836870367E+02  0.00000000000E+00 0. -1.
         -1   -1    0    0    0  501 -0.00000000000E+00 -0.00000000000E+00 -0.75575916763E+03  0.75575916763E+03  0.00000000000E+00 0.  1.
         25    2    1    2    0    0 -0.10320109741E+03 -0.17310057161E+02 -0.34120533549E+03  0.37817936742E+03  0.12509375841E+03 0.  0.
          5    1    3    3  502    0 -0.22952982554E+02 -0.55818965297E+01  0.33154828265E+01  0.24216973456E+02  0.41800000000E+01 0.  1.
         -5    1    3    3    0  502 -0.80248114859E+02 -0.11728160632E+02 -0.34452081831E+03  0.35396239396E+03  0.41800000000E+01 0.  1.
        -11    1    1    2    0    0  0.66714903314E+02  0.45179425166E+02 -0.15037751864E+03  0.17060321479E+03  0.00000000000E+00 0. -1.
         11    1    1    2    0    0  0.36486194098E+02 -0.27869368005E+02 -0.23333944314E+03  0.23781345580E+03  0.00000000000E+00 0.  1.
</event>
<event>
 7    1  0.2943257E-009  0.1627328E+03  0.7561462E-02  0.1185645E+00
         -1   -1    0    0    0  501 -0.00000000000E+00  0.00000000000E+00  0.55432864336E+02  0.55432864336E+02  0.00000000000E+00 0.  1.
          1   -1    0    0  501    0  0.00000000000E+00 -0.00000000000E+00 -0.58943948245E+03  0.58943948245E+03  0.00000000000E+00 0. -1.
         25    2    1    2    0    0 -0.80490905928E+02 -0.92087794403E+02 -0.14505986443E+03  0.22726237575E+03  0.12508747078E+03 0.  0.
          5    1    3    3  502    0 -0.94478853259E+02 -0.11358701394E+03 -0.11334481704E+03  0.18625998872E+03  0.41800000000E+01 0. -1.
         -5    1    3    3    0  502  0.13987947331E+02  0.21499219533E+02 -0.31715047392E+02  0.41002387030E+02  0.41800000000E+01 0. -1.
        -11    1    1    2    0    0  0.94845599275E+02  0.97789543429E+02 -0.35745448305E+03  0.38253390694E+03  0.00000000000E+00 0.  1.
         11    1    1    2    0    0 -0.14354693347E+02 -0.57017490262E+01 -0.31492270628E+02  0.35076064094E+02  0.00000000000E+00 0. -1.
</event>
<event>
 7    1  0.2943257E-009  0.9953127E+02  0.7561462E-02  0.1281285E+00
         -2   -1    0    0    0  501 -0.00000000000E+00  0.00000000000E+00  0.25385408359E+03  0.25385408359E+03  0.00000000000E+00 0. -1.
          2   -1    0    0  501    0  0.00000000000E+00 -0.00000000000E+00 -0.53939134276E+02  0.53939134276E+02  0.00000000000E+00 0.  1.
         25    2    1    2    0    0 -0.21415485897E+02  0.27670414253E+02  0.14678149564E+03  0.19600163757E+03  0.12509020588E+03 0.  0.
          5    1    3    3  502    0 -0.10625679694E+02  0.76382953463E+02  0.69383066760E+02  0.10382072530E+03  0.41800000000E+01 0.  1.
         -5    1    3    3    0  502 -0.10789806202E+02 -0.48712539209E+02  0.77398428880E+02  0.92180912272E+02  0.41800000000E+01 0.  1.
        -11    1    1    2    0    0 -0.41500781052E+01  0.18514640743E+02  0.55797746980E+02  0.58935588893E+02  0.00000000000E+00 0.  1.
         11    1    1    2    0    0  0.25565564002E+02 -0.46185054997E+02 -0.26642933113E+01  0.52855991397E+02  0.00000000000E+00 0. -1.
</event>
<event>
 7    1  0.2943257E-009  0.1101717E+03  0.7561462E-02  0.1260252E+00
         -1   -1    0    0    0  501 -0.00000000000E+00  0.00000000000E+00  0.32572955673E+02  0.32572955673E+02  0.00000000000E+00 0.  1.
          1   -1    0    0  501    0  0.00000000000E+00 -0.00000000000E+00 -0.66159195834E+03  0.66159195834E+03  0.00000000000E+00 0. -1.
         25    2    1    2    0    0 -0.62426617502E+02 -0.16411713919E+01 -0.52074340118E+03  0.53918522902E+03  0.12508894959E+03 0.  0.
          5    1    3    3  502    0 -0.77351026595E+02  0.27632884321E+02 -0.47843537981E+03  0.48545302828E+03  0.41800000000E+01 0. -1.
         -5    1    3    3    0  502  0.14924409094E+02 -0.29274055713E+02 -0.42308021363E+02  0.53732200740E+02  0.41800000000E+01 0. -1.
        -11    1    1    2    0    0 -0.21266501054E+02  0.49575286092E-01 -0.45899687761E+02  0.50587032541E+02  0.00000000000E+00 0.  1.
         11    1    1    2    0    0  0.83693118556E+02  0.15915961058E+01 -0.62375913729E+02  0.10439265245E+03  0.00000000000E+00 0. -1.
</event>
<event>
 7    1  0.2943257E-009  0.2275636E+03  0.7561462E-02  0.1128366E+00
          2   -1    0    0  501    0  0.00000000000E+00  0.00000000000E+00  0.24238043067E+03  0.24238043067E+03  0.00000000000E+00 0.  1.
         -2   -1    0    0    0  501 -0.00000000000E+00 -0.00000000000E+00 -0.23680122855E+03  0.23680122855E+03  0.00000000000E+00 0. -1.
         25    2    1    2    0    0  0.18509250664E+03  0.10239275197E+03 -0.20745096299E+02  0.24662005821E+03  0.12509029707E+03 0.  0.
          5    1    3    3  502    0  0.95295334510E+02  0.11785365247E+03 -0.31241909490E+02  0.15480379029E+03  0.41800000000E+01 0. -1.
         -5    1    3    3    0  502  0.89797172127E+02 -0.15460900507E+02  0.10496813191E+02  0.91816267913E+02  0.41800000000E+01 0. -1.
        -11    1    1    2    0    0 -0.38765164073E+02 -0.13325039951E+02  0.44255214006E+02  0.60322620982E+02  0.00000000000E+00 0.  1.
         11    1    1    2    0    0 -0.14632734256E+03 -0.89067712017E+02 -0.17930915586E+02  0.17223898002E+03  0.00000000000E+00 0. -1.
</event>
<event>
 7    1  0.2943257E-009  0.1317007E+03  0.7561462E-02  0.1224954E+00
          2   -1    0    0  501    0  0.00000000000E+00  0.00000000000E+00  0.67254937769E+03  0.67254937769E+03  0.00000000000E+00 0. -1.
         -2   -1    0    0    0  501 -0.00000000000E+00 -0.00000000000E+00 -0.36726268711E+02  0.36726268711E+02  0.00000000000E+00 0.  1.
         25    2    1    2    0    0 -0.92600198212E+02 -0.64373766936E+02  0.35852468682E+03  0.39611406593E+03  0.12509046164E+03 0.  0.
          5    1    3    3  502    0 -0.81879448433E+02 -0.72957647950E+02  0.36442589741E+03  0.38059265570E+03  0.41800000000E+01 0.  1.
         -5    1    3    3    0  502 -0.10720749779E+02  0.85838810141E+01 -0.59012105940E+01  0.15521410231E+02  0.41800000000E+01 0.  1.
        -11    1    1    2    0    0  0.91276163962E+02  0.18159916991E+02  0.13847976022E+03  0.16684653033E+03  0.00000000000E+00 0.  1.
         11    1    1    2    0    0  0.13240342496E+01  0.46213849945E+02  0.13881866195E+03  0.14631505014E+03  0.00000000000E+00 0. -1.
</event>
<event>
 7    1  0.2943257E-009  0.2070921E+03  0.7561462E-02  0.1143890E+00
         -1   -1    0    0    0  501 -0.00000000000E+00  0.00000000000E+00  0.60683514691E+02  0.60683514691E+02  0.00000000000E+00 0.  1.
          1   -1    0    0  501    0  0.00000000000E+00 -0.00000000000E+00 -0.10477450315E+04  0.10477450315E+04  0.00000000000E+00 0. -1.
         25    2    1    2    0    0 -0.16525869543E+03 -0.95462134214E+02 -0.23714031773E+03  0.32910009363E+03  0.12509150991E+03 0.  0.
          5    1    3    3  502    0 -0.79343909394E+02 -0.98793395475E+02 -0.79951066979E+02  0.14988407673E+03  0.41800000000E+01 0.  1.
         -5    1    3    3    0  502 -0.85914786033E+02  0.33312612613E+01 -0.15718925075E+03  0.17921601690E+03  0.41800000000E+01 0.  1.
        -11    1    1    2    0    0  0.34059127310E+02 -0.71026346654E+01 -0.57877783573E+02  0.67530062962E+02  0.00000000000E+00 0.  1.
         11    1    1    2    0    0  0.13119956812E+03  0.10256476888E+03 -0.69204341550E+03  0.71179838960E+03  0.00000000000E+00 0. -1.
</event>
<event>
 7    1  0.2943257E-009  0.1193633E+03  0.7561462E-02  0.1244151E+00
         -1   -1    0    0    0  501 -0.00000000000E+00  0.00000000000E+00  0.68761505965E+02  0.68761505965E+02  0.00000000000E+00 0.  1.
          1   -1    0    0  501    0  0.00000000000E+00 -0.00000000000E+00 -0.26505950089E+03  0.26505950089E+03  0.00000000000E+00 0. -1.
         25    2    1    2    0    0  0.69345876007E+02  0.34355225102E+02 -0.13071760822E+03  0.19678305190E+03  0.12508934568E+03 0.  0.
          5    1    3    3  502    0 -0.39434520754E+01  0.48982215832E+02 -0.10772839417E+03  0.11848074777E+03  0.41800000000E+01 0. -1.
         -5    1    3    3    0  502  0.73289328082E+02 -0.14626990730E+02 -0.22989214055E+02  0.78302304126E+02  0.41800000000E+01 0. -1.
        -11    1    1    2    0    0 -0.10061832386E+02 -0.51793133499E+02 -0.95417559532E+01  0.53617294367E+02  0.00000000000E+00 0. -1.
         11    1    1    2    0    0 -0.59284043621E+02  0.17437908397E+02 -0.56038630748E+02  0.83420660591E+02  0.00000000000E+00 0.  1.
</event>
<event>
 7    1  0.2943257E-009  0.1099437E+03  0.7561462E-02  0.1260674E+00
         -2   -1    0    0    0  501 -0.00000000000E+00  0.00000000000E+00  0.85083817816E+02  0.85083817816E+02  0.00000000000E+00 0. -1.
          2   -1    0    0  501    0  0.00000000000E+00 -0.00000000000E+00 -0.23467479026E+03  0.23467479026E+03  0.00000000000E+00 0.  1.
         25    2    1    2    0    0  0.30134116547E+02  0.77857083684E+02 -0.39443613954E+02  0.15547768567E+03  0.12509085338E+03 0.  0.
          5    1    3    3  502    0  0.42378721716E+02  0.34583116982E+02 -0.78498330561E+02  0.95767470131E+02  0.41800000000E+01 0. -1.
         -5    1    3    3    0  502 -0.12244605169E+02  0.43273966702E+02  0.39054716608E+02  0.59710215535E+02  0.41800000000E+01 0. -1.
        -11    1    1    2    0    0 -0.86256088568E+00 -0.88657649779E+02 -0.67467313307E+02  0.11141257218E+03  0.00000000000E+00 0. -1.
         11    1    1    2    0    0 -0.29271555661E+02  0.10800566095E+02 -0.42680045182E+02  0.52868350226E+02  0.00000000000E+00 0.  1.
</event>
<event>
 7    1  0.2943257E-009  0.1230295E+03  0.7561462E-02  0.1238181E+00
         -3   -1    0    0    0  501 -0.00000000000E+00  0.00000000000E+00  0.21249036813E+02  0.21249036813E+02  0.00000000000E+00 0.  1.
          3   -1    0    0  501    0  0.00000000000E+00 -0.00000000000E+00 -0.76074855127E+03  0.76074855127E+03  0.00000000000E+00 0. -1.
         25    2    1    2    0    0  0.59371180615E+02 -0.27739449584E+02 -0.40324135212E+03  0.42725337016E+03  0.12508972823E+03 0.  0.
          5    1    3    3  502    0  0.92041069964E+02 -0.22952653211E+01 -0.20613195570E+03  0.22579787944E+03  0.41800000000E+01 0. -1.
         -5    1    3    3    0  502 -0.32669889349E+02 -0.25444184263E+02 -0.19710939642E+03  0.20145549072E+03  0.41800000000E+01 0. -1.
        -11    1    1    2    0    0  0.66689716884E+01  0.43804095699E+02 -0.15307644181E+03  0.15936019271E+03  0.00000000000E+00 0.  1.
         11    1    1    2    0    0 -0.66040152303E+02 -0.16064646115E+02 -0.18318172053E+03  0.19538402521E+03  0.00000000000E+00 0. -1.
</event>
<event>
 7    1  0.2943257E-009  0.1193917E+03  0.7561462E-02  0.1244104E+00
         -2   -1    0    0    0  501 -0.00000000000E+00  0.00000000000E+00  0.36663593816E+03  0.36663593816E+03  0.00000000000E+00 0. -1.
          2   -1    0    0  501    0  0.00000000000E+00 -0.00000000000E+00 -0.61757485218E+02  0.61757485218E+02  0.00000000000E+00 0.  1.
         25    2    1    2    0    0 -0.91564034227E+02 -0.13883792590E+02  0.23313862813E+03  0.28031972351E+03  0.12509514539E+03 0.  0.
          5    1    3    3  502    0 -0.10545675351E+03 -0.30313777201E+02  0.11065786699E+03  0.15589319381E+03  0.41800000000E+01 0.  1.
         -5    1    3    3    0  502  0.13892719284E+02  0.16429984610E+02  0.12248076115E+03  0.12442652970E+03  0.41800000000E+01 0.  1.
        -11    1    1    2    0    0  0.79085043643E+02  0.31787685557E+02  0.14037922561E+02  0.86382662328E+02  0.00000000000E+00 0.  1.
         11    1    1    2    0    0  0.12478990584E+02 -0.17903892967E+02  0.57701902246E+02  0.61691037535E+02  0.00000000000E+00 0. -1.
</event>
<event>
 7    1  0.2943257E-009  0.1193096E+03  0.7561462E-02  0.1244240E+00
          1   -1    0    0  501    0  0.00000000000E+00  0.00000000000E+00  0.15320258638E+03  0.15320258638E+03  0.00000000000E+00 0. -1.
         -1   -1    0    0    0  501 -0.00000000000E+00 -0.00000000000E+00 -0.11228189770E+03  0.11228189770E+03  0.00000000000E+00 0.  1.
         25    2    1    2    0    0 -0.60410766137E+01  0.72644866883E+02  0.22477896772E+02  0.14651362596E+03  0.12508883027E+03 0.  0.
          5    1    3    3  502    0  0.46693907723E+02  0.53549570476E+02  0.46861992065E+02  0.85213826442E+02  0.41800000000E+01 0. -1.
         -5    1    3    3    0  502 -0.52734984337E+02  0.19095296407E+02 -0.24384095292E+02  0.61299799519E+02  0.41800000000E+01 0. -1.
        -11    1    1    2    0    0 -0.37699113490E+02 -0.19717030802E+02 -0.11488776517E+02  0.44067861843E+02  0.00000000000E+00 0.  1.
         11    1    1    2    0    0  0.43740190104E+02 -0.52927836081E+02  0.29931568431E+02  0.74902996277E+02  0.00000000000E+00 0. -1.
</event>
<event>
 7    1  0.2943257E-009  0.1270816E+03  0.7561462E-02  0.1231851E+00
         -1   -1    0    0    0  501 -0.00000000000E+00  0.00000000000E+00  0.60705744396E+02  0.60705744396E+02  0.00000000000E+00 0.  1.
          1   -1    0    0  501    0  0.00000000000E+00 -0.00000000000E+00 -0.28529412558E+03  0.28529412558E+03  0.00000000000E+00 0. -1.
         25    2    1    2    0    0  0.29886842348E+02  0.63010090024E+02 -0.14616013361E+03  0.20463025818E+03  0.12508902076E+03 0.  0.
          5    1    3    3  502    0  0.12136070134E+02 -0.37537083443E+02 -0.28838590480E+02  0.49045423156E+02  0.41800000000E+01 0.  1.
         -5    1    3    3    0  502  0.17750772215E+02  0.10054717347E+03 -0.11732154313E+03  0.15558483502E+03  0.41800000000E+01 0.  1.
        -11    1    1    2    0    0  0.17778367026E+02 -0.62138272900E+02 -0.23823918861E+02  0.68882613213E+02  0.00000000000E+00 0.  1.
         11    1    1    2    0    0 -0.47665209375E+02 -0.87181712338E+00 -0.54604328716E+02  0.72486998588E+02  0.00000000000E+00 0. -1.
</event>
<event>
 7    1  0.2943257E-009  0.1110673E+03  0.7561462E-02  0.1258606E+00
         -1   -1    0    0    0  501 -0.00000000000E+00  0.00000000000E+00  0.54934886189E+03  0.54934886189E+03  0.00000000000E+00 0.  1.
          1   -1    0    0  501    0  0.00000000000E+00 -0.00000000000E+00 -0.23690064940E+02  0.23690064940E+02  0.00000000000E+00 0. -1.
         25    2    1    2    0    0 -0.10078700485E+02 -0.29245583842E+02  0.26358231133E+03  0.29339414363E+03  0.12509038449E+03 0.  0.
          5    1    3    3  502    0  0.15618411609E+02  0.44025646089E+02  0.65197092015E+02  0.80313918482E+02  0.41800000000E+01 0.  1.
         -5    1    3    3    0  502 -0.25697112094E+02 -0.73271229931E+02  0.19838521932E+03  0.21308022515E+03  0.41800000000E+01 0.  1.
        -11    1    1    2    0    0  0.87770511495E+01 -0.33543254976E+02  0.87836025607E+02  0.94431742416E+02  0.00000000000E+00 0.  1.
         11    1    1    2    0    0  0.13016493353E+01  0.62788838819E+02  0.17424046001E+03  0.18521304078E+03  0.00000000000E+00 0. -1.
</event>
<event>
 7    1  0.2943257E-009  0.1427630E+03  0.7561462E-02  0.1209659E+00
          2   -1    0    0  501    0  0.00000000000E+00  0.00000000000E+00  0.32612776041E+03  0.32612776041E+03  0.00000000000E+00 0. -1.
         -2   -1    0    0    0  501 -0.00000000000E+00 -0.00000000000E+00 -0.89712214408E+02  0.89712214408E+02  0.00000000000E+00 0.  1.
         25    2    1    2    0    0  0.12684938658E+03  0.36410701970E+02  0.15774307568E+03  0.24072370089E+03  0.12509402925E+03 0.  0.
          5    1    3    3  502    0  0.13701173689E+03  0.28725915872E+02  0.78899971615E+02  0.16074847498E+03  0.41800000000E+01 0. -1.
         -5    1    3    3    0  502 -0.10162350312E+02  0.76847860974E+01  0.78843104064E+02  0.79975225912E+02  0.41800000000E+01 0. -1.
        -11    1    1    2    0    0 -0.88188898483E+02 -0.27667508082E+02  0.63507862858E+01  0.92645050087E+02  0.00000000000E+00 0. -1.
         11    1    1    2    0    0 -0.38660488094E+02 -0.87431938883E+01  0.72321684037E+02  0.82471223836E+02  0.00000000000E+00 0.  1.
</event>
<event>
 7    1  0.2943257E-009  0.1056167E+03  0.7561462E-02  0.1268909E+00
          1   -1    0    0  501    0  0.00000000000E+00  0.00000000000E+00  0.72128336150E+03  0.72128336150E+03  0.00000000000E+00 0. -1.
         -1   -1    0    0    0  501 -0.00000000000E+00 -0.00000000000E+00 -0.20821902010E+02  0.20821902010E+02  0.00000000000E+00 0.  1.
         25    2    1    2    0    0 -0.50768004589E+02  0.23141912378E+02  0.37081395262E+03  0.39530170779E+03  0.12509002489E+03 0.  0.
          5    1    3    3  502    0 -0.27957654425E+02 -0.47112064444E+02  0.22723642380E+03  0.23378417774E+03  0.41800000000E+01 0. -1.
         -5    1    3    3    0  502 -0.22810350165E+02  0.70253976822E+02  0.14357752881E+03  0.16151753005E+03  0.41800000000E+01 0. -1.
        -11    1    1    2    0    0  0.51779945761E+02  0.69106258932E+01  0.30021769987E+03  0.30472871024E+03  0.00000000000E+00 0. -1.
         11    1    1    2    0    0 -0.10119411715E+01 -0.30052538271E+02  0.29429807005E+02  0.42074845476E+02  0.00000000000E+00 0.  1.
</event>
<event>
 7    1  0.2943257E-009  0.1904151E+03  0.7561462E-02  0.1158087E+00
         -2   -1    0    0    0  501 -0.00000000000E+00  0.00000000000E+00  0.17158761687E+03  0.17158761687E+03  0.00000000000E+00 0.  1.
          2   -1    0    0  501    0  0.00000000000E+00 -0.00000000000E+00 -0.26313143485E+03  0.26313143485E+03  0.00000000000E+00 0. -1.
         25    2    1    2    0    0  0.17261664168E+03  0.53643155845E+02 -0.82562638869E+02  0.23481423981E+03  0.12508814782E+03 0.  0.
          5    1    3    3  502    0  0.34543056969E+02  0.83301149227E+01  0.33327600750E+02  0.48895960684E+02  0.41800000000E+01 0. -1.
         -5    1    3    3    0  502  0.13807358471E+03  0.45313040923E+02 -0.11589023962E+03  0.18591827912E+03  0.41800000000E+01 0. -1.
        -11    1    1    2    0    0 -0.62754639787E+02  0.21764144274E+02 -0.13537684334E+01  0.66435348119E+02  0.00000000000E+00 0.  1.
         11    1    1    2    0    0 -0.10986200189E+03 -0.75407300119E+02 -0.76274106799E+01  0.13346946379E+03  0.00000000000E+00 0. -1.
</event>
<event>
 7    1  0.2943257E-009  0.8217416E+02  0.7561462E-02  0.1322992E+00
          2   -1    0    0  501    0  0.00000000000E+00  0.00000000000E+00  0.32421762761E+03  0.32421762761E+03  0.00000000000E+00 0. -1.
         -2   -1    0    0    0  501 -0.00000000000E+00 -0.00000000000E+00 -0.42389238787E+02  0.42389238787E+02  0.00000000000E+00 0.  1.
         25    2    1    2    0    0 -0.18361529002E+02  0.24959018357E+02  0.20176074371E+03  0.23940460717E+03  0.12508824840E+03 0.  0.
          5    1    3    3  502    0 -0.81089577518E+01  0.53042919113E+02  0.20217266900E+03  0.20921416529E+03  0.41800000000E+01 0.  1.
         -5    1    3    3    0  502 -0.10252571250E+02 -0.28083900756E+02 -0.41192529361E+00  0.30190441887E+02  0.41800000000E+01 0.  1.
        -11    1    1    2    0    0 -0.28178198229E+02 -0.17594541050E+02  0.72139739002E+02  0.79421160111E+02  0.00000000000E+00 0. -1.
         11    1    1    2    0    0  0.46539727231E+02 -0.73644773066E+01  0.79279061056E+01  0.47781099108E+02  0.00000000000E+00 0.  1.
</event>
<event>
 7    1  0.2943257E-009  0.2172147E+03  0.7561462E-02  0.1135977E+00
          1   -1    0    0  501    0  0.00000000000E+00  0.00000000000E+00  0.50824374711E+03  0.50824374711E+03  0.00000000000E+00 0. -1.
         -1   -1    0    0    0  501 -0.00000000000E+00 -0.00000000000E+00 -0.10604582449E+03  0.10604582449E+03  0.00000000000E+00 0.  1.
         25    2    1    2    0    0 -0.18814006602E+03  0.35267850253E+02  0.11033772865E+03  0.25389344005E+03  0.12508780450E+03 0.  0.
          5    1    3    3  502    0 -0.20670095880E+03  0.33330375440E+02  0.10340548752E+03  0.23355163785E+03  0.41800000000E+01 0.  1.
         -5    1    3    3    0  502  0.18560892782E+02  0.19374748128E+01  0.69322411315E+01  0.20341802197E+02  0.41800000000E+01 0.  1.
        -11    1    1    2    0    0  0.15859540079E+03 -0.57733068903E+02  0.20236246375E+03  0.26350744796E+03  0.00000000000E+00 0.  1.
         11    1    1    2    0    0  0.29544665224E+02  0.22465218650E+02  0.89497730217E+02  0.96888683582E+02  0.00000000000E+00 0. -1.
</event>
<event>
 7    1  0.3960290E-009  0.2938198E+03  0.7561462E-02  0.1088371E+00
          2   -1    0    0  501    0  0.00000000000E+00  0.00000000000E+00  0.97352292522E+03  0.97352292522E+03  0.00000000000E+00 0. -1.
         -2   -1    0    0    0  501 -0.00000000000E+00 -0.00000000000E+00 -0.94543158392E+02  0.94543158392E+02  0.00000000000E+00 0.  1.
         25    2    1    2    0    0  0.38128217354E+02 -0.27741404325E+03  0.37660769611E+03  0.48568823009E+03  0.12508951884E+03 0.  0.
          5    1    3    3  502    0 -0.25395907449E+02 -0.13228886872E+03  0.10347805630E+03  0.16991314675E+03  0.41800000000E+01 0.  1.
         -5    1    3    3    0  502  0.63524124803E+02 -0.14512517453E+03  0.27312963981E+03  0.31577508334E+03  0.41800000000E+01 0.  1.
        -11    1    1    2    0    0  0.25996352006E+02  0.14452547820E+03  0.23988108466E+03  0.28125852688E+03  0.00000000000E+00 0.  1.
         11    1    1    2    0    0 -0.64124569360E+02  0.13288856505E+03  0.26249098606E+03  0.30111932665E+03  0.00000000000E+00 0. -1.
</event>
<event>
 7    1  0.2943257E-009  0.2014695E+03  0.7561462E-02  0.1148505E+00
         -1   -1    0    0    0  501 -0.00000000000E+00  0.00000000000E+00  0.66813076626E+02  0.66813076626E+02  0.00000000000E+00 0.  1.
          1   -1    0    0  501    0  0.00000000000E+00 -0.00000000000E+00 -0.68579844928E+03  0.68579844928E+03  0.00000000000E+00 0. -1.
         25    2    1    2    0    0  0.14168648391E+03  0.10721800233E+03 -0.23889323501E+03  0.32293712511E+03  0.12509056438E+03 0.  0.
          5    1    3    3  502    0  0.15666069821E+03  0.97516677041E+02 -0.16757063598E+03  0.24929794846E+03  0.41800000000E+01 0.  1.
         -5    1    3    3    0  502 -0.14974214294E+02  0.97013252870E+01 -0.71322599023E+02  0.73639176648E+02  0.41800000000E+01 0.  1.
        -11    1    1    2    0    0 -0.22776615944E+02 -0.72746393229E+02 -0.13283837930E+03  0.15315628285E+03  0.00000000000E+00 0.  1.
         11    1    1    2    0    0 -0.11890986797E+03 -0.34471609099E+02 -0.24725375835E+03  0.27651811795E+03  0.00000000000E+00 0. -1.
</event>
<event>
 7    1  0.2943257E-009  0.1050736E+03  0.7561462E-02  0.1269975E+00
         -2   -1    0    0    0  501 -0.00000000000E+00  0.00000000000E+00  0.11820152741E+03  0.11820152741E+03  0.00000000000E+00 0. -1.
          2   -1    0    0  501    0  0.00000000000E+00 -0.00000000000E+00 -0.11115410706E+03  0.11115410706E+03  0.00000000000E+00 0.  1.
         25    2    1    2    0    0 -0.12479499830E+02 -0.13332009687E+02 -0.25768722475E+02  0.12901590780E+03  0.12509035538E+03 0.  0.
          5    1    3    3  502    0 -0.17664852638E+02 -0.65123759697E+02  0.60344895364E+01  0.67875168948E+02  0.41800000000E+01 0.  1.
         -5    1    3    3    0  502  0.51853528086E+01  0.51791750009E+02 -0.31803212011E+02  0.61140738849E+02  0.41800000000E+01 0.  1.
        -11    1    1    2    0    0  0.42184506277E+02  0.33961793028E+02  0.43801857628E+01  0.54333433380E+02  0.00000000000E+00 0.  1.
         11    1    1    2    0    0 -0.29705006447E+02 -0.20629783341E+02  0.28435957059E+02  0.46006293293E+02  0.00000000000E+00 0. -1.
</event>
<event>
 7    1  0.2943257E-009  0.1081176E+03  0.7561462E-02  0.1264096E+00
          1   -1    0    0  501    0  0.00000000000E+00  0.00000000000E+00  0.57165162117E+02  0.57165162117E+02  0.00000000000E+00 0. -1.
         -1   -1    0    0    0  501 -0.00000000000E+00 -0.00000000000E+00 -0.32972753312E+03  0.32972753312E+03  0.00000000000E+00 0.  1.
         25    2    1    2    0    0  0.73495459620E+02  0.31715849622E+02 -0.11218963812E+03  0.18612230908E+03  0.12509005290E+03 0.  0.
          5    1    3    3  502    0 -0.25227703788E+02  0.22860607111E+02  0.26048084209E+01  0.34399154391E+02  0.41800000000E+01 0. -1.
         -5    1    3    3    0  502  0.98723163408E+02  0.88552425108E+01 -0.11479444654E+03  0.15172315469E+03  0.41800000000E+01 0. -1.
        -11    1    1    2    0    0 -0.10243033816E+02 -0.13418994606E+02  0.89413881208E+01  0.19103339486E+02  0.00000000000E+00 0. -1.
         11    1    1    2    0    0 -0.63252425804E+02 -0.18296855016E+02 -0.16931412101E+03  0.18166704667E+03  0.00000000000E+00 0.  1.
</event>
<event>
 7    1  0.2943257E-009  0.1212867E+03  0.7561462E-02  0.1240989E+00
          1   -1    0    0  501    0  0.00000000000E+00  0.00000000000E+00  0.39879636264E+02  0.39879636264E+02  0.00000000000E+00 0. -1.
         -1   -1    0    0    0  501 -0.00000000000E+00 -0.00000000000E+00 -0.58685781578E+03  0.58685781578E+03  0.00000000000E+00 0.  1.
         25    2    1    2    0    0  0.76024106859E+02 -0.34488181038E+02 -0.42880464107E+03  0.45441162319E+03  0.12508958243E+03 0.  0.
          5    1    3    3  502    0 -0.36243464122E+01 -0.53140431352E+02 -0.27513883393E+03  0.28027823973E+03  0.41800000000E+01 0.  1.
         -5    1    3    3    0  502  0.79648453271E+02  0.18652250315E+02 -0.15366580714E+03  0.17413338346E+03  0.41800000000E+01 0.  1.
        -11    1    1    2    0    0 -0.66627640269E+02  0.53880091489E+02 -0.12332401969E+03  0.15017030511E+03  0.00000000000E+00 0.  1.
         11    1    1    2    0    0 -0.93964665900E+01 -0.19391910451E+02  0.51504812382E+01  0.22155523742E+02  0.00000000000E+00 0. -1.
</event>
<event>
 7    1  0.2943257E-009  0.1139722E+03  0.7561462E-02  0.1253386E+00
         -2   -1    0    0    0  501 -0.00000000000E+00  0.00000000000E+00  0.23155823658E+03  0.23155823658E+03  0.00000000000E+00 0.  1.
          2   -1    0    0  501    0  0.00000000000E+00 -0.00000000000E+00 -0.85204092899E+02  0.85204092899E+02  0.00000000000E+00 0. -1.
         25    2    1    2    0    0  0.73413988779E+02 -0.78993932724E+01  0.13793338918E+03  0.20032277528E+03  0.12510627595E+03 0.  0.
          5    1    3    3  502    0  0.73542406664E+02  0.34564998140E+02  0.13490729448E+03  0.15754578756E+03  0.41800000000E+01 0. -1.
         -5    1    3    3    0  502 -0.12841788530E+00 -0.42464391412E+02  0.30260947002E+01  0.42776987719E+02  0.41800000000E+01 0. -1.
        -11    1    1    2    0    0 -0.88194491195E+02  0.26907030804E+01  0.26866804007E+02  0.92235206498E+02  0.00000000000E+00 0.  1.
         11    1    1    2    0    0  0.14780502417E+02  0.52086901920E+01 -0.18446049506E+02  0.24204347700E+02  0.00000000000E+00 0. -1.
</event>
<event>
 7    1  0.2943257E-009  0.1409116E+03  0.7561462E-02  0.1212108E+00
         -1   -1    0    0    0  501 -0.00000000000E+00  0.00000000000E+00  0.62416046066E+02  0.62416046066E+02  0.00000000000E+00 0.  1.
          1   -1    0    0  501    0  0.00000000000E+00 -0.00000000000E+00 -0.40287277838E+03  0.40287277838E+03  0.00000000000E+00 0. -1.
         25    2    1    2    0    0 -0.11229878697E+03  0.93808003838E+01 -0.14138385930E+03  0.21985681374E+03  0.12509438799E+03 0.  0.
          5    1    3    3  502    0 -0.52461398365E+01  0.49353288894E+02 -0.66839610156E+02  0.83356313460E+02  0.41800000000E+01 0.  1.
         -5    1    3    3    0  502 -0.10705264714E+03 -0.39972488510E+02 -0.74544249146E+02  0.13650050028E+03  0.41800000000E+01 0.  1.
        -11    1    1    2    0    0  0.12611982330E+02 -0.12736971081E+02  0.47232360568E+01  0.18536490754E+02  0.00000000000E+00 0.  1.
         11    1    1    2    0    0  0.99686804643E+02  0.33561706974E+01 -0.20379610907E+03  0.22689551995E+03  0.00000000000E+00 0. -1.
</event>
<event>
 7    1  0.2943257E-009  0.9270400E+02  0.7561462E-02  0.1296433E+00
          2   -1    0    0  501    0  0.00000000000E+00  0.00000000000E+00  0.16542351093E+03  0.16542351093E+03  0.00000000000E+00 0. -1.
         -2   -1    0    0    0  501 -0.00000000000E+00 -0.00000000000E+00 -0.10184736967E+03  0.10184736967E+03  0.00000000000E+00 0.  1.
         25    2    1    2    0    0  0.37573443942E+01 -0.33124357449E+02  0.10188698505E+03  0.16473515562E+03  0.12508146578E+03 0.  0.
          5    1    3    3  502    0  0.56121908505E+02 -0.36233998423E+02  0.87530094232E+02  0.11018875193E+03  0.41800000000E+01 0. -1.
         -5    1    3    3    0  502 -0.52364564110E+02  0.31096409743E+01  0.14356890816E+02  0.54546403689E+02  0.41800000000E+01 0. -1.
        -11    1    1    2    0    0 -0.11001063613E+02 -0.14207537305E+02 -0.50098245925E+02  0.53223225773E+02  0.00000000000E+00 0.  1.
         11    1    1    2    0    0  0.72437192191E+01  0.47331894754E+02  0.11787402132E+02  0.49312499208E+02  0.00000000000E+00 0. -1.
</event>
<event>
 7    1  0.2943257E-009  0.1330468E+03  0.7561462E-02  0.1223004E+00
         -4   -1    0    0    0  501 -0.00000000000E+00  0.00000000000E+00  0.20371984984E+03  0.20371984984E+03  0.00000000000E+00 0.  1.
          4   -1    0    0  501    0  0.00000000000E+00 -0.00000000000E+00 -0.17311577671E+03  0.17311577671E+03  0.00000000000E+00 0. -1.
         25    2    1    2    0    0 -0.65314221581E+02 -0.10500068604E+03  0.10729220505E+03  0.20603599010E+03  0.12509244717E+03 0.  0.
          5    1    3    3  502    0 -0.72041496021E+02 -0.85652896898E+02  0.16911654116E+02  0.11326902640E+03  0.41800000000E+01 0.  1.
         -5    1    3    3    0  502  0.67272744399E+01 -0.19347789147E+02  0.90380550938E+02  0.92766963700E+02  0.41800000000E+01 0.  1.
        -11    1    1    2    0    0 -0.31243704596E+01  0.35535711822E+02 -0.62903961044E+02  0.72314983374E+02  0.00000000000E+00 0. -1.
         11    1    1    2    0    0  0.68438592041E+02  0.69464974223E+02 -0.13784170882E+02  0.98484653075E+02  0.00000000000E+00 0.  1.
</event>
<event>
 7    1  0.2943257E-009  0.1629939E+03  0.7561462E-02  0.1185358E+00
         -2   -1    0    0    0  501 -0.00000000000E+00  0.00000000000E+00  0.46509539581E+02  0.46509539581E+02  0.00000000000E+00 0.  1.
          2   -1    0    0  501    0  0.00000000000E+00 -0.00000000000E+00 -0.84826866989E+03  0.84826866989E+03  0.00000000000E+00 0. -1.
         25    2    1    2    0    0  0.80191990665E+01  0.12619012965E+03 -0.17773086980E+03  0.25145699158E+03  0.12511634649E+03 0.  0.
          5    1    3    3  502    0 -0.43318186576E+02  0.11979280250E+02 -0.82660658326E+02  0.94181873407E+02  0.41800000000E+01 0.  1.
         -5    1    3    3    0  502  0.51337385643E+02  0.11421084940E+03 -0.95070211474E+02  0.15727511817E+03  0.41800000000E+01 0.  1.
        -11    1    1    2    0    0  0.39337804507E+02 -0.34322663149E+02 -0.24130530223E+03  0.24688814664E+03  0.00000000000E+00 0. -1.
         11    1    1    2    0    0 -0.47357003573E+02 -0.91867466500E+02 -0.38272295828E+03  0.39643307125E+03  0.00000000000E+00 0.  1.
</event>
<event>
 7    1  0.2943257E-009  0.1161096E+03  0.7561462E-02  0.1249657E+00
         -1   -1    0    0    0  501 -0.00000000000E+00  0.00000000000E+00  0.77964036628E+02  0.77964036628E+02  0.00000000000E+00 0.  1.
          1   -1    0    0  501    0  0.00000000000E+00 -0.00000000000E+00 -0.22464837933E+03  0.22464837933E+03  0.00000000000E+00 0. -1.
         25    2    1    2    0    0 -0.21312563837E+02  0.55473178118E+02 -0.12926453011E+03  0.18944261174E+03  0.12509070921E+03 0.  0.
          5    1    3    3  502    0 -0.28989561534E+02  0.94216428187E+02 -0.95501539790E+02  0.13731404342E+03  0.41800000000E+01 0. -1.
         -5    1    3    3    0  502  0.76769976971E+01 -0.38743250069E+02 -0.33762990316E+02  0.52128568315E+02  0.41800000000E+01 0. -1.
        -11    1    1    2    0    0 -0.72191840999E+01 -0.63728450188E+02 -0.40239142088E+02  0.75714070941E+02  0.00000000000E+00 0. -1.
         11    1    1    2    0    0  0.28531747937E+02  0.82552720700E+01  0.22819329491E+02  0.37455733282E+02  0.00000000000E+00 0.  1.
</event>
<event>
 7    1  0.2943257E-009  0.1708757E+03  0.7561462E-02  0.1176938E+00
         -2   -1    0    0    0  501 -0.00000000000E+00  0.00000000000E+00  0.50348264267E+02  0.50348264267E+02  0.00000000000E+00 0.  1.
          2   -1    0    0  501    0  0.00000000000E+00 -0.00000000000E+00 -0.72868835790E+03  0.72868835790E+03  0.00000000000E+00 0. -1.
         25    2    1    2    0    0  0.91355832078E+02  0.12654647169E+03 -0.31938247076E+03  0.37684518988E+03  0.12508891620E+03 0.  0.
          5    1    3    3  502    0  0.23139642452E+02  0.96526981377E+01 -0.18265363202E+03  0.18441377206E+03  0.41800000000E+01 0. -1.
         -5    1    3    3    0  502  0.68216189626E+02  0.11689377355E+03 -0.13672883874E+03  0.19243141782E+03  0.41800000000E+01 0. -1.
        -11    1    1    2    0    0 -0.11031108810E+03 -0.10636571067E+03 -0.31390088454E+03  0.34930783827E+03  0.00000000000E+00 0. -1.
         11    1    1    2    0    0  0.18955256026E+02 -0.20180761021E+02 -0.45056738336E+02  0.52883594014E+02  0.00000000000E+00 0.  1.
</event>
<event>
 7    1  0.2943257E-009  0.1462607E+03  0.7561462E-02  0.1205145E+00
          2   -1    0    0  501    0  0.00000000000E+00  0.00000000000E+00  0.17111290650E+03  0.17111290650E+03  0.00000000000E+00 0. -1.
         -2   -1    0    0    0  501 -0.00000000000E+00 -0.00000000000E+00 -0.25279492721E+03  0.25279492721E+03  0.00000000000E+00 0.  1.
         25    2    1    2    0    0  0.12032674079E+03 -0.98457432544E+01  0.89461164311E+02  0.19551396261E+03  0.12508775499E+03 0.  0.
          5    1    3    3  502    0  0.97904953893E+02 -0.58695922437E+02  0.36444587893E+02  0.11990109130E+03  0.41800000000E+01 0.  1.
         -5    1    3    3    0  502  0.22421786897E+02  0.48850179182E+02  0.53016576419E+02  0.75612871318E+02  0.41800000000E+01 0.  1.
        -11    1    1    2    0    0 -0.63820859190E+02 -0.97758259157E+01 -0.22846493606E+02  0.68488182267E+02  0.00000000000E+00 0. -1.
         11    1    1    2    0    0 -0.56505881600E+02  0.19621569170E+02 -0.14829669142E+03  0.15990568883E+03  0.00000000000E+00 0.  1.
</event>
<event>
 7    1  0.2943257E-009  0.8345050E+02  0.7561462E-02  0.1319535E+00
         -1   -1    0    0    0  501 -0.00000000000E+00  0.00000000000E+00  0.10565134473E+03  0.10565134473E+03  0.00000000000E+00 0.  1.
          1   -1    0    0  501    0  0.00000000000E+00 -0.00000000000E+00 -0.11896185310E+03  0.11896185310E+03  0.00000000000E+00 0. -1.
         25    2    1    2    0    0 -0.15775335091E+02  0.17856154794E+02 -0.40109000173E+01  0.12740305793E+03  0.12509096046E+03 0.  0.
          5    1    3    3  502    0 -0.88914999984E+01  0.56239557329E+02 -0.43479043984E+02  0.71762429213E+02  0.41800000000E+01 0. -1.
         -5    1    3    3    0  502 -0.68838350924E+01 -0.38383402536E+02  0.39468143967E+02  0.55640628716E+02  0.41800000000E+01 0. -1.
        -11    1    1    2    0    0  0.30554923119E+02  0.15386537825E+02 -0.37809824051E+02  0.50989525080E+02  0.00000000000E+00 0.  1.
         11    1    1    2    0    0 -0.14779588028E+02 -0.33242692619E+02  0.28510215695E+02  0.46220614814E+02  0.00000000000E+00 0. -1.
</event>
<event>
 7    1  0.2943257E-009  0.1047113E+03  0.7561462E-02  0.1270689E+00
         -2   -1    0    0    0  501 -0.00000000000E+00  0.00000000000E+00  0.60218646524E+02  0.60218646524E+02  0.00000000000E+00 0.  1.
          2   -1    0    0  501    0  0.00000000000E+00 -0.00000000000E+00 -0.29025258381E+03  0.29025258381E+03  0.00000000000E+00 0. -1.
         25    2    1    2    0    0  0.11621411867E+02 -0.67558953393E+02 -0.15619089705E+03  0.21152459764E+03  0.12509112555E+03 0.  0.
          5    1    3    3  502    0 -0.26865072856E+02 -0.68780324067E+02 -0.30499760121E+02  0.80001080529E+02  0.41800000000E+01 0.  1.
         -5    1    3    3    0  502  0.38486484723E+02  0.12213706744E+01 -0.12569113693E+03  0.13152351711E+03  0.41800000000E+01 0.  1.
        -11    1    1    2    0    0 -0.39540467706E+02  0.28591402051E+02  0.24359562573E+01  0.48855406462E+02  0.00000000000E+00 0.  1.
         11    1    1    2    0    0  0.27919055840E+02  0.38967551342E+02 -0.76278996494E+02  0.90091226225E+02  0.00000000000E+00 0. -1.
</event>
<event>
 7    1  0.2943257E-009  0.1317288E+03  0.7561462E-02  0.1224913E+00
         -2   -1    0    0    0  501 -0.00000000000E+00  0.00000000000E+00  0.57954262443E+02  0.57954262443E+02  0.00000000000E+00 0.  1.
          2   -1    0    0  501    0  0.00000000000E+00 -0.00000000000E+00 -0.39943175403E+03  0.39943175403E+03  0.00000000000E+00 0. -1.
         25    2    1    2    0    0 -0.92449644788E+02 -0.11685153020E+02 -0.26234862362E+03  0.30521764332E+03  0.12509008697E+03 0.  0.
          5    1    3    3  502    0  0.95182425879E+01  0.28060323243E+02 -0.12520154493E+02  0.32437714947E+02  0.41800000000E+01 0. -1.
         -5    1    3    3    0  502 -0.10196788738E+03 -0.39745476262E+02 -0.24982846912E+03  0.27277992837E+03  0.41800000000E+01 0. -1.
        -11    1    1    2    0    0  0.24385623753E+02  0.42734068882E+02 -0.54460381526E+02  0.73394771238E+02  0.00000000000E+00 0. -1.
         11    1    1    2    0    0  0.68064021034E+02 -0.31048915862E+02 -0.24668486448E+02  0.78773601919E+02  0.00000000000E+00 0.  1.
</event>
<event>
 7    1  0.2943257E-009  0.9714980E+02  0.7561462E-02  0.1286406E+00
         -2   -1    0    0    0  501 -0.00000000000E+00  0.00000000000E+00  0.18049621357E+02  0.18049621357E+02  0.00000000000E+00 0.  1.
          2   -1    0    0  501    0  0.00000000000E+00 -0.00000000000E+00 -0.66673823656E+03  0.66673823656E+03  0.00000000000E+00 0. -1.
         25    2    1    2    0    0  0.25326564035E+01 -0.15311936270E+02 -0.39421120712E+03  0.41387489398E+03  0.12509629212E+03 0.  0.
          5    1    3    3  502    0  0.32331006368E+02  0.37890655971E+02 -0.27911916917E+03  0.28355948015E+03  0.41800000000E+01 0.  1.
         -5    1    3    3    0  502 -0.29798349965E+02 -0.53202592241E+02 -0.11509203795E+03  0.13031541383E+03  0.41800000000E+01 0.  1.
        -11    1    1    2    0    0 -0.35976308894E+02  0.29829184069E+02 -0.19981519207E+03  0.20520766557E+03  0.00000000000E+00 0. -1.
         11    1    1    2    0    0  0.33443652491E+02 -0.14517247799E+02 -0.54662216006E+02  0.65705298373E+02  0.00000000000E+00 0.  1.
</event>
<event>
 7    1  0.2943257E-009  0.1129808E+03  0.7561462E-02  0.1255147E+00
         -2   -1    0    0    0  501 -0.00000000000E+00  0.00000000000E+00  0.26347180896E+02  0.26347180896E+02  0.00000000000E+00 0. -1.
          2   -1    0    0  501    0  0.00000000000E+00 -0.00000000000E+00 -0.63268517618E+03  0.63268517618E+03  0.00000000000E+00 0.  1.
         25    2    1    2    0    0 -0.10545986268E+02 -0.67558429119E+02 -0.37186595780E+03  0.39825225944E+03  0.12508082351E+03 0.  0.
          5    1    3    3  502    0  0.48040282858E+02 -0.22633096129E+01 -0.79784586299E+02  0.93252581510E+02  0.41800000000E+01 0.  1.
         -5    1    3    3    0  502 -0.58586269126E+02 -0.65295119506E+02 -0.29208137150E+03  0.30499967793E+03  0.41800000000E+01 0.  1.
        -11    1    1    2    0    0  0.31912463819E+02  0.19837766462E+02 -0.25610516029E+02  0.45473518189E+02  0.00000000000E+00 0. -1.
         11    1    1    2    0    0 -0.21366477551E+02  0.47720662657E+02 -0.20886152145E+03  0.21530657944E+03  0.00000000000E+00 0.  1.
</event>
<event>
 7    1  0.3695019E-009  0.9702942E+02  0.7561462E-02  0.1286670E+00
          2   -1    0    0  501    0  0.00000000000E+00  0.00000000000E+00  0.56339707229E+03  0.56339707229E+03  0.00000000000E+00 0. -1.
         -2   -1    0    0    0  501 -0.00000000000E+00 -0.00000000000E+00 -0.23496781859E+02  0.23496781859E+02  0.00000000000E+00 0.  1.
         25    2    1    2    0    0 -0.38044268112E+02  0.61657020186E+01  0.31735978779E+03  0.34329335375E+03  0.12509080543E+03 0.  0.
          5    1    3    3  502    0  0.10671194224E+02  0.49125673754E+02  0.62835705662E+02  0.80579181641E+02  0.41800000000E+01 0.  1.
         -5    1    3    3    0  502 -0.48715462336E+02 -0.42959971735E+02  0.25452408213E+03  0.26271417211E+03  0.41800000000E+01 0.  1.
        -11    1    1    2    0    0  0.34874721715E+02 -0.35065052542E+02  0.20209577129E+03  0.20805889767E+03  0.00000000000E+00 0. -1.
         11    1    1    2    0    0  0.31695463974E+01  0.28899350523E+02  0.20444731348E+02  0.35541602734E+02  0.00000000000E+00 0.  1.
</event>
<event>
 7    1  0.2943257E-009  0.1065464E+03  0.7561462E-02  0.1267103E+00
         -2   -1    0    0    0  501 -0.00000000000E+00  0.00000000000E+00  0.15623623593E+02  0.15623623593E+02  0.00000000000E+00 0.  1.
          2   -1    0    0  501    0  0.00000000000E+00 -0.00000000000E+00 -0.81944294825E+03  0.81944294825E+03  0.00000000000E+00 0. -1.
         25    2    1    2    0    0  0.15676979426E+02 -0.19228064960E+02 -0.49712687667E+03  0.51322347710E+03  0.12509084609E+03 0.  0.
          5    1    3    3  502    0 -0.93818301576E+01 -0.64666836304E+02 -0.37168486585E+03  0.37740817473E+03  0.41800000000E+01 0. -1.
         -5    1    3    3    0  502  0.25058809583E+02  0.45438771344E+02 -0.12544201082E+03  0.13581530237E+03  0.41800000000E+01 0. -1.
        -11    1    1    2    0    0  0.29612506506E+02  0.36573985500E+02 -0.18376356232E+03  0.18969344689E+03  0.00000000000E+00 0.  1.
         11    1    1    2    0    0 -0.45289485932E+02 -0.17345920540E+02 -0.12292888566E+03  0.13214964785E+03  0.00000000000E+00 0. -1.
</event>
<event>
 7    1  0.2943257E-009  0.1294815E+03  0.7561462E-02  0.1228227E+00
         -2   -1    0    0    0  501 -0.00000000000E+00  0.00000000000E+00  0.39092063496E+02  0.39092063496E+02  0.00000000000E+00 0.  1.
          2   -1    0    0  501    0  0.00000000000E+00 -0.00000000000E+00 -0.50996045702E+03  0.50996045702E+03  0.00000000000E+00 0. -1.
         25    2    1    2    0    0 -0.85681168556E+02  0.23632249352E+02 -0.22888494237E+03  0.27556534992E+03  0.12509276309E+03 0.  0.
          5    1    3    3  502    0 -0.97425946506E+02  0.44634229300E+02 -0.10786816848E+03  0.15210865738E+03  0.41800000000E+01 0.  1.
         -5    1    3    3    0  502  0.11744777951E+02 -0.21001979948E+02 -0.12101677389E+03  0.12345669254E+03  0.41800000000E+01 0.  1.
        -11    1    1    2    0    0  0.87144189834E+01 -0.46257656420E+02 -0.95705267484E+02  0.10665463000E+03  0.00000000000E+00 0. -1.
         11    1    1    2    0    0  0.76966749572E+02  0.22625407068E+02 -0.14627818367E+03  0.16683254060E+03  0.00000000000E+00 0.  1.
</event>
<event>
 7    1  0.2943257E-009  0.1235822E+03  0.7561462E-02  0.1237302E+00
          1   -1    0    0  501    0  0.00000000000E+00  0.00000000000E+00  0.58574986675E+03  0.58574986675E+03  0.00000000000E+00 0. -1.
         -1   -1    0    0    0  501 -0.00000000000E+00 -0.00000000000E+00 -0.35867164220E+02  0.35867164220E+02  0.00000000000E+00 0.  1.
         25    2    1    2    0    0  0.61701354604E+02 -0.68707846604E+02  0.35111600980E+03  0.38399945230E+03  0.12508118038E+03 0.  0.
          5    1    3    3  502    0  0.10968037407E+02 -0.83257575895E+02  0.29543081473E+03  0.30716275894E+03  0.41800000000E+01 0. -1.
         -5    1    3    3    0  502  0.50733317197E+02  0.14549729291E+02  0.55685195065E+02  0.76836693354E+02  0.41800000000E+01 0. -1.
        -11    1    1    2    0    0 -0.98258287402E+01  0.55832375928E+02  0.16482527725E+03  0.17430195964E+03  0.00000000000E+00 0. -1.
         11    1    1    2    0    0 -0.51875525864E+02  0.12875470676E+02  0.33941415477E+02  0.63315619031E+02  0.00000000000E+00 0.  1.
</event>
<event>
 6    1  0.2943257E-009  0.1557321E+03  0.7561462E-02  0.1193601E+00
         -1   -1    0    0    0  501 -0.00000000000E+00  0.00000000000E+00  0.47279170794E+02  0.47279170794E+02  0.00000000000E+00 0.  1.
          1   -1    0    0  501    0  0.00000000000E+00 -0.00000000000E+00 -0.62301470354E+03  0.62301470354E+03  0.00000000000E+00 0. -1.
          5    1    1    2  502    0 -0.38561505939E+02 -0.48812904994E+02 -0.58283836257E+02  0.85347333895E+02  0.41800000000E+01 0. -1.
         -5    1    1    2    0  502 -0.93154611622E+02  0.64085612743E+02 -0.21809091357E+03  0.24569466093E+03  0.41800000000E+01 0. -1.
        -11    1    1    2    0    0  0.49048632967E+02 -0.20449218057E+02 -0.38677483885E+02  0.65725844801E+02  0.00000000000E+00 0.  1.
         11    1    1    2    0    0  0.82667484593E+02  0.51765103086E+01 -0.26068329903E+03  0.27352603470E+03  0.00000000000E+00 0. -1.
</event>
<event>
 7    1  0.2943257E-009  0.9993372E+02  0.7561462E-02  0.1280435E+00
         -2   -1    0    0    0  501 -0.00000000000E+00  0.00000000000E+00  0.33512496041E+03  0.33512496041E+03  0.00000000000E+00 0.  1.
          2   -1    0    0  501    0  0.00000000000E+00 -0.00000000000E+00 -0.35695615555E+02  0.35695615555E+02  0.00000000000E+00 0. -1.
         25    2    1    2    0    0 -0.93218784731E+00  0.27207631525E+01  0.17954301396E+03  0.21884084703E+03  0.12508937182E+03 0.  0.
          5    1    3    3  502    0  0.49843448614E+02 -0.17398306582E+02  0.14428897050E+03  0.15370052000E+03  0.41800000000E+01 0. -1.
         -5    1    3    3    0  502 -0.50775636461E+02  0.20119069734E+02  0.35254043463E+02  0.65140327029E+02  0.41800000000E+01 0. -1.
        -11    1    1    2    0    0 -0.45321269053E+02  0.35347735512E+01  0.46663097557E+02  0.65145657770E+02  0.00000000000E+00 0. -1.
         11    1    1    2    0    0  0.46253456900E+02 -0.62555367037E+01  0.73223233341E+02  0.86834071168E+02  0.00000000000E+00 0.  1.
</event>
<event>
 7    1  0.2943257E-009  0.1194766E+03  0.7561462E-02  0.1243963E+00
          3   -1    0    0  501    0  0.00000000000E+00  0.00000000000E+00  0.66261485038E+02  0.66261485038E+02  0.00000000000E+00 0. -1.
         -3   -1    0    0    0  501 -0.00000000000E+00 -0.00000000000E+00 -0.31994359987E+03  0.31994359987E+03  0.00000000000E+00 0.  1.
         25    2    1    2    0    0 -0.90306764851E+02 -0.60831251919E+01 -0.18441018116E+03  0.24051358051E+03  0.12508937327E+03 0.  0.
          5    1    3    3  502    0 -0.23736425365E+02 -0.36699392006E+02 -0.15558847863E+03  0.16166480861E+03  0.41800000000E+01 0.  1.
         -5    1    3    3    0  502 -0.66570339486E+02  0.30616266815E+02 -0.28821702536E+02  0.78848771899E+02  0.41800000000E+01 0.  1.
        -11    1    1    2    0    0  0.46213366784E+02 -0.37607255766E+02 -0.56921349493E+02  0.82401583625E+02  0.00000000000E+00 0.  1.
         11    1    1    2    0    0  0.44093398067E+02  0.43690380958E+02 -0.12350584175E+02  0.63289920768E+02  0.00000000000E+00 0. -1.
</event>
<event>
 7    1  0.2943257E-009  0.1257557E+03  0.7561462E-02  0.1233893E+00
         -1   -1    0    0    0  501 -0.00000000000E+00  0.00000000000E+00  0.23229471091E+03  0.23229471091E+03  0.00000000000E+00 0.  1.
          1   -1    0    0  501    0  0.00000000000E+00 -0.00000000000E+00 -0.72377383804E+02  0.72377383804E+02  0.00000000000E+00 0. -1.
         25    2    1    2    0    0  0.51997949461E+02  0.56190591608E+02  0.10112878270E+03  0.17814476855E+03  0.12508940219E+03 0.  0.
          5    1    3    3  502    0  0.69960581387E+02 -0.99785362152E+01  0.78768953069E+02  0.10590597009E+03  0.41800000000E+01 0.  1.
         -5    1    3    3    0  502 -0.17962631926E+02  0.66169127824E+02  0.22359829630E+02  0.72238798466E+02  0.41800000000E+01 0.  1.
        -11    1    1    2    0    0 -0.62113167660E+01 -0.65088992559E+02  0.35242401769E+02  0.74277750981E+02  0.00000000000E+00 0.  1.
         11    1    1    2    0    0 -0.45786632695E+02  0.88984009509E+01  0.23546142634E+02  0.52249575175E+02  0.00000000000E+00 0. -1.
</event>
<event>
 7    1  0.2943257E-009  0.7130855E+02  0.7561462E-02  0.1355699E+00
         -1   -1    0    0    0  501 -0.00000000000E+00  0.00000000000E+00  0.37525200340E+03  0.37525200340E+03  0.00000000000E+00 0.  1.
          1   -1    0    0  501    0  0.00000000000E+00 -0.00000000000E+00 -0.35359964868E+02  0.35359964868E+02  0.00000000000E+00 0. -1.
         25    2    1    2    0    0  0.34408639291E+02 -0.10560361490E+02  0.21812732049E+03  0.25401579396E+03  0.12509604289E+03 0.  0.
          5    1    3    3  502    0 -0.77557937320E+01 -0.27226035258E+02 -0.25133647110E+01  0.28726272548E+02  0.41800000000E+01 0. -1.
         -5    1    3    3    0  502  0.42164433023E+02  0.16665673768E+02  0.22064068520E+03  0.22528952141E+03  0.41800000000E+01 0. -1.
        -11    1    1    2    0    0 -0.49559002182E+02 -0.74824482609E+00  0.20591627692E+02  0.53671870645E+02  0.00000000000E+00 0. -1.
         11    1    1    2    0    0  0.15150362891E+02  0.11308606317E+02  0.10117309036E+03  0.10292430367E+03  0.00000000000E+00 0.  1.
</event>
<event>
 7    1  0.2943257E-009  0.1176201E+03  0.7561462E-02  0.1247076E+00
          1   -1    0    0  501    0  0.00000000000E+00  0.00000000000E+00  0.74593540649E+03  0.74593540649E+03  0.00000000000E+00 0.  1.
         -1   -1    0    0    0  501 -0.00000000000E+00 -0.00000000000E+00 -0.28711860241E+02  0.28711860241E+02  0.00000000000E+00 0. -1.
         25    2    1    2    0    0 -0.37420664554E+02  0.43066790940E+02  0.60154560806E+03  0.61705867277E+03  0.12509689225E+03 0.  0.
          5    1    3    3  502    0 -0.51115590640E+02 -0.26165752984E+02  0.38456229746E+03  0.38884840653E+03  0.41800000000E+01 0.  1.
         -5    1    3    3    0  502  0.13694926086E+02  0.69232543923E+02  0.21698331060E+03  0.22821026624E+03  0.41800000000E+01 0.  1.
        -11    1    1    2    0    0  0.66906327555E+02 -0.38316218013E+02  0.81181936427E+02  0.11196024309E+03  0.00000000000E+00 0.  1.
         11    1    1    2    0    0 -0.29485663001E+02 -0.47505729271E+01  0.34496001764E+02  0.45628350874E+02  0.00000000000E+00 0. -1.
</event>
<event>
 7    1  0.2943257E-009  0.1210543E+03  0.7561462E-02  0.1241368E+00
          2   -1    0    0  501    0  0.00000000000E+00  0.00000000000E+00  0.12312856454E+03  0.12312856454E+03  0.00000000000E+00 0. -1.
         -2   -1    0    0    0  501 -0.00000000000E+00 -0.00000000000E+00 -0.14514249225E+03  0.14514249225E+03  0.00000000000E+00 0.  1.
         25    2    1    2    0    0  0.67975534367E+02 -0.86945341689E+01 -0.45969434051E+02  0.14985872425E+03  0.12509268631E+03 0.  0.
          5    1    3    3  502    0  0.21862218675E+01 -0.55726592401E+02  0.15851455713E+01  0.55948348976E+02  0.41800000000E+01 0.  1.
         -5    1    3    3    0  502  0.65789312499E+02  0.47032058232E+02 -0.47554579623E+02  0.93910375272E+02  0.41800000000E+01 0.  1.
        -11    1    1    2    0    0  0.16007184681E+02  0.13702426973E+02 -0.14834062730E+02  0.25768893718E+02  0.00000000000E+00 0.  1.
         11    1    1    2    0    0 -0.83982719048E+02 -0.50078928042E+01  0.38789569070E+02  0.92643438827E+02  0.00000000000E+00 0. -1.
</event>
<event>
 7    1  0.2943257E-009  0.1158879E+03  0.7561462E-02  0.1250039E+00
          2   -1    0    0  501    0  0.00000000000E+00  0.00000000000E+00  0.30137667500E+03  0.30137667500E+03  0.00000000000E+00 0. -1.
         -2   -1    0    0    0  501 -0.00000000000E+00 -0.00000000000E+00 -0.69885190609E+02  0.69885190609E+02  0.00000000000E+00 0.  1.
         25    2    1    2    0    0 -0.35486865753E+02  0.82251443820E+02  0.80831088301E+02  0.17380092460E+03  0.12509388036E+03 0.  0.
          5    1    3    3  502    0 -0.52125342144E+02  0.67562375570E+02  0.10849056938E+03  0.13809200531E+03  0.41800000000E+01 0. -1.
         -5    1    3    3    0  502  0.16638476391E+02  0.14689068249E+02 -0.27659481082E+02  0.35708919283E+02  0.41800000000E+01 0. -1.
        -11    1    1    2    0    0  0.25159090891E+02  0.12742336678E+02  0.16255245177E+02  0.32551190366E+02  0.00000000000E+00 0. -1.
         11    1    1    2    0    0  0.10327774863E+02 -0.94993780498E+02  0.13440515092E+03  0.16490975065E+03  0.00000000000E+00 0.  1.
</event>
<event>
 7    1  0.2943257E-009  0.7518528E+02  0.7561462E-02  0.1343298E+00
          1   -1    0    0  501    0  0.00000000000E+00  0.00000000000E+00  0.88380337749E+02  0.88380337749E+02  0.00000000000E+00 0. -1.
         -1   -1    0    0    0  501 -0.00000000000E+00 -0.00000000000E+00 -0.14990143255E+03  0.14990143255E+03  0.00000000000E+00 0.  1.
         25    2    1    2    0    0  0.23291279475E+02  0.12953251682E+02 -0.50904715952E+01  0.12800303920E+03  0.12509434325E+03 0.  0.
          5    1    3    3  502    0 -0.12160087723E+02  0.24271807213E+02 -0.57421611556E+02  0.63652982903E+02  0.41800000000E+01 0. -1.
         -5    1    3    3    0  502  0.35451367197E+02 -0.11318555531E+02  0.52331139961E+02  0.64350056294E+02  0.41800000000E+01 0. -1.
        -11    1    1    2    0    0  0.30040501884E+02  0.18778899993E+01  0.15208168174E+01  0.30137536530E+02  0.00000000000E+00 0. -1.
         11    1    1    2    0    0 -0.53331781359E+02 -0.14831141681E+02 -0.57951440022E+02  0.80141194570E+02  0.00000000000E+00 0.  1.
</event>
<event>
 7    1  0.2943257E-009  0.1396386E+03  0.7561462E-02  0.1213816E+00
          2   -1    0    0  501    0  0.00000000000E+00  0.00000000000E+00  0.27772362021E+03  0.27772362021E+03  0.00000000000E+00 0. -1.
         -2   -1    0    0    0  501 -0.00000000000E+00 -0.00000000000E+00 -0.87175130377E+02  0.87175130377E+02  0.00000000000E+00 0.  1.
         25    2    1    2    0    0  0.10423349942E+03 -0.17808097934E+02  0.14171908703E+03  0.21659497888E+03  0.12508930608E+03 0.  0.
          5    1    3    3  502    0  0.13120511540E+03 -0.90104034138E+01  0.96995212998E+02  0.16346716313E+03  0.41800000000E+01 0. -1.
         -5    1    3    3    0  502 -0.26971615988E+02 -0.87976945201E+01  0.44723874030E+02  0.53127815747E+02  0.41800000000E+01 0. -1.
        -11    1    1    2    0    0 -0.17510763104E+02 -0.18075677057E+02  0.48283568531E+02  0.54448690669E+02  0.00000000000E+00 0.  1.
         11    1    1    2    0    0 -0.86722736313E+02  0.35883774990E+02  0.54583427103E+00  0.93855081036E+02  0.00000000000E+00 0. -1.
</event>
<event>
 7    1  0.2943257E-009  0.1052149E+03  0.7561462E-02  0.1269697E+00
          1   -1    0    0  501    0  0.00000000000E+00  0.00000000000E+00  0.54916552813E+03  0.54916552813E+03  0.00000000000E+00 0. -1.
         -1   -1    0    0    0  501 -0.00000000000E+00 -0.00000000000E+00 -0.24501199756E+02  0.24501199756E+02  0.00000000000E+00 0.  1.
         25    2    1    2    0    0 -0.32999757888E+02  0.22850650428E+02  0.31000276123E+03  0.33668798810E+03  0.12508378438E+03 0.  0.
          5    1    3    3  502    0 -0.69071298481E+02 -0.22883147774E+02  0.17813906284E+03  0.19247202611E+03  0.41800000000E+01 0.  1.
         -5    1    3    3    0  502  0.36071540593E+02  0.45733798202E+02  0.13186369839E+03  0.14421596199E+03  0.41800000000E+01 0.  1.
        -11    1    1    2    0    0 -0.92197768722E+01 -0.34208445531E+02  0.17298739238E+03  0.17657819784E+03  0.00000000000E+00 0. -1.
         11    1    1    2    0    0  0.42219534760E+02  0.11357795103E+02  0.41674174766E+02  0.60400541946E+02  0.00000000000E+00 0.  1.
</event>
<event>
 7    1  0.2943257E-009  0.1093169E+03  0.7561462E-02  0.1261840E+00
         -2   -1    0    0    0  501 -0.00000000000E+00  0.00000000000E+00  0.16372792578E+02  0.16372792578E+02  0.00000000000E+00 0.  1.
          2   -1    0    0  501    0  0.00000000000E+00 -0.00000000000E+00 -0.12232269983E+04  0.12232269983E+04  0.00000000000E+00 0. -1.
         25    2    1    2    0    0  0.62764140232E+02  0.39738342976E+02 -0.87649049727E+03  0.88848304253E+03  0.12509217346E+03 0.  0.
          5    1    3    3  502    0 -0.55963137116E+01  0.29948785473E+02 -0.67010493295E+03  0.67081021313E+03  0.41800000000E+01 0. -1.
         -5    1    3    3    0  502  0.68360453944E+02  0.97895575033E+01 -0.20638556432E+03  0.21767282941E+03  0.41800000000E+01 0. -1.
        -11    1    1    2    0    0 -0.45079398961E+02  0.25026956378E+02 -0.15432386446E+03  0.16270942166E+03  0.00000000000E+00 0. -1.
         11    1    1    2    0    0 -0.17684741271E+02 -0.64765299354E+02 -0.17603984398E+03  0.18840732667E+03  0.00000000000E+00 0.  1.
</event>
<event>
 7    1  0.2943257E-009  0.1442546E+03  0.7561462E-02  0.1207716E+00
          1   -1    0    0  501    0  0.00000000000E+00  0.00000000000E+00  0.18127582529E+03  0.18127582529E+03  0.00000000000E+00 0. -1.
         -1   -1    0    0    0  501 -0.00000000000E+00 -0.00000000000E+00 -0.15727651987E+03  0.15727651987E+03  0.00000000000E+00 0.  1.
         25    2    1    2    0    0 -0.11654230184E+03 -0.53031771299E+02  0.26247187158E+02  0.18091670174E+03  0.12508981273E+03 0.  0.
          5    1    3    3  502    0 -0.65761754845E+02 -0.10817246838E+02 -0.47416492351E+02  0.81898824023E+02  0.41800000000E+01 0.  1.
         -5    1    3    3    0  502 -0.50780546998E+02 -0.42214524461E+02  0.73663679509E+02  0.99017877718E+02  0.41800000000E+01 0.  1.
        -11    1    1    2    0    0  0.94270666838E+02 -0.39825117875E+01  0.11044842030E+02  0.94998987162E+02  0.00000000000E+00 0.  1.
         11    1    1    2    0    0  0.22271635005E+02  0.57014283087E+02 -0.13292723777E+02  0.62636656257E+02  0.00000000000E+00 0. -1.
</event>
<event>
 7    1  0.2943257E-009  0.2799594E+03  0.7561462E-02  0.1095711E+00
         -1   -1    0    0    0  501 -0.00000000000E+00  0.00000000000E+00  0.21362685853E+04  0.21362685853E+04  0.00000000000E+00 0.  1.
          1   -1    0    0  501    0  0.00000000000E+00 -0.00000000000E+00 -0.38107309845E+02  0.38107309845E+02  0.00000000000E+00 0. -1.
         25    2    1    2    0    0  0.19183343756E+03  0.18088607891E+03  0.11062419803E+04  0.11440901130E+04  0.12510406181E+03 0.  0.
          5    1    3    3  502    0  0.29769171113E+02  0.92497178123E+02  0.25194776166E+03  0.27006865518E+03  0.41800000000E+01 0. -1.
         -5    1    3    3    0  502  0.16206426645E+03  0.88388900791E+02  0.85429421867E+03  0.87402145780E+03  0.41800000000E+01 0. -1.
        -11    1    1    2    0    0 -0.83805684032E+02 -0.13867118660E+03  0.60910030823E+03  0.63028269543E+03  0.00000000000E+00 0.  1.
         11    1    1    2    0    0 -0.10802775353E+03 -0.42214892312E+02  0.38281898691E+03  0.40000308674E+03  0.00000000000E+00 0. -1.
</event>
<event>
 7    1  0.2943257E-009  0.1567371E+03  0.7561462E-02  0.1192431E+00
          1   -1    0    0  501    0  0.00000000000E+00  0.00000000000E+00  0.46314801252E+03  0.46314801252E+03  0.00000000000E+00 0. -1.
         -1   -1    0    0    0  501 -0.00000000000E+00 -0.00000000000E+00 -0.70082334918E+02  0.70082334918E+02  0.00000000000E+00 0.  1.
         25    2    1    2    0    0 -0.13273498919E+03 -0.55050571689E+02  0.20072891102E+03  0.27674912861E+03  0.12509533031E+03 0.  0.
          5    1    3    3  502    0 -0.93401347454E+02  0.95460869217E+01  0.17149542035E+03  0.19555840837E+03  0.41800000000E+01 0. -1.
         -5    1    3    3    0  502 -0.39333641741E+02 -0.64596658611E+02  0.29233490668E+02  0.81190720239E+02  0.41800000000E+01 0. -1.
        -11    1    1    2    0    0  0.22590327188E+02  0.10925747830E+02  0.10807888145E+03  0.11095377174E+03  0.00000000000E+00 0. -1.
         11    1    1    2    0    0  0.11014466201E+03  0.44124823859E+02  0.84257885130E+02  0.14552744709E+03  0.00000000000E+00 0.  1.
</event>
<event>
 7    1  0.2943257E-009  0.1175149E+03  0.7561462E-02  0.1247254E+00
         -1   -1    0    0    0  501 -0.00000000000E+00  0.00000000000E+00  0.31050018414E+03  0.31050018414E+03  0.00000000000E+00 0.  1.
          1   -1    0    0  501    0  0.00000000000E+00 -0.00000000000E+00 -0.63262600237E+02  0.63262600237E+02  0.00000000000E+00 0. -1.
         25    2    1    2    0    0 -0.15231976925E+02  0.86461251992E+02  0.14514696088E+03  0.21075551905E+03  0.12507072935E+03 0.  0.
          5    1    3    3  502    0 -0.57760651539E+02  0.41076147789E+02  0.24772849364E+02  0.75197800825E+02  0.41800000000E+01 0. -1.
         -5    1    3    3    0  502  0.42528674613E+02  0.45385104202E+02  0.12037411151E+03  0.13555771822E+03  0.41800000000E+01 0. -1.
        -11    1    1    2    0    0  0.29748023403E+02 -0.80815633219E+02  0.11437514687E+03  0.14317047772E+03  0.00000000000E+00 0.  1.
         11    1    1    2    0    0 -0.14516046478E+02 -0.56456187729E+01 -0.12284523840E+02  0.19836787610E+02  0.00000000000E+00 0. -1.
</event>
<event>
 7    1  0.2943257E-009  0.1258462E+03  0.7561462E-02  0.1233753E+00
         -1   -1    0    0    0  501 -0.00000000000E+00  0.00000000000E+00  0.14960142427E+03  0.14960142427E+03  0.00000000000E+00 0.  1.
          1   -1    0    0  501    0  0.00000000000E+00 -0.00000000000E+00 -0.14944605165E+03  0.14944605165E+03  0.00000000000E+00 0. -1.
         25    2    1    2    0    0  0.15127015903E+02  0.80731886939E+02  0.61593350428E+02  0.16182702602E+03  0.12509109222E+03 0.  0.
          5    1    3    3  502    0 -0.10865652312E+02 -0.31633495392E+02  0.19748683079E+02  0.39066908174E+02  0.41800000000E+01 0. -1.
         -5    1    3    3    0  502  0.25992668215E+02  0.11236538233E+03  0.41844667348E+02  0.12276011784E+03  0.41800000000E+01 0. -1.
        -11    1    1    2    0    0  0.13390070574E+02  0.33394148855E+01  0.14775216650E+02  0.20217633610E+02  0.00000000000E+00 0.  1.
         11    1    1    2    0    0 -0.28517086476E+02 -0.84071301824E+02 -0.76213194460E+02  0.11700281630E+03  0.00000000000E+00 0. -1.
</event>
<event>
 7    1  0.2943257E-009  0.1286785E+03  0.7561462E-02  0.1229430E+00
          1   -1    0    0  501    0  0.00000000000E+00  0.00000000000E+00  0.38604359009E+03  0.38604359009E+03  0.00000000000E+00 0. -1.
         -1   -1    0    0    0  501 -0.00000000000E+00 -0.00000000000E+00 -0.64237878728E+02  0.64237878728E+02  0.00000000000E+00 0.  1.
         25    2    1    2    0    0 -0.10186165641E+03 -0.31005681598E+02  0.12000828768E+03  0.20343633982E+03  0.12508879210E+03 0.  0.
          5    1    3    3  502    0 -0.44539938893E+02 -0.49698330294E+02  0.12606019405E+03  0.14269679434E+03  0.41800000000E+01 0. -1.
         -5    1    3    3    0  502 -0.57321717519E+02  0.18692648695E+02 -0.60519063706E+01  0.60739545481E+02  0.41800000000E+01 0. -1.
        -11    1    1    2    0    0  0.83309210531E+02  0.54922118092E+02  0.10255223813E+03  0.14308677493E+03  0.00000000000E+00 0.  1.
         11    1    1    2    0    0  0.18552445881E+02 -0.23916436494E+02  0.99245185555E+02  0.10375835407E+03  0.00000000000E+00 0. -1.
</event>
<event>
 6    1  0.2943257E-009  0.1971339E+03  0.7561462E-02  0.1152180E+00
          1   -1    0    0  501    0  0.00000000000E+00  0.00000000000E+00  0.92984581655E+02  0.92984581655E+02  0.00000000000E+00 0. -1.
         -1   -1    0    0    0  501 -0.00000000000E+00 -0.00000000000E+00 -0.57048657853E+03  0.57048657853E+03  0.00000000000E+00 0.  1.
          5    1    1    2  502    0 -0.20569482835E+02  0.20248269790E+02 -0.59222311318E+02  0.66014018294E+02  0.41800000000E+01 0.  1.
         -5    1    1    2    0  502 -0.14192533455E+03 -0.95646123616E+02 -0.50801789350E+02  0.17857568634E+03  0.41800000000E+01 0.  1.
        -11    1    1    2    0    0  0.96057133779E+02  0.36563445523E+01 -0.12694400173E+03  0.15923291550E+03  0.00000000000E+00 0.  1.
         11    1    1    2    0    0  0.66437683606E+02  0.71741509274E+02 -0.24053389448E+03  0.25964854004E+03  0.00000000000E+00 0. -1.
</event>
<event>
 7    1  0.2943257E-009  0.1418437E+03  0.7561462E-02  0.1210869E+00
         -3   -1    0    0    0  501 -0.00000000000E+00  0.00000000000E+00  0.13663553509E+03  0.13663553509E+03  0.00000000000E+00 0.  1.
          3   -1    0    0  501    0  0.00000000000E+00 -0.00000000000E+00 -0.23314716149E+03  0.23314716149E+03  0.00000000000E+00 0. -1.
         25    2    1    2    0    0 -0.11386797524E+03  0.73589527309E+02 -0.10808037399E+02  0.18478552903E+03  0.12509014250E+03 0.  0.
          5    1    3    3  502    0 -0.99414135234E+02  0.82773886408E+02 -0.52382445134E+02  0.13962836214E+03  0.41800000000E+01 0.  1.
         -5    1    3    3    0  502 -0.14453840002E+02 -0.91843590984E+01  0.41574407734E+02  0.45157166888E+02  0.41800000000E+01 0.  1.
        -11    1    1    2    0    0  0.57864151994E+02 -0.27343463017E+02  0.10082336737E+02  0.64788722552E+02  0.00000000000E+00 0.  1.
         11    1    1    2    0    0  0.56003823242E+02 -0.46246064292E+02 -0.95785925733E+02  0.12020844500E+03  0.00000000000E+00 0. -1.
</event>
<event>
 7    1  0.2943257E-009  0.1273909E+03  0.7561462E-02  0.1231379E+00
         -2   -1    0    0    0  501 -0.00000000000E+00  0.00000000000E+00  0.41947413300E+03  0.41947413300E+03  0.00000000000E+00 0.  1.
          2   -1    0    0  501    0  0.00000000000E+00 -0.00000000000E+00 -0.48724359225E+02  0.48724359225E+02  0.00000000000E+00 0. -1.
         25    2    1    2    0    0  0.50724003586E+02  0.57220387226E+02  0.28856300757E+03  0.32368469737E+03  0.12512424513E+03 0.  0.
          5    1    3    3  502    0  0.84651421746E+02  0.68420427178E+01  0.15203604894E+03  0.17419847683E+03  0.41800000000E+01 0.  1.
         -5    1    3    3    0  502 -0.33927418160E+02  0.50378344508E+02  0.13652695863E+03  0.14948622054E+03  0.41800000000E+01 0.  1.
        -11    1    1    2    0    0  0.28837624379E+01  0.17039888949E+02  0.40205659554E+02  0.43762643446E+02  0.00000000000E+00 0.  1.
         11    1    1    2    0    0 -0.53607766024E+02 -0.74260276175E+02  0.41981106656E+02  0.10075115142E+03  0.00000000000E+00 0. -1.
</event>
<event>
 7    1  0.2943257E-009  0.2729410E+03  0.7561462E-02  0.1099608E+00
          2   -1    0    0  501    0  0.00000000000E+00  0.00000000000E+00  0.21682195034E+04  0.21682195034E+04  0.00000000000E+00 0. -1.
         -2   -1    0    0    0  501 -0.00000000000E+00 -0.00000000000E+00 -0.39608822673E+02  0.39608822673E+02  0.00000000000E+00 0.  1.
         25    2    1    2    0    0  0.22751485916E+03  0.12271491730E+03  0.13401895170E+04  0.13706122656E+04  0.12509228218E+03 0.  0.
          5    1    3    3  502    0  0.14693476255E+03  0.33086807887E+02  0.96005725411E+03  0.97180860506E+03  0.41800000000E+01 0.  1.
         -5    1    3    3    0  502  0.80580096608E+02  0.89628109414E+02  0.38013226290E+03  0.39880366055E+03  0.41800000000E+01 0.  1.
        -11    1    1    2    0    0 -0.28982459126E+02 -0.59626292222E+02  0.12012482616E+03  0.13720514393E+03  0.00000000000E+00 0.  1.
         11    1    1    2    0    0 -0.19853240003E+03 -0.63088625078E+02  0.66829633754E+03  0.70001091652E+03  0.00000000000E+00 0. -1.
</event>
<event>
 7    1  0.2943257E-009  0.9521324E+02  0.7561462E-02  0.1290697E+00
          1   -1    0    0  501    0  0.00000000000E+00  0.00000000000E+00  0.39576642873E+03  0.39576642873E+03  0.00000000000E+00 0. -1.
         -1   -1    0    0    0  501 -0.00000000000E+00 -0.00000000000E+00 -0.38346639578E+02  0.38346639578E+02  0.00000000000E+00 0.  1.
         25    2    1    2    0    0  0.58069646299E+02  0.17042615257E+01  0.17563756004E+03  0.22332051063E+03  0.12509400322E+03 0.  0.
          5    1    3    3  502    0  0.66069001417E+02 -0.17304820982E+02  0.27579365905E+02  0.73774410205E+02  0.41800000000E+01 0.  1.
         -5    1    3    3    0  502 -0.79993551184E+01  0.19009082508E+02  0.14805819414E+03  0.14954610042E+03  0.41800000000E+01 0.  1.
        -11    1    1    2    0    0 -0.66928405018E+02  0.26053769589E+02  0.93975546267E+02  0.11827769699E+03  0.00000000000E+00 0.  1.
         11    1    1    2    0    0  0.88587587199E+01 -0.27758031115E+02  0.87806682842E+02  0.92514860693E+02  0.00000000000E+00 0. -1.
</event>
<event>
 7    1  0.2943257E-009  0.1058434E+03  0.7561462E-02  0.1268467E+00
          1   -1    0    0  501    0  0.00000000000E+00  0.00000000000E+00  0.12848051015E+03  0.12848051015E+03  0.00000000000E+00 0. -1.
         -1   -1    0    0    0  501 -0.00000000000E+00 -0.00000000000E+00 -0.10197833830E+03  0.10197833830E+03  0.00000000000E+00 0.  1.
         25    2    1    2    0    0  0.23716003789E+02 -0.22888407519E+02 -0.10154699366E+01  0.12936118375E+03  0.12508779575E+03 0.  0.
          5    1    3    3  502    0  0.74535426886E+02 -0.19622497049E+02 -0.87532041618E+01  0.77683094908E+02  0.41800000000E+01 0.  1.
         -5    1    3    3    0  502 -0.50819423096E+02 -0.32659104709E+01  0.77377342252E+01  0.51678088838E+02  0.41800000000E+01 0.  1.
        -11    1    1    2    0    0  0.19646813613E+02 -0.15860373510E+02  0.34255132092E+02  0.42555408677E+02  0.00000000000E+00 0. -1.
         11    1    1    2    0    0 -0.43362817402E+02  0.38748781030E+02 -0.67374903053E+01  0.58542256020E+02  0.00000000000E+00 0.  1.
</event>
<event>
 7    1  0.3515711E-009  0.1183383E+03  0.7561462E-02  0.1245864E+00
         -1   -1    0    0    0  501 -0.00000000000E+00  0.00000000000E+00  0.75750378681E+02  0.75750378681E+02  0.00000000000E+00 0.  1.
          1   -1    0    0  501    0  0.00000000000E+00 -0.00000000000E+00 -0.50954810380E+03  0.50954810380E+03  0.00000000000E+00 0. -1.
         25    2    1    2    0    0  0.46569880164E+01 -0.11768807194E+03 -0.39513417798E+03  0.43087177715E+03  0.12508916788E+03 0.  0.
          5    1    3    3  502    0  0.13690874549E+01 -0.18215041531E+02 -0.27128872263E+03  0.27193511278E+03  0.41800000000E+01 0. -1.
         -5    1    3    3    0  502  0.32879005615E+01 -0.99473030409E+02 -0.12384545535E+03  0.15893666436E+03  0.41800000000E+01 0. -1.
        -11    1    1    2    0    0 -0.71523255235E+01  0.42822518285E+02 -0.62249415285E+02  0.75894094210E+02  0.00000000000E+00 0. -1.
         11    1    1    2    0    0  0.24953375070E+01  0.74865553655E+02  0.23585868146E+02  0.78532611121E+02  0.00000000000E+00 0.  1.
</event>
<event>
 7    1  0.2943257E-009  0.1203471E+03  0.7561462E-02  0.1242526E+00
          2   -1    0    0  501    0  0.00000000000E+00  0.00000000000E+00  0.46928368443E+03  0.46928368443E+03  0.00000000000E+00 0. -1.
         -2   -1    0    0    0  501 -0.00000000000E+00 -0.00000000000E+00 -0.37919399039E+02  0.37919399039E+02  0.00000000000E+00 0.  1.
         25    2    1    2    0    0 -0.23863557685E+02  0.70266430313E+02  0.27394994777E+03  0.31016550287E+03  0.12508886712E+03 0.  0.
          5    1    3    3  502    0 -0.17429165242E+02 -0.35006540675E+02  0.62701676073E+02  0.74014905752E+02  0.41800000000E+01 0.  1.
         -5    1    3    3    0  502 -0.64343924428E+01  0.10527297099E+03  0.21124827169E+03  0.23615059712E+03  0.41800000000E+01 0.  1.
        -11    1    1    2    0    0 -0.87225237356E+01  0.74952120241E+01 -0.61350256175E+01  0.13034537312E+02  0.00000000000E+00 0.  1.
         11    1    1    2    0    0  0.32586081421E+02 -0.77761642337E+02  0.16354936324E+03  0.18400304328E+03  0.00000000000E+00 0. -1.
</event>
<event>
 7    1  0.2943257E-009  0.1007604E+03  0.7561462E-02  0.1278705E+00
         -1   -1    0    0    0  501 -0.00000000000E+00  0.00000000000E+00  0.16738709088E+03  0.16738709088E+03  0.00000000000E+00 0.  1.
          1   -1    0    0  501    0  0.00000000000E+00 -0.00000000000E+00 -0.15317549961E+03  0.15317549961E+03  0.00000000000E+00 0. -1.
         25    2    1    2    0    0 -0.75314840238E+02  0.26997538461E+02 -0.78823156198E+02  0.16811535902E+03  0.12509393168E+03 0.  0.
          5    1    3    3  502    0 -0.33587845145E+02  0.18226487396E+02 -0.10908615520E+03  0.11566161784E+03  0.41800000000E+01 0. -1.
         -5    1    3    3    0  502 -0.41726995093E+02  0.87710510649E+01  0.30262999000E+02  0.52453741189E+02  0.41800000000E+01 0. -1.
        -11    1    1    2    0    0  0.77376835731E+02  0.14468328728E+02  0.67583220154E+02  0.10374969345E+03  0.00000000000E+00 0.  1.
         11    1    1    2    0    0 -0.20619954928E+01 -0.41465867189E+02  0.25451527314E+02  0.48697538026E+02  0.00000000000E+00 0. -1.
</event>
<event>
 7    1  0.2943257E-009  0.1279542E+03  0.7561462E-02  0.1230523E+00
         -2   -1    0    0    0  501 -0.00000000000E+00  0.00000000000E+00  0.21904177083E+02  0.21904177083E+02  0.00000000000E+00 0.  1.
          2   -1    0    0  501    0  0.00000000000E+00 -0.00000000000E+00 -0.82583577461E+03  0.82583577461E+03  0.00000000000E+00 0. -1.
         25    2    1    2    0    0 -0.71034665568E+02 -0.31281581563E+02 -0.46754297155E+03  0.49017137336E+03  0.12508830462E+03 0.  0.
          5    1    3    3  502    0 -0.46288275518E+02  0.45551796122E+02 -0.24138014811E+03  0.24999883776E+03  0.41800000000E+01 0. -1.
         -5    1    3    3    0  502 -0.24746390050E+02 -0.76833377685E+02 -0.22616282344E+03  0.24017253560E+03  0.41800000000E+01 0. -1.
        -11    1    1    2    0    0  0.52853573037E+02 -0.19288952613E+02 -0.96231137220E+02  0.11147195004E+03  0.00000000000E+00 0.  1.
         11    1    1    2    0    0  0.18181092531E+02  0.50570534176E+02 -0.24015748875E+03  0.24609662829E+03  0.00000000000E+00 0. -1.
</event>
<event>
 7    1  0.2943257E-009  0.3149816E+03  0.7561462E-02  0.1077982E+00
         -1   -1    0    0    0  501 -0.00000000000E+00  0.00000000000E+00  0.69048462555E+02  0.69048462555E+02  0.00000000000E+00 0.  1.
          1   -1    0    0  501    0  0.00000000000E+00 -0.00000000000E+00 -0.14523447329E+04  0.14523447329E+04  0.00000000000E+00 0. -1.
         25    2    1    2    0    0 -0.12083828195E+03  0.27013900365E+03 -0.77418383519E+03  0.83820342462E+03  0.12508956265E+03 0.  0.
          5    1    3    3  502    0 -0.10376883713E+03  0.83926887653E+02 -0.29511052890E+03  0.32391262819E+03  0.41800000000E+01 0.  1.
         -5    1    3    3    0  502 -0.17069444824E+02  0.18621211600E+03 -0.47907330629E+03  0.51429079643E+03  0.41800000000E+01 0.  1.
        -11    1    1    2    0    0  0.97110383604E+02 -0.10681888275E+03 -0.28221606821E+03  0.31699622943E+03  0.00000000000E+00 0. -1.
         11    1    1    2    0    0  0.23727898348E+02 -0.16332012091E+03 -0.32689636695E+03  0.36619354142E+03  0.00000000000E+00 0.  1.
</event>
<event>
 6    1  0.2943257E-009  0.9674741E+02  0.7561462E-02  0.1287288E+00
         -1   -1    0    0    0  501 -0.00000000000E+00  0.00000000000E+00  0.23206135935E+02  0.23206135935E+02  0.00000000000E+00 0.  1.
          1   -1    0    0  501    0  0.00000000000E+00 -0.00000000000E+00 -0.53032216517E+03  0.53032216517E+03  0.00000000000E+00 0. -1.
          5    1    1    2  502    0 -0.39444959292E+02 -0.22865082238E+02 -0.36030437485E+02  0.58261321858E+02  0.41800000000E+01 0. -1.
         -5    1    1    2    0  502  0.42745750022E+02  0.49903329769E+02 -0.19523781626E+03  0.20604081820E+03  0.41800000000E+01 0. -1.
        -11    1    1    2    0    0 -0.34134746528E+02  0.81392824670E+01 -0.16871993626E+03  0.17233062912E+03  0.00000000000E+00 0. -1.
         11    1    1    2    0    0  0.30833955799E+02 -0.35177529998E+02 -0.10712783922E+03  0.11689553192E+03  0.00000000000E+00 0.  1.
</event>
<event>
 7    1  0.2943257E-009  0.1051169E+03  0.7561462E-02  0.1269890E+00
          2   -1    0    0  501    0  0.00000000000E+00  0.00000000000E+00  0.27556555826E+03  0.27556555826E+03  0.00000000000E+00 0. -1.
         -2   -1    0    0    0  501 -0.00000000000E+00 -0.00000000000E+00 -0.57115039720E+02  0.57115039720E+02  0.00000000000E+00 0.  1.
         25    2    1    2    0    0 -0.12587619026E+02 -0.43042619056E+02  0.64467238555E+02  0.14769920600E+03  0.12509162801E+03 0.  0.
          5    1    3    3  502    0 -0.75724970637E+01  0.41393535843E+02  0.43049232614E+02  0.60344646407E+02  0.41800000000E+01 0.  1.
         -5    1    3    3    0  502 -0.50151219618E+01 -0.84436154899E+02  0.21418005941E+02  0.87354559589E+02  0.41800000000E+01 0.  1.
        -11    1    1    2    0    0  0.98495927042E+01  0.62670613471E+02  0.15242760922E+03  0.16510238134E+03  0.00000000000E+00 0. -1.
         11    1    1    2    0    0  0.27380263213E+01 -0.19627994415E+02  0.15556707635E+01  0.19879010650E+02  0.00000000000E+00 0.  1.
</event>
<event>
 7    1  0.3337590E-009  0.1140213E+03  0.7561462E-02  0.1253299E+00
         -1   -1    0    0    0  501 -0.00000000000E+00  0.00000000000E+00  0.20398948596E+03  0.20398948596E+03  0.00000000000E+00 0.  1.
          1   -1    0    0  501    0  0.00000000000E+00 -0.00000000000E+00 -0.10375923068E+03  0.10375923068E+03  0.00000000000E+00 0. -1.
         25    2    1    2    0    0 -0.21630764508E+02  0.93723443749E+02  0.62709763852E+02  0.16980169951E+03  0.12509248096E+03 0.  0.
          5    1    3    3  502    0  0.34626677238E+02  0.25669654895E+02 -0.20938579711E+02  0.48102333408E+02  0.41800000000E+01 0. -1.
         -5    1    3    3    0  502 -0.56257441746E+02  0.68053788854E+02  0.83648343563E+02  0.12169936610E+03  0.41800000000E+01 0. -1.
        -11    1    1    2    0    0  0.11260434208E+02 -0.36914715787E+02  0.63749669717E+02  0.74521902883E+02  0.00000000000E+00 0.  1.
         11    1    1    2    0    0  0.10370330300E+02 -0.56808727962E+02 -0.26229178295E+02  0.63425114247E+02  0.00000000000E+00 0. -1.
</event>
<event>
 7    1  0.3081242E-009  0.9559538E+02  0.7561462E-02  0.1289841E+00
          1   -1    0    0  501    0  0.00000000000E+00  0.00000000000E+00  0.36286767788E+03  0.36286767788E+03  0.00000000000E+00 0. -1.
         -1   -1    0    0    0  501 -0.00000000000E+00 -0.00000000000E+00 -0.42262921584E+02  0.42262921584E+02  0.00000000000E+00 0.  1.
         25    2    1    2    0    0  0.29336963020E+02 -0.27326174552E+02  0.25133877496E+03  0.28359459798E+03  0.12508932404E+03 0.  0.
          5    1    3    3  502    0  0.70430936586E+02  0.16022705720E+01  0.88891410744E+02  0.11349995332E+03  0.41800000000E+01 0.  1.
         -5    1    3    3    0  502 -0.41093973567E+02 -0.28928445124E+02  0.16244736422E+03  0.17009464466E+03  0.41800000000E+01 0.  1.
        -11    1    1    2    0    0 -0.31659138133E+01 -0.17769576785E+02  0.66954910890E+02  0.69345086067E+02  0.00000000000E+00 0. -1.
         11    1    1    2    0    0 -0.26171049206E+02  0.45095751338E+02  0.23110704415E+01  0.52190915415E+02  0.00000000000E+00 0.  1.
</event>
<event>
 7    1  0.2943257E-009  0.1114718E+03  0.7561462E-02  0.1257868E+00
          2   -1    0    0  501    0  0.00000000000E+00  0.00000000000E+00  0.10669482641E+04  0.10669482641E+04  0.00000000000E+00 0. -1.
         -2   -1    0    0    0  501 -0.00000000000E+00 -0.00000000000E+00 -0.12019435814E+02  0.12019435814E+02  0.00000000000E+00 0.  1.
         25    2    1    2    0    0  0.60890479983E+01 -0.26644611563E+02  0.69294107853E+03  0.70466711924E+03  0.12506557796E+03 0.  0.
          5    1    3    3  502    0  0.11979479857E+02 -0.76409585284E+02  0.44240077681E+03  0.44913010630E+03  0.41800000000E+01 0. -1.
         -5    1    3    3    0  502 -0.58904318591E+01  0.49764973721E+02  0.25054030172E+03  0.25553701294E+03  0.41800000000E+01 0. -1.
        -11    1    1    2    0    0 -0.33900061226E+02  0.48955543368E+02  0.22940249003E+03  0.23700498267E+03  0.00000000000E+00 0.  1.
         11    1    1    2    0    0  0.27811013228E+02 -0.22310931805E+02  0.13258525968E+03  0.13729559796E+03  0.00000000000E+00 0. -1.
</event>
<event>
 7    1  0.2943257E-009  0.8193190E+02  0.7561462E-02  0.1323657E+00
          2   -1    0    0  501    0  0.00000000000E+00  0.00000000000E+00  0.88152599360E+02  0.88152599360E+02  0.00000000000E+00 0. -1.
         -2   -1    0    0    0  501 -0.00000000000E+00 -0.00000000000E+00 -0.19654649722E+03  0.19654649722E+03  0.00000000000E+00 0.  1.
         25    2    1    2    0    0  0.36218354361E+02 -0.14792934461E+02  0.99539694106E+01  0.13144286713E+03  0.12509015033E+03 0.  0.
          5    1    3    3  502    0  0.29377403396E+02 -0.50679191178E+02  0.49961559701E+02  0.77104099090E+02  0.41800000000E+01 0. -1.
         -5    1    3    3    0  502  0.68409509653E+01  0.35886256717E+02 -0.40007590291E+02  0.54338768040E+02  0.41800000000E+01 0. -1.
        -11    1    1    2    0    0 -0.46695922866E+02 -0.39816954057E+01 -0.17316137606E+02  0.49962102960E+02  0.00000000000E+00 0. -1.
         11    1    1    2    0    0  0.10477568505E+02  0.18774629867E+02 -0.10103172966E+03  0.10329412649E+03  0.00000000000E+00 0.  1.
</event>
<event>
 7    1  0.2943257E-009  0.1661951E+03  0.7561462E-02  0.1181875E+00
         -1   -1    0    0    0  501 -0.00000000000E+00  0.00000000000E+00  0.25928514012E+03  0.25928514012E+03  0.00000000000E+00 0.  1.
          1   -1    0    0  501    0  0.00000000000E+00 -0.00000000000E+00 -0.13589083399E+03  0.13589083399E+03  0.00000000000E+00 0. -1.
         25    2    1    2    0    0 -0.81154336728E+01 -0.13494974819E+03 -0.90941957732E+01  0.18441135270E+03  0.12509015872E+03 0.  0.
          5    1    3    3  502    0  0.42949653367E+02 -0.50773931215E+01 -0.10859032992E+02  0.44786645809E+02  0.41800000000E+01 0. -1.
         -5    1    3    3    0  502 -0.51065087040E+02 -0.12987235507E+03  0.17648372191E+01  0.13962470690E+03  0.41800000000E+01 0. -1.
        -11    1    1    2    0    0 -0.25074463186E+02  0.29189962346E+02  0.78599857021E+02  0.87514113888E+02  0.00000000000E+00 0.  1.
         11    1    1    2    0    0  0.33189896859E+02  0.10575978584E+03  0.53888644885E+02  0.12325050752E+03  0.00000000000E+00 0. -1.
</event>
<event>
 7    1  0.2943257E-009  0.1429949E+03  0.7561462E-02  0.1209355E+00
          2   -1    0    0  501    0  0.00000000000E+00  0.00000000000E+00  0.21922175986E+03  0.21922175986E+03  0.00000000000E+00 0. -1.
         -2   -1    0    0    0  501 -0.00000000000E+00 -0.00000000000E+00 -0.11849040911E+03  0.11849040911E+03  0.00000000000E+00 0.  1.
         25    2    1    2    0    0 -0.82773790492E+02  0.50833670626E+02  0.12532293057E+03  0.20196283601E+03  0.12509031833E+03 0.  0.
          5    1    3    3  502    0 -0.10295290989E+03  0.72970848753E+02  0.11251325563E+03  0.16911756713E+03  0.41800000000E+01 0.  1.
         -5    1    3    3    0  502  0.20179119396E+02 -0.22137178127E+02  0.12809674945E+02  0.32845268871E+02  0.41800000000E+01 0.  1.
        -11    1    1    2    0    0  0.89934258842E+02 -0.66772561160E+02 -0.90722555629E+01  0.11237905347E+03  0.00000000000E+00 0. -1.
         11    1    1    2    0    0 -0.71604683502E+01  0.15938890534E+02 -0.15519324255E+02  0.23370279497E+02  0.00000000000E+00 0.  1.
</event>
<event>
 7    1  0.2943257E-009  0.1248786E+03  0.7561462E-02  0.1235259E+00
         -1   -1    0    0    0  501 -0.00000000000E+00  0.00000000000E+00  0.61176279354E+02  0.61176279354E+02  0.00000000000E+00 0.  1.
          1   -1    0    0  501    0  0.00000000000E+00 -0.00000000000E+00 -0.41193735234E+03  0.41193735234E+03  0.00000000000E+00 0. -1.
         25    2    1    2    0    0  0.11565520304E+03  0.22589462884E+02 -0.27265984621E+03  0.32230784555E+03  0.12511013448E+03 0.  0.
          5    1    3    3  502    0  0.70044790484E+02 -0.87448307099E+01 -0.36231478342E+02  0.79453993990E+02  0.41800000000E+01 0. -1.
         -5    1    3    3    0  502  0.45610412558E+02  0.31334293594E+02 -0.23642836786E+03  0.24285385156E+03  0.41800000000E+01 0. -1.
        -11    1    1    2    0    0 -0.62747903156E+01 -0.12148233132E+02 -0.25615168682E+02  0.29036002279E+02  0.00000000000E+00 0. -1.
         11    1    1    2    0    0 -0.10938041273E+03 -0.10441229753E+02 -0.52486058096E+02  0.12176978386E+03  0.00000000000E+00 0.  1.
</event>
<event>
 7    1  0.2943257E-009  0.1742223E+03  0.7561462E-02  0.1173515E+00
         -1   -1    0    0    0  501 -0.00000000000E+00  0.00000000000E+00  0.37815061042E+02  0.37815061042E+02  0.00000000000E+00 0.  1.
          1   -1    0    0  501    0  0.00000000000E+00 -0.00000000000E+00 -0.13154244228E+04  0.13154244228E+04  0.00000000000E+00 0. -1.
         25    2    1    2    0    0 -0.96988102483E+02  0.13631340100E+03 -0.96054635039E+03  0.98299758370E+03  0.12508766125E+03 0.  0.
          5    1    3    3  502    0 -0.75531041145E+02  0.67882697136E+02 -0.26617946662E+03  0.28492451561E+03  0.41800000000E+01 0.  1.
         -5    1    3    3    0  502 -0.21457061337E+02  0.68430703866E+02 -0.69436688377E+03  0.69807306809E+03  0.41800000000E+01 0.  1.
        -11    1    1    2    0    0  0.57181729452E+02 -0.11805418266E+03 -0.29120068516E+03  0.31938124438E+03  0.00000000000E+00 0. -1.
         11    1    1    2    0    0  0.39806373031E+02 -0.18259218346E+02 -0.25862326230E+02  0.50860655781E+02  0.00000000000E+00 0.  1.
</event>
<event>
 7    1  0.2943257E-009  0.2175350E+03  0.7561462E-02  0.1135734E+00
         -1   -1    0    0    0  501 -0.00000000000E+00  0.00000000000E+00  0.27754216373E+03  0.27754216373E+03  0.00000000000E+00 0.  1.
          1   -1    0    0  501    0  0.00000000000E+00 -0.00000000000E+00 -0.19804011503E+03  0.19804011503E+03  0.00000000000E+00 0. -1.
         25    2    1    2    0    0  0.16142294649E+02 -0.19123620490E+03  0.12069863137E+03  0.25893821104E+03  0.12509587435E+03 0.  0.
          5    1    3    3  502    0 -0.49378154984E+02 -0.75911615952E+02  0.21264613810E+02  0.93115153582E+02  0.41800000000E+01 0.  1.
         -5    1    3    3    0  502  0.65520449633E+02 -0.11532458895E+03  0.99434017557E+02  0.16582305745E+03  0.41800000000E+01 0.  1.
        -11    1    1    2    0    0  0.24138133661E+02  0.15700926779E+03 -0.39816157671E+02  0.16376778096E+03  0.00000000000E+00 0.  1.
         11    1    1    2    0    0 -0.40280428310E+02  0.34226937107E+02 -0.13804249885E+01  0.52876286761E+02  0.00000000000E+00 0. -1.
</event>
<event>
 7    1  0.2943257E-009  0.2135091E+03  0.7561462E-02  0.1138817E+00
         -1   -1    0    0    0  501 -0.00000000000E+00  0.00000000000E+00  0.14343532137E+03  0.14343532137E+03  0.00000000000E+00 0.  1.
          1   -1    0    0  501    0  0.00000000000E+00 -0.00000000000E+00 -0.40618977671E+03  0.40618977671E+03  0.00000000000E+00 0. -1.
         25    2    1    2    0    0 -0.13103258425E+03 -0.16132087443E+03 -0.19680109461E+03  0.31236572580E+03  0.12509081961E+03 0.  0.
          5    1    3    3  502    0 -0.33144215675E+01 -0.46861687479E+02  0.50818978133E+01  0.47437340029E+02  0.41800000000E+01 0.  1.
         -5    1    3    3    0  502 -0.12771816269E+03 -0.11445918695E+03 -0.20188299242E+03  0.26492838577E+03  0.41800000000E+01 0.  1.
        -11    1    1    2    0    0  0.34136660554E+02  0.32747328941E+02 -0.59661966910E+02  0.76139670620E+02  0.00000000000E+00 0. -1.
         11    1    1    2    0    0  0.96895923700E+02  0.12857354549E+03 -0.62913938274E+01  0.16111970167E+03  0.00000000000E+00 0.  1.
</event>
<event>
 7    1  0.2943257E-009  0.1039338E+03  0.7561462E-02  0.1272235E+00
          3   -1    0    0  501    0  0.00000000000E+00  0.00000000000E+00  0.35541456214E+03  0.35541456214E+03  0.00000000000E+00 0. -1.
         -3   -1    0    0    0  501 -0.00000000000E+00 -0.00000000000E+00 -0.48213943092E+02  0.48213943092E+02  0.00000000000E+00 0.  1.
         25    2    1    2    0    0 -0.19518974436E+02  0.25670403345E+02  0.68751540280E+02  0.14633588592E+03  0.12508979673E+03 0.  0.
          5    1    3    3  502    0  0.10590302262E+02 -0.39334846562E+02  0.61939125105E+02  0.74251681966E+02  0.41800000000E+01 0.  1.
         -5    1    3    3    0  502 -0.30109276698E+02  0.65005249906E+02  0.68124151749E+01  0.72084203950E+02  0.41800000000E+01 0.  1.
        -11    1    1    2    0    0 -0.79831058946E+01 -0.54635070480E+02  0.16002993689E+03  0.16928762981E+03  0.00000000000E+00 0.  1.
         11    1    1    2    0    0  0.27502080330E+02  0.28964667135E+02  0.78419141879E+02  0.88004989505E+02  0.00000000000E+00 0. -1.
</event>
<event>
 7    1  0.2943257E-009  0.1675386E+03  0.7561462E-02  0.1180439E+00
          1   -1    0    0  501    0  0.00000000000E+00  0.00000000000E+00  0.22442203053E+03  0.22442203053E+03  0.00000000000E+00 0. -1.
         -1   -1    0    0    0  501 -0.00000000000E+00 -0.00000000000E+00 -0.15288677298E+03  0.15288677298E+03  0.00000000000E+00 0.  1.
         25    2    1    2    0    0 -0.10778486804E+03  0.70605400481E+02 -0.36972344008E+02  0.18334888695E+03  0.12508860766E+03 0.  0.
          5    1    3    3  502    0 -0.88006970497E+02 -0.16796852776E+02 -0.22587796488E+02  0.92493470415E+02  0.41800000000E+01 0.  1.
         -5    1    3    3    0  502 -0.19777897541E+02  0.87402253257E+02 -0.14384547520E+02  0.90855416530E+02  0.41800000000E+01 0.  1.
        -11    1    1    2    0    0  0.25464831482E+02 -0.68771007599E+02  0.27129921430E+02  0.78191698826E+02  0.00000000000E+00 0.  1.
         11    1    1    2    0    0  0.82320036556E+02 -0.18343928827E+01  0.81377680121E+02  0.11576821774E+03  0.00000000000E+00 0. -1.
</event>
<event>
 7    1  0.2943257E-009  0.1428010E+03  0.7561462E-02  0.1209609E+00
          1   -1    0    0  501    0  0.00000000000E+00  0.00000000000E+00  0.75412954945E+03  0.75412954945E+03  0.00000000000E+00 0. -1.
         -1   -1    0    0    0  501 -0.00000000000E+00 -0.00000000000E+00 -0.36237616297E+02  0.36237616297E+02  0.00000000000E+00 0.  1.
         25    2    1    2    0    0 -0.82667175759E+02 -0.82354564294E+02  0.53319215996E+03  0.55996156753E+03  0.12508773503E+03 0.  0.
          5    1    3    3  502    0 -0.19227673964E+02  0.23083271696E+02  0.24081708912E+03  0.24271976370E+03  0.41800000000E+01 0.  1.
         -5    1    3    3    0  502 -0.63439501795E+02 -0.10543783599E+03  0.29237507085E+03  0.31724180383E+03  0.41800000000E+01 0.  1.
        -11    1    1    2    0    0  0.12398983643E+02  0.55588119295E+02  0.48406558278E+02  0.74746027897E+02  0.00000000000E+00 0.  1.
         11    1    1    2    0    0  0.70268192116E+02  0.26766444999E+02  0.13629321491E+03  0.15565957032E+03  0.00000000000E+00 0. -1.
</event>
<event>
 7    1  0.2943257E-009  0.9966431E+02  0.7561462E-02  0.1281003E+00
          1   -1    0    0  501    0  0.00000000000E+00  0.00000000000E+00  0.26457568242E+03  0.26457568242E+03  0.00000000000E+00 0. -1.
         -1   -1    0    0    0  501 -0.00000000000E+00 -0.00000000000E+00 -0.66530871681E+02  0.66530871681E+02  0.00000000000E+00 0.  1.
         25    2    1    2    0    0 -0.78441459070E+01  0.39052533227E+02  0.18786048215E+03  0.22918471306E+03  0.12508973167E+03 0.  0.
          5    1    3    3  502    0 -0.62528774302E+02  0.26624290391E+02  0.65310988867E+02  0.94348810916E+02  0.41800000000E+01 0. -1.
         -5    1    3    3    0  502  0.54684628395E+02  0.12428242836E+02  0.12254949328E+03  0.13483590214E+03  0.41800000000E+01 0. -1.
        -11    1    1    2    0    0  0.35884184480E+02 -0.19718752808E+02 -0.28871842725E+02  0.50100770557E+02  0.00000000000E+00 0.  1.
         11    1    1    2    0    0 -0.28040038573E+02 -0.19333780419E+02  0.39056171314E+02  0.51821070484E+02  0.00000000000E+00 0. -1.
</event>
<event>
 7    1  0.2943257E-009  0.1434882E+03  0.7561462E-02  0.1208711E+00
         -2   -1    0    0    0  501 -0.00000000000E+00  0.00000000000E+00  0.20588715095E+02  0.20588715095E+02  0.00000000000E+00 0.  1.
          2   -1    0    0  501    0  0.00000000000E+00 -0.00000000000E+00 -0.13117713096E+04  0.13117713096E+04  0.00000000000E+00 0. -1.
         25    2    1    2    0    0  0.11342104325E+03 -0.50412439512E+02 -0.69743535681E+03  0.71935802415E+03  0.12511651717E+03 0.  0.
          5    1    3    3  502    0  0.20953481657E+02 -0.57680415325E+02 -0.12359951928E+03  0.13805937951E+03  0.41800000000E+01 0.  1.
         -5    1    3    3    0  502  0.92467561590E+02  0.72679758132E+01 -0.57383583753E+03  0.58129864463E+03  0.41800000000E+01 0.  1.
        -11    1    1    2    0    0 -0.24504847106E+02 -0.85225022764E+01 -0.31904193899E+02  0.41121748079E+02  0.00000000000E+00 0. -1.
         11    1    1    2    0    0 -0.88916196141E+02  0.58934941788E+02 -0.56184304376E+03  0.57188025243E+03  0.00000000000E+00 0.  1.
</event>
<event>
 7    1  0.2943257E-009  0.1041961E+03  0.7561462E-02  0.1271712E+00
          1   -1    0    0  501    0  0.00000000000E+00  0.00000000000E+00  0.35617511656E+02  0.35617511656E+02  0.00000000000E+00 0. -1.
         -1   -1    0    0    0  501 -0.00000000000E+00 -0.00000000000E+00 -0.43439312006E+03  0.43439312006E+03  0.00000000000E+00 0.  1.
         25    2    1    2    0    0 -0.19171083836E+02  0.59753962135E+01 -0.11620573980E+03  0.17191248058E+03  0.12508753415E+03 0.  0.
          5    1    3    3  502    0  0.32719332944E+02  0.47082540731E+02 -0.72286992874E+02  0.92359093373E+02  0.41800000000E+01 0. -1.
         -5    1    3    3    0  502 -0.51890416780E+02 -0.41107144517E+02 -0.43918746925E+02  0.79553387203E+02  0.41800000000E+01 0. -1.
        -11    1    1    2    0    0 -0.26297377551E+02  0.19237069161E+02 -0.49225169152E+02  0.59031637060E+02  0.00000000000E+00 0. -1.
         11    1    1    2    0    0  0.45468461387E+02 -0.25212465375E+02 -0.23334469945E+03  0.23906651408E+03  0.00000000000E+00 0.  1.
</event>
<event>
 7    1  0.2943257E-009  0.1275591E+03  0.7561462E-02  0.1231123E+00
          2   -1    0    0  501    0  0.00000000000E+00  0.00000000000E+00  0.25199520867E+03  0.25199520867E+03  0.00000000000E+00 0. -1.
         -2   -1    0    0    0  501 -0.00000000000E+00 -0.00000000000E+00 -0.15666423654E+03  0.15666423654E+03  0.00000000000E+00 0.  1.
         25    2    1    2    0    0 -0.25794901661E+02 -0.99274083804E+02  0.18427054959E+03  0.24520375473E+03  0.12509406550E+03 0.  0.
          5    1    3    3  502    0 -0.69770289229E+02 -0.47872661609E+02  0.60537163196E+02  0.10412447127E+03  0.41800000000E+01 0.  1.
         -5    1    3    3    0  502  0.43975387568E+02 -0.51401422195E+02  0.12373338639E+03  0.14107928347E+03  0.41800000000E+01 0.  1.
        -11    1    1    2    0    0  0.66438667076E+01  0.20169975367E+02  0.18846206485E+02  0.28392752068E+02  0.00000000000E+00 0. -1.
         11    1    1    2    0    0  0.19151034953E+02  0.79104108437E+02 -0.10778578395E+03  0.13506293841E+03  0.00000000000E+00 0.  1.
</event>
<event>
 7    1  0.2943257E-009  0.1496619E+03  0.7561462E-02  0.1200889E+00
         -4   -1    0    0    0  501 -0.00000000000E+00  0.00000000000E+00  0.11703499688E+04  0.11703499688E+04  0.00000000000E+00 0.  1.
          4   -1    0    0  501    0  0.00000000000E+00 -0.00000000000E+00 -0.21535774879E+02  0.21535774879E+02  0.00000000000E+00 0. -1.
         25    2    1    2    0    0 -0.97475437109E+02 -0.40948858466E+02  0.79349036605E+03  0.81021764628E+03  0.12508958185E+03 0.  0.
          5    1    3    3  502    0  0.22640514907E+02 -0.32669786133E+02  0.27664670491E+03  0.27951883582E+03  0.41800000000E+01 0.  1.
         -5    1    3    3    0  502 -0.12011595202E+03 -0.82790723333E+01  0.51684366114E+03  0.53069881046E+03  0.41800000000E+01 0.  1.
        -11    1    1    2    0    0  0.93123227005E+02  0.65562540092E+02  0.30251613633E+03  0.32324355339E+03  0.00000000000E+00 0. -1.
         11    1    1    2    0    0  0.43522101038E+01 -0.24613681626E+02  0.52807691578E+02  0.58424544036E+02  0.00000000000E+00 0.  1.
</event>
<event>
 7    1  0.2943257E-009  0.9703481E+02  0.7561462E-02  0.1286658E+00
         -4   -1    0    0    0  501 -0.00000000000E+00  0.00000000000E+00  0.43372511291E+02  0.43372511291E+02  0.00000000000E+00 0.  1.
          4   -1    0    0  501    0  0.00000000000E+00 -0.00000000000E+00 -0.36490966974E+03  0.36490966974E+03  0.00000000000E+00 0. -1.
         25    2    1    2    0    0 -0.42231894838E+02  0.17783894746E+02 -0.24270665760E+03  0.27686360090E+03  0.12508849669E+03 0.  0.
          5    1    3    3  502    0 -0.28044920467E+02 -0.53222588038E+02 -0.99807414813E+02  0.11661112251E+03  0.41800000000E+01 0.  1.
         -5    1    3    3    0  502 -0.14186974371E+02  0.71006482784E+02 -0.14289924279E+03  0.16025247839E+03  0.41800000000E+01 0.  1.
        -11    1    1    2    0    0  0.38784610341E+02 -0.29687134002E+02 -0.97477355528E+02  0.10902938487E+03  0.00000000000E+00 0. -1.
         11    1    1    2    0    0  0.34472844970E+01  0.11903239257E+02  0.18646854679E+02  0.22389195265E+02  0.00000000000E+00 0.  1.
</event>
<event>
 7    1  0.2943257E-009  0.1520331E+03  0.7561462E-02  0.1197997E+00
          3   -1    0    0  501    0  0.00000000000E+00  0.00000000000E+00  0.17629631258E+02  0.17629631258E+02  0.00000000000E+00 0. -1.
         -3   -1    0    0    0  501 -0.00000000000E+00 -0.00000000000E+00 -0.14141812964E+04  0.14141812964E+04  0.00000000000E+00 0.  1.
         25    2    1    2    0    0  0.84658134359E+02  0.75940144145E+02 -0.71042055756E+03  0.73025764725E+03  0.12507980477E+03 0.  0.
          5    1    3    3  502    0  0.49717199497E+02 -0.25776062790E+02 -0.33653433762E+03  0.34118768755E+03  0.41800000000E+01 0.  1.
         -5    1    3    3    0  502  0.34940934862E+02  0.10171620694E+03 -0.37388621994E+03  0.38906995971E+03  0.41800000000E+01 0.  1.
        -11    1    1    2    0    0 -0.89158762595E+02 -0.29931456651E+02 -0.54467318089E+03  0.55273325485E+03  0.00000000000E+00 0.  1.
         11    1    1    2    0    0  0.45006282358E+01 -0.46008687494E+02 -0.14145792666E+03  0.14882002551E+03  0.00000000000E+00 0. -1.
</event>
<event>
 7    1  0.2943257E-009  0.1639721E+03  0.7561462E-02  0.1184284E+00
          1   -1    0    0  501    0  0.00000000000E+00  0.00000000000E+00  0.18098703174E+04  0.18098703174E+04  0.00000000000E+00 0. -1.
         -1   -1    0    0    0  501 -0.00000000000E+00 -0.00000000000E+00 -0.32370594036E+02  0.32370594036E+02  0.00000000000E+00 0.  1.
         25    2    1    2    0    0 -0.17568357542E+02 -0.13589557700E+03  0.15520887024E+04  0.15631385050E+04  0.12508553317E+03 0.  0.
          5    1    3    3  502    0  0.41365295235E+02 -0.11296543779E+03  0.11150747264E+04  0.11215531177E+04  0.41800000000E+01 0. -1.
         -5    1    3    3    0  502 -0.58933652777E+02 -0.22930139202E+02  0.43701397597E+03  0.44158538733E+03  0.41800000000E+01 0. -1.
        -11    1    1    2    0    0  0.22767675283E+02  0.27616431257E+02  0.87658249177E+01  0.36849341916E+02  0.00000000000E+00 0.  1.
         11    1    1    2    0    0 -0.51993177410E+01  0.10827914574E+03  0.21664519603E+03  0.24225306452E+03  0.00000000000E+00 0. -1.
</event>
<event>
 7    1  0.2943257E-009  0.1190070E+03  0.7561462E-02  0.1244744E+00
          2   -1    0    0  501    0  0.00000000000E+00  0.00000000000E+00  0.57057694711E+02  0.57057694711E+02  0.00000000000E+00 0. -1.
         -2   -1    0    0    0  501 -0.00000000000E+00 -0.00000000000E+00 -0.40589788304E+03  0.40589788304E+03  0.00000000000E+00 0.  1.
         25    2    1    2    0    0  0.76391890054E+02  0.10614605335E+02 -0.77009399060E+02  0.16591124353E+03  0.12509077693E+03 0.  0.
          5    1    3    3  502    0  0.85545018887E+01 -0.45840687568E+02 -0.59713074197E+02  0.75879323727E+02  0.41800000000E+01 0.  1.
         -5    1    3    3    0  502  0.67837388165E+02  0.56455292903E+02 -0.17296324864E+02  0.90031919804E+02  0.41800000000E+01 0.  1.
        -11    1    1    2    0    0 -0.32317117633E+02 -0.38821367813E+02 -0.58038500827E+02  0.76941291055E+02  0.00000000000E+00 0. -1.
         11    1    1    2    0    0 -0.44074772421E+02  0.28206762478E+02 -0.21379228844E+03  0.22010304316E+03  0.00000000000E+00 0.  1.
</event>
<event>
 7    1  0.2943257E-009  0.9849285E+02  0.7561462E-02  0.1283498E+00
          2   -1    0    0  501    0  0.00000000000E+00  0.00000000000E+00  0.23989633482E+03  0.23989633482E+03  0.00000000000E+00 0.  1.
         -2   -1    0    0    0  501 -0.00000000000E+00 -0.00000000000E+00 -0.52506627738E+02  0.52506627738E+02  0.00000000000E+00 0. -1.
         25    2    1    2    0    0 -0.13154784917E+01  0.26433562624E+02  0.13412353079E+03  0.18530056442E+03  0.12508682563E+03 0.  0.
          5    1    3    3  502    0 -0.40647275468E+02 -0.18074356831E+02  0.11400865489E+03  0.12245133388E+03  0.41800000000E+01 0. -1.
         -5    1    3    3    0  502  0.39331796976E+02  0.44507919455E+02  0.20114875898E+02  0.62849230544E+02  0.41800000000E+01 0. -1.
        -11    1    1    2    0    0 -0.41466544139E+02 -0.27858942784E+02  0.25589662050E+02  0.56128653821E+02  0.00000000000E+00 0.  1.
         11    1    1    2    0    0  0.42782022631E+02  0.14253801603E+01  0.27676514238E+02  0.50973744313E+02  0.00000000000E+00 0. -1.
</event>
<event>
 7    1  0.2943257E-009  0.1344957E+03  0.7561462E-02  0.1220933E+00
          3   -1    0    0  501    0  0.00000000000E+00  0.00000000000E+00  0.70639880822E+02  0.70639880822E+02  0.00000000000E+00 0. -1.
         -3   -1    0    0    0  501 -0.00000000000E+00 -0.00000000000E+00 -0.47885269383E+03  0.47885269383E+03  0.00000000000E+00 0.  1.
         25    2    1    2    0    0 -0.10232269924E+03 -0.23694967014E+02 -0.37177811367E+03  0.40608044212E+03  0.12510385054E+03 0.  0.
          5    1    3    3  502    0 -0.10776070251E+03  0.27819874770E+02 -0.25191750322E+03  0.27543822405E+03  0.41800000000E+01 0. -1.
         -5    1    3    3    0  502  0.54380032671E+01 -0.51514841784E+02 -0.11986061045E+03  0.13064221807E+03  0.41800000000E+01 0. -1.
        -11    1    1    2    0    0  0.30990088462E+02  0.12625818482E+02 -0.58958795684E+02  0.67793336426E+02  0.00000000000E+00 0.  1.
         11    1    1    2    0    0  0.71332610779E+02  0.11069148532E+02  0.22524096345E+02  0.75618796116E+02  0.00000000000E+00 0. -1.
</event>
<event>
 7    1  0.2943257E-009  0.1138945E+03  0.7561462E-02  0.1253523E+00
         -2   -1    0    0    0  501 -0.00000000000E+00  0.00000000000E+00  0.72474098281E+02  0.72474098281E+02  0.00000000000E+00 0.  1.
          2   -1    0    0  501    0  0.00000000000E+00 -0.00000000000E+00 -0.27581388729E+03  0.27581388729E+03  0.00000000000E+00 0. -1.
         25    2    1    2    0    0 -0.44247613017E+02  0.34488001503E+02 -0.19585141309E+03  0.23906768186E+03  0.12509319324E+03 0.  0.
          5    1    3    3  502    0 -0.59246394761E+02  0.73496200020E+02 -0.12492763051E+03  0.15664039063E+03  0.41800000000E+01 0.  1.
         -5    1    3    3    0  502  0.14998781743E+02 -0.39008198517E+02 -0.70923782572E+02  0.82427291231E+02  0.41800000000E+01 0.  1.
        -11    1    1    2    0    0  0.50482206648E+02  0.55374284865E+01  0.25640147253E+02  0.56890539226E+02  0.00000000000E+00 0.  1.
         11    1    1    2    0    0 -0.62345936309E+01 -0.40025429989E+02 -0.33128523178E+02  0.52329764489E+02  0.00000000000E+00 0. -1.
</event>
<event>
 7    1  0.2943257E-009  0.1759913E+03  0.7561462E-02  0.1171740E+00
          1   -1    0    0  501    0  0.00000000000E+00  0.00000000000E+00  0.37910947898E+02  0.37910947898E+02  0.00000000000E+00 0. -1.
         -1   -1    0    0    0  501 -0.00000000000E+00 -0.00000000000E+00 -0.97188429447E+03  0.97188429447E+03  0.00000000000E+00 0.  1.
         25    2    1    2    0    0  0.31370364162E+02 -0.15060519311E+03 -0.58159895819E+03  0.61446793728E+03  0.12508986303E+03 0.  0.
          5    1    3    3  502    0 -0.39644954129E+02 -0.10985605673E+02 -0.10985087877E+03  0.11737586586E+03  0.41800000000E+01 0. -1.
         -5    1    3    3    0  502  0.71015318291E+02 -0.13961958744E+03 -0.47174807942E+03  0.49709207142E+03  0.41800000000E+01 0. -1.
        -11    1    1    2    0    0 -0.19794354994E+02  0.81739232301E+02 -0.28912786939E+03  0.30111134725E+03  0.00000000000E+00 0.  1.
         11    1    1    2    0    0 -0.11576009168E+02  0.68865960810E+02 -0.63246518988E+02  0.94215957834E+02  0.00000000000E+00 0. -1.
</event>
<event>
 7    1  0.2943257E-009  0.1804044E+03  0.7561462E-02  0.1167412E+00
          2   -1    0    0  501    0  0.00000000000E+00  0.00000000000E+00  0.33529569300E+02  0.33529569300E+02  0.00000000000E+00 0. -1.
         -2   -1    0    0    0  501 -0.00000000000E+00 -0.00000000000E+00 -0.11749559456E+04  0.11749559456E+04  0.00000000000E+00 0.  1.
         25    2    1    2    0    0 -0.11100861277E+03  0.12218116456E+03 -0.64415729891E+03  0.67663695880E+03  0.12509116353E+03 0.  0.
          5    1    3    3  502    0 -0.27827969590E+02 -0.28113626239E+01 -0.19938829665E+02  0.34602441817E+02  0.41800000000E+01 0.  1.
         -5    1    3    3    0  502 -0.83180643184E+02  0.12499252718E+03 -0.62421846924E+03  0.64203451698E+03  0.41800000000E+01 0.  1.
        -11    1    1    2    0    0  0.92120482330E+02 -0.44351301069E+02 -0.34460346299E+03  0.35945064734E+03  0.00000000000E+00 0. -1.
         11    1    1    2    0    0  0.18888130444E+02 -0.77829863489E+02 -0.15266561438E+03  0.17239790873E+03  0.00000000000E+00 0.  1.
</event>
<event>
 6    1  0.2943257E-009  0.1253225E+03  0.7561462E-02  0.1234566E+00
         -2   -1    0    0    0  501 -0.00000000000E+00  0.00000000000E+00  0.24055744313E+02  0.24055744313E+02  0.00000000000E+00 0.  1.
          2   -1    0    0  501    0  0.00000000000E+00 -0.00000000000E+00 -0.77475401502E+03  0.77475401502E+03  0.00000000000E+00 0. -1.
          5    1    1    2  502    0 -0.33789142061E+02  0.34326804865E+02 -0.60837376441E+02  0.77709036963E+02  0.41800000000E+01 0.  1.
         -5    1    1    2    0  502  0.69360235293E+02  0.38276079702E+02 -0.35989342730E+03  0.36853310832E+03  0.41800000000E+01 0.  1.
        -11    1    1    2    0    0 -0.23517232351E+01 -0.86806260233E+02 -0.25429115053E+03  0.26870959539E+03  0.00000000000E+00 0.  1.
         11    1    1    2    0    0 -0.33219369996E+02  0.14203375665E+02 -0.75676316443E+02  0.83858018660E+02  0.00000000000E+00 0. -1.
</event>
<event>
 7    1  0.2943257E-009  0.5003191E+02  0.7561462E-02  0.1445170E+00
         -1   -1    0    0    0  501 -0.00000000000E+00  0.00000000000E+00  0.25167248099E+02  0.25167248099E+02  0.00000000000E+00 0.  1.
          1   -1    0    0  501    0  0.00000000000E+00 -0.00000000000E+00 -0.52464222214E+03  0.52464222214E+03  0.00000000000E+00 0. -1.
         25    2    1    2    0    0 -0.52189432504E+01  0.16731632327E+02 -0.36440361803E+03  0.38567488872E+03  0.12509171863E+03 0.  0.
          5    1    3    3  502    0 -0.35008815123E+01  0.16673594109E+02 -0.37434422592E+03  0.37475503571E+03  0.41800000000E+01 0.  1.
         -5    1    3    3    0  502 -0.17180617381E+01  0.58038218179E-01  0.99406078902E+01  0.10919853012E+02  0.41800000000E+01 0.  1.
        -11    1    1    2    0    0 -0.27162974464E+02 -0.32190075888E+02 -0.11618787424E+03  0.12358661047E+03  0.00000000000E+00 0. -1.
         11    1    1    2    0    0  0.32381917714E+02  0.15458443560E+02 -0.18883481778E+02  0.40547971049E+02  0.00000000000E+00 0.  1.
</event>
<event>
 7    1  0.2943257E-009  0.1139768E+03  0.7561462E-02  0.1253378E+00
         -1   -1    0    0    0  501 -0.00000000000E+00  0.00000000000E+00  0.20239881500E+03  0.20239881500E+03  0.00000000000E+00 0.  1.
          1   -1    0    0  501    0  0.00000000000E+00 -0.00000000000E+00 -0.70419719938E+02  0.70419719938E+02  0.00000000000E+00 0. -1.
         25    2    1    2    0    0  0.65324908002E+01  0.37866855968E+02  0.10874687717E+03  0.17014858290E+03  0.12509230493E+03 0.  0.
          5    1    3    3  502    0  0.59127614493E+02  0.45552449201E+02  0.45864435397E+02  0.87704727684E+02  0.41800000000E+01 0. -1.
         -5    1    3    3    0  502 -0.52595123693E+02 -0.76855932325E+01  0.62882441775E+02  0.82443855218E+02  0.41800000000E+01 0. -1.
        -11    1    1    2    0    0 -0.27022069291E+02 -0.62349717857E+02  0.18217353367E+02  0.70353049041E+02  0.00000000000E+00 0.  1.
         11    1    1    2    0    0  0.20489578490E+02  0.24482861889E+02  0.50148645231E+01  0.32316902995E+02  0.00000000000E+00 0. -1.
</event>
<event>
 7    1  0.2943257E-009  0.9383188E+02  0.7561462E-02  0.1293829E+00
          4   -1    0    0  501    0  0.00000000000E+00  0.00000000000E+00  0.10470443147E+03  0.10470443147E+03  0.00000000000E+00 0.  1.
         -4   -1    0    0    0  501 -0.00000000000E+00 -0.00000000000E+00 -0.12573016063E+03  0.12573016063E+03  0.00000000000E+00 0. -1.
         25    2    1    2    0    0  0.33026062436E+02  0.93491417486E+01  0.22908517140E+02  0.13173898964E+03  0.12510888850E+03 0.  0.
          5    1    3    3  502    0 -0.38728681463E+02 -0.28503626648E+02  0.12331912850E+02  0.49818831525E+02  0.41800000000E+01 0. -1.
         -5    1    3    3    0  502  0.71754743899E+02  0.37852768396E+02  0.10576604290E+02  0.81920158115E+02  0.41800000000E+01 0. -1.
        -11    1    1    2    0    0 -0.19980848972E+02  0.18611901870E+02 -0.58512493078E+02  0.64570496846E+02  0.00000000000E+00 0. -1.
         11    1    1    2    0    0 -0.13045213464E+02 -0.27961043618E+02  0.14578246773E+02  0.34125105619E+02  0.00000000000E+00 0.  1.
</event>
<event>
 7    1  0.2943257E-009  0.2494513E+03  0.7561462E-02  0.1113652E+00
          1   -1    0    0  501    0  0.00000000000E+00  0.00000000000E+00  0.11424955758E+04  0.11424955758E+04  0.00000000000E+00 0. -1.
         -1   -1    0    0    0  501 -0.00000000000E+00 -0.00000000000E+00 -0.81486554101E+02  0.81486554101E+02  0.00000000000E+00 0.  1.
         25    2    1    2    0    0  0.19261686574E+03  0.13022232552E+03  0.87134379970E+03  0.91046524204E+03  0.12509128130E+03 0.  0.
          5    1    3    3  502    0  0.15612605608E+03  0.48931941333E+02  0.67894326018E+03  0.69839179778E+03  0.41800000000E+01 0.  1.
         -5    1    3    3    0  502  0.36490809659E+02  0.81290384189E+02  0.19240053952E+03  0.21207344426E+03  0.41800000000E+01 0.  1.
        -11    1    1    2    0    0 -0.11476876690E+03 -0.12240181504E+03  0.10357228081E+03  0.19718339568E+03  0.00000000000E+00 0. -1.
         11    1    1    2    0    0 -0.77848098841E+02 -0.78205104832E+01  0.86092941147E+02  0.11633349214E+03  0.00000000000E+00 0.  1.
</event>
<event>
 7    1  0.2943257E-009  0.1143059E+03  0.7561462E-02  0.1252798E+00
          2   -1    0    0  501    0  0.00000000000E+00  0.00000000000E+00  0.70063821901E+02  0.70063821901E+02  0.00000000000E+00 0. -1.
         -2   -1    0    0    0  501 -0.00000000000E+00 -0.00000000000E+00 -0.29530704250E+03  0.29530704250E+03  0.00000000000E+00 0.  1.
         25    2    1    2    0    0  0.16697223100E+02  0.87489095882E+02 -0.16369359053E+03  0.22444937334E+03  0.12509512561E+03 0.  0.
          5    1    3    3  502    0  0.52413832674E+02  0.85936473021E+02 -0.15888815114E+03  0.18813613216E+03  0.41800000000E+01 0.  1.
         -5    1    3    3    0  502 -0.35716609573E+02  0.15526228620E+01 -0.48054393932E+01  0.36313241179E+02  0.41800000000E+01 0.  1.
        -11    1    1    2    0    0 -0.21875330877E+02 -0.59189838314E+02 -0.83551507382E+02  0.10470349300E+03  0.00000000000E+00 0.  1.
         11    1    1    2    0    0  0.51781077771E+01 -0.28299257569E+02  0.22001877309E+02  0.36217998070E+02  0.00000000000E+00 0. -1.
</event>
<event>
 7    1  0.2943257E-009  0.1144476E+03  0.7561462E-02  0.1252548E+00
          2   -1    0    0  501    0  0.00000000000E+00  0.00000000000E+00  0.29350730665E+03  0.29350730665E+03  0.00000000000E+00 0. -1.
         -2   -1    0    0    0  501 -0.00000000000E+00 -0.00000000000E+00 -0.58695096873E+02  0.58695096873E+02  0.00000000000E+00 0.  1.
         25    2    1    2    0    0 -0.40802227261E+02  0.51061365848E+02  0.10912933529E+03  0.17840815093E+03  0.12509265232E+03 0.  0.
          5    1    3    3  502    0 -0.79607886504E+02  0.41531259720E+02  0.10469356787E+03  0.13798723376E+03  0.41800000000E+01 0.  1.
         -5    1    3    3    0  502  0.38805659243E+02  0.95301061287E+01  0.44357674176E+01  0.40420917168E+02  0.41800000000E+01 0.  1.
        -11    1    1    2    0    0  0.15904093143E+02 -0.67268272977E+02  0.33249254002E+02  0.76703804467E+02  0.00000000000E+00 0.  1.
         11    1    1    2    0    0  0.24898134118E+02  0.16206907129E+02  0.92433620488E+02  0.97090448128E+02  0.00000000000E+00 0. -1.
</event>
<event>
 7    1  0.2943257E-009  0.1221187E+03  0.7561462E-02  0.1239642E+00
         -1   -1    0    0    0  501 -0.00000000000E+00  0.00000000000E+00  0.41178013259E+03  0.41178013259E+03  0.00000000000E+00 0.  1.
          1   -1    0    0  501    0  0.00000000000E+00 -0.00000000000E+00 -0.73212477826E+02  0.73212477826E+02  0.00000000000E+00 0. -1.
         25    2    1    2    0    0  0.20054536063E+02 -0.11110330877E+03  0.75485225550E+02  0.18464125343E+03  0.12509293967E+03 0.  0.
          5    1    3    3  502    0  0.96262734273E+00 -0.12585322368E+02 -0.33734916737E+02  0.36260639787E+02  0.41800000000E+01 0. -1.
         -5    1    3    3    0  502  0.19091908720E+02 -0.98517986404E+02  0.10922014229E+03  0.14838061364E+03  0.41800000000E+01 0. -1.
        -11    1    1    2    0    0 -0.12184971251E+02  0.11884274952E+03  0.26348823945E+03  0.28930628228E+03  0.00000000000E+00 0.  1.
         11    1    1    2    0    0 -0.78695648116E+01 -0.77394407477E+01 -0.40581023209E+00  0.11045074710E+02  0.00000000000E+00 0. -1.
</event>
<event>
 7    1  0.2943257E-009  0.1139505E+03  0.7561462E-02  0.1253424E+00
          2   -1    0    0  501    0  0.00000000000E+00  0.00000000000E+00  0.97569694962E+03  0.97569694962E+03  0.00000000000E+00 0. -1.
         -2   -1    0    0    0  501 -0.00000000000E+00 -0.00000000000E+00 -0.44204831855E+02  0.44204831855E+02  0.00000000000E+00 0.  1.
         25    2    1    2    0    0 -0.40900550318E+02  0.24818954179E+02  0.90430504961E+03  0.91416944075E+03  0.12509719479E+03 0.  0.
          5    1    3    3  502    0  0.22960199220E+02 -0.35589839301E+02  0.39842239642E+03  0.40068901380E+03  0.41800000000E+01 0.  1.
         -5    1    3    3    0  502 -0.63860749538E+02  0.60408793480E+02  0.50588265319E+03  0.51348042695E+03  0.41800000000E+01 0.  1.
        -11    1    1    2    0    0  0.60392987796E+02 -0.40163985952E+02  0.33858989086E+02  0.80043050194E+02  0.00000000000E+00 0. -1.
         11    1    1    2    0    0 -0.19492437477E+02  0.15345031773E+02 -0.66719209364E+01  0.25689290529E+02  0.00000000000E+00 0.  1.
</event>
<event>
 7    1  0.2943257E-009  0.1633185E+03  0.7561462E-02  0.1185000E+00
         -1   -1    0    0    0  501 -0.00000000000E+00  0.00000000000E+00  0.43319044583E+02  0.43319044583E+02  0.00000000000E+00 0.  1.
          1   -1    0    0  501    0  0.00000000000E+00 -0.00000000000E+00 -0.92244393841E+03  0.92244393841E+03  0.00000000000E+00 0. -1.
         25    2    1    2    0    0  0.14088924696E+03 -0.50836549364E+02 -0.63905947689E+03  0.66819018911E+03  0.12508788575E+03 0.  0.
          5    1    3    3  502    0  0.13809979846E+03 -0.41023787557E+02 -0.64099390287E+03  0.65699707868E+03  0.41800000000E+01 0. -1.
         -5    1    3    3    0  502  0.27894484945E+01 -0.98127618071E+01  0.19344259799E+01  0.11193110428E+02  0.41800000000E+01 0. -1.
        -11    1    1    2    0    0 -0.15229551900E+03  0.45930150638E+02 -0.23581097982E+03  0.28444739768E+03  0.00000000000E+00 0. -1.
         11    1    1    2    0    0  0.11406272042E+02  0.49063987260E+01 -0.42544371268E+01  0.13125396208E+02  0.00000000000E+00 0.  1.
</event>
<event>
 7    1  0.2943257E-009  0.8216394E+02  0.7561462E-02  0.1323020E+00
         -2   -1    0    0    0  501 -0.00000000000E+00  0.00000000000E+00  0.63371665389E+02  0.63371665389E+02  0.00000000000E+00 0. -1.
          2   -1    0    0  501    0  0.00000000000E+00 -0.00000000000E+00 -0.19096554140E+03  0.19096554140E+03  0.00000000000E+00 0.  1.
         25    2    1    2    0    0 -0.51585137507E+01  0.19128750745E+02 -0.68130114752E+02  0.14381163572E+03  0.12509018612E+03 0.  0.
          5    1    3    3  502    0  0.11060170939E+02 -0.25115001413E+02  0.26271315945E+02  0.38219695428E+02  0.41800000000E+01 0.  1.
         -5    1    3    3    0  502 -0.16218684689E+02  0.44243752158E+02 -0.94401430697E+02  0.10559194030E+03  0.41800000000E+01 0.  1.
        -11    1    1    2    0    0  0.45888174206E+02 -0.15210381844E+02 -0.47784183805E+02  0.67973586559E+02  0.00000000000E+00 0.  1.
         11    1    1    2    0    0 -0.40729660456E+02 -0.39183689014E+01 -0.11679577451E+02  0.42551984503E+02  0.00000000000E+00 0. -1.
</event>
<event>
 7    1  0.2943257E-009  0.9983598E+02  0.7561462E-02  0.1280641E+00
         -1   -1    0    0    0  501 -0.00000000000E+00  0.00000000000E+00  0.47680016416E+03  0.47680016416E+03  0.00000000000E+00 0.  1.
          1   -1    0    0  501    0  0.00000000000E+00 -0.00000000000E+00 -0.27943707144E+02  0.27943707144E+02  0.00000000000E+00 0. -1.
         25    2    1    2    0    0 -0.26647888461E+02 -0.37136155151E+02  0.25250162905E+03  0.28546967444E+03  0.12508660349E+03 0.  0.
          5    1    3    3  502    0  0.53044129706E+01  0.35713000619E+02  0.15678234684E+03  0.16094015003E+03  0.41800000000E+01 0.  1.
         -5    1    3    3    0  502 -0.31952301432E+02 -0.72849155770E+02  0.95719282209E+02  0.12452952441E+03  0.41800000000E+01 0.  1.
        -11    1    1    2    0    0 -0.79831721334E+01  0.46989107781E+02  0.16427852946E+03  0.17105304010E+03  0.00000000000E+00 0.  1.
         11    1    1    2    0    0  0.34631060595E+02 -0.98529526298E+01  0.32076298505E+02  0.48221156760E+02  0.00000000000E+00 0. -1.
</event>
<event>
 7    1  0.2943257E-009  0.1419447E+03  0.7561462E-02  0.1210736E+00
          2   -1    0    0  501    0  0.00000000000E+00  0.00000000000E+00  0.28783573876E+03  0.28783573876E+03  0.00000000000E+00 0. -1.
         -2   -1    0    0    0  501 -0.00000000000E+00 -0.00000000000E+00 -0.85093477821E+02  0.85093477821E+02  0.00000000000E+00 0.  1.
         25    2    1    2    0    0 -0.88524603730E+02 -0.45815983851E+02  0.46573031642E+02  0.16658906842E+03  0.12508861099E+03 0.  0.
          5    1    3    3  502    0 -0.19226003758E+02  0.36696729749E+02 -0.12708334574E+02  0.43534622571E+02  0.41800000000E+01 0.  1.
         -5    1    3    3    0  502 -0.69298599973E+02 -0.82512713599E+02  0.59281366216E+02  0.12305444585E+03  0.41800000000E+01 0.  1.
        -11    1    1    2    0    0  0.52872200274E+01 -0.24740708279E+02  0.36262921144E+02  0.44216024150E+02  0.00000000000E+00 0.  1.
         11    1    1    2    0    0  0.83237383703E+02  0.70556692130E+02  0.11990630815E+03  0.16212412401E+03  0.00000000000E+00 0. -1.
</event>
<event>
 7    1  0.2943257E-009  0.1605215E+03  0.7561462E-02  0.1188109E+00
          2   -1    0    0  501    0  0.00000000000E+00  0.00000000000E+00  0.33916580728E+03  0.33916580728E+03  0.00000000000E+00 0.  1.
         -2   -1    0    0    0  501 -0.00000000000E+00 -0.00000000000E+00 -0.84921920628E+02  0.84921920628E+02  0.00000000000E+00 0. -1.
         25    2    1    2    0    0 -0.81257579361E+02  0.10243414165E+03  0.13532924122E+03  0.22596064196E+03  0.12509460663E+03 0.  0.
          5    1    3    3  502    0  0.18574485626E+02 -0.34155755033E+01 -0.86792888112E+01  0.21200946360E+02  0.41800000000E+01 0. -1.
         -5    1    3    3    0  502 -0.99832064987E+02  0.10584971715E+03  0.14400853003E+03  0.20475969560E+03  0.41800000000E+01 0. -1.
        -11    1    1    2    0    0  0.71087309721E+02 -0.21073788455E+02  0.73475091481E+02  0.10438438212E+03  0.00000000000E+00 0.  1.
         11    1    1    2    0    0  0.10170269640E+02 -0.81360353195E+02  0.45439553951E+02  0.93742703822E+02  0.00000000000E+00 0. -1.
</event>
<event>
 7    1  0.2943257E-009  0.1084285E+03  0.7561462E-02  0.1263508E+00
         -2   -1    0    0    0  501 -0.00000000000E+00  0.00000000000E+00  0.69783201600E+02  0.69783201600E+02  0.00000000000E+00 0. -1.
          2   -1    0    0  501    0  0.00000000000E+00 -0.00000000000E+00 -0.22990328253E+03  0.22990328253E+03  0.00000000000E+00 0.  1.
         25    2    1    2    0    0  0.62075872082E+02  0.17777894264E+02 -0.89591223126E+02  0.16685868141E+03  0.12508303195E+03 0.  0.
          5    1    3    3  502    0 -0.11271385029E+01 -0.48145632077E+02 -0.21711524730E+02  0.52991839328E+02  0.41800000000E+01 0. -1.
         -5    1    3    3    0  502  0.63203010585E+02  0.65923526341E+02 -0.67879698396E+02  0.11386684209E+03  0.41800000000E+01 0. -1.
        -11    1    1    2    0    0 -0.33019899344E+02  0.12335835885E+02  0.14456872024E+02  0.38098395614E+02  0.00000000000E+00 0. -1.
         11    1    1    2    0    0 -0.29055972738E+02 -0.30113730149E+02 -0.84985729824E+02  0.94729407097E+02  0.00000000000E+00 0.  1.
</event>
<event>
 7    1  0.2943257E-009  0.1241462E+03  0.7561462E-02  0.1236410E+00
          1   -1    0    0  501    0  0.00000000000E+00  0.00000000000E+00  0.21206704418E+03  0.21206704418E+03  0.00000000000E+00 0. -1.
         -1   -1    0    0    0  501 -0.00000000000E+00 -0.00000000000E+00 -0.91744197333E+02  0.91744197333E+02  0.00000000000E+00 0.  1.
         25    2    1    2    0    0  0.83433071567E+02  0.26987076796E+02  0.81939300573E+02  0.17335284796E+03  0.12509109150E+03 0.  0.
          5    1    3    3  502    0 -0.18336979190E+02  0.44043487382E+02  0.14611500782E+02  0.50070369898E+02  0.41800000000E+01 0. -1.
         -5    1    3    3    0  502  0.10177005076E+03 -0.17056410586E+02  0.67327799791E+02  0.12328247806E+03  0.41800000000E+01 0. -1.
        -11    1    1    2    0    0 -0.24253045313E+02  0.11181258925E+02 -0.24354846722E+02  0.36144008037E+02  0.00000000000E+00 0.  1.
         11    1    1    2    0    0 -0.59180026254E+02 -0.38168335722E+02  0.62738392994E+02  0.94314385513E+02  0.00000000000E+00 0. -1.
</event>
<event>
 7    1  0.3066883E-009  0.6729239E+02  0.7561462E-02  0.1369550E+00
          2   -1    0    0  501    0  0.00000000000E+00  0.00000000000E+00  0.12661801342E+03  0.12661801342E+03  0.00000000000E+00 0. -1.
         -2   -1    0    0    0  501 -0.00000000000E+00 -0.00000000000E+00 -0.12908228255E+03  0.12908228255E+03  0.00000000000E+00 0.  1.
         25    2    1    2    0    0  0.32736199807E+02  0.47783058337E+02 -0.36679489479E+02  0.14264409304E+03  0.12508826040E+03 0.  0.
          5    1    3    3  502    0 -0.12695558352E+02  0.76536277762E+01  0.41131118097E+02  0.43920342621E+02  0.41800000000E+01 0.  1.
         -5    1    3    3    0  502  0.45431758159E+02  0.40129430560E+02 -0.77810607576E+02  0.98723750424E+02  0.41800000000E+01 0.  1.
        -11    1    1    2    0    0 -0.25411310241E+02 -0.30822570854E+02  0.65501949939E+02  0.76722037304E+02  0.00000000000E+00 0. -1.
         11    1    1    2    0    0 -0.73248895664E+01 -0.16960487483E+02 -0.31286729589E+02  0.36334165618E+02  0.00000000000E+00 0.  1.
</event>
<event>
 7    1  0.2943257E-009  0.1120121E+03  0.7561462E-02  0.1256888E+00
          2   -1    0    0  501    0  0.00000000000E+00  0.00000000000E+00  0.67851684659E+03  0.67851684659E+03  0.00000000000E+00 0. -1.
         -2   -1    0    0    0  501 -0.00000000000E+00 -0.00000000000E+00 -0.34952612465E+02  0.34952612465E+02  0.00000000000E+00 0.  1.
         25    2    1    2    0    0  0.66985675190E+02  0.63360237656E+02  0.47483314575E+03  0.49961311767E+03  0.12508057660E+03 0.  0.
          5    1    3    3  502    0  0.16213137379E+02  0.73069655076E+02  0.12348312024E+03  0.14445619994E+03  0.41800000000E+01 0.  1.
         -5    1    3    3    0  502  0.50772537811E+02 -0.97094174200E+01  0.35135002552E+03  0.35515691773E+03  0.41800000000E+01 0.  1.
        -11    1    1    2    0    0 -0.55787476537E+02 -0.32946636765E+02  0.30015347303E+02  0.71404793160E+02  0.00000000000E+00 0.  1.
         11    1    1    2    0    0 -0.11198198652E+02 -0.30413600890E+02  0.13871574107E+03  0.14245154823E+03  0.00000000000E+00 0. -1.
</event>
<event>
 7    1  0.2943257E-009  0.1842142E+03  0.7561462E-02  0.1163786E+00
         -1   -1    0    0    0  501 -0.00000000000E+00  0.00000000000E+00  0.86749586701E+02  0.86749586701E+02  0.00000000000E+00 0.  1.
          1   -1    0    0  501    0  0.00000000000E+00 -0.00000000000E+00 -0.43540898065E+03  0.43540898065E+03  0.00000000000E+00 0. -1.
         25    2    1    2    0    0  0.32871309487E+02  0.14916469074E+03 -0.25828322891E+03  0.32509731352E+03  0.12508960375E+03 0.  0.
          5    1    3    3  502    0 -0.13246261561E+02 -0.18652227300E+02 -0.27461736534E+02  0.35985947286E+02  0.41800000000E+01 0.  1.
         -5    1    3    3    0  502  0.46117571048E+02  0.16781691804E+03 -0.23082149238E+03  0.28911136623E+03  0.41800000000E+01 0.  1.
        -11    1    1    2    0    0  0.16881194944E+02 -0.99007891374E+02 -0.73411675227E+02  0.12440583329E+03  0.00000000000E+00 0. -1.
         11    1    1    2    0    0 -0.49752504431E+02 -0.50156799370E+02 -0.16964489815E+02  0.72655420547E+02  0.00000000000E+00 0.  1.
</event>
<event>
 7    1  0.2943257E-009  0.9064738E+02  0.7561462E-02  0.1301292E+00
         -1   -1    0    0    0  501 -0.00000000000E+00  0.00000000000E+00  0.75863920277E+02  0.75863920277E+02  0.00000000000E+00 0.  1.
          1   -1    0    0  501    0  0.00000000000E+00 -0.00000000000E+00 -0.21043721516E+03  0.21043721516E+03  0.00000000000E+00 0. -1.
         25    2    1    2    0    0 -0.13652747987E+02 -0.60204991738E+02 -0.56355785686E+02  0.15044981334E+03  0.12509249857E+03 0.  0.
          5    1    3    3  502    0 -0.35622331069E+02 -0.59550140601E+02  0.18816461832E+02  0.72018756947E+02  0.41800000000E+01 0.  1.
         -5    1    3    3    0  502  0.21969583082E+02 -0.65485113729E+00 -0.75172247518E+02  0.78431056398E+02  0.41800000000E+01 0.  1.
        -11    1    1    2    0    0  0.16581075101E+02 -0.98513121399E+01 -0.60542612064E+02  0.63540446001E+02  0.00000000000E+00 0. -1.
         11    1    1    2    0    0 -0.29283271145E+01  0.70056303878E+02 -0.17674897135E+02  0.72310876094E+02  0.00000000000E+00 0.  1.
</event>
<event>
 7    1  0.2943257E-009  0.2064819E+03  0.7561462E-02  0.1144383E+00
         -2   -1    0    0    0  501 -0.00000000000E+00  0.00000000000E+00  0.58746088217E+02  0.58746088217E+02  0.00000000000E+00 0.  1.
          2   -1    0    0  501    0  0.00000000000E+00 -0.00000000000E+00 -0.15054381274E+04  0.15054381274E+04  0.00000000000E+00 0. -1.
         25    2    1    2    0    0 -0.26866639550E+02  0.20239168953E+03 -0.12289219975E+04  0.12520305918E+04  0.12508842665E+03 0.  0.
          5    1    3    3  502    0 -0.30210632011E+02  0.15612666693E+03 -0.11454600495E+04  0.11564533781E+04  0.41800000000E+01 0.  1.
         -5    1    3    3    0  502  0.33439924613E+01  0.46265022603E+02 -0.83461948017E+02  0.95577213648E+02  0.41800000000E+01 0.  1.
        -11    1    1    2    0    0  0.35034015916E+02 -0.18208642798E+03 -0.22262818170E+03  0.28973463171E+03  0.00000000000E+00 0. -1.
         11    1    1    2    0    0 -0.81673763662E+01 -0.20305261554E+02  0.48581400274E+01  0.22418992127E+02  0.00000000000E+00 0.  1.
</event>
<event>
 7    1  0.2943257E-009  0.1170230E+03  0.7561462E-02  0.1248091E+00
         -1   -1    0    0    0  501 -0.00000000000E+00  0.00000000000E+00  0.38932374361E+02  0.38932374361E+02  0.00000000000E+00 0.  1.
          1   -1    0    0  501    0  0.00000000000E+00 -0.00000000000E+00 -0.11984532759E+04  0.11984532759E+04  0.00000000000E+00 0. -1.
         25    2    1    2    0    0 -0.75359788656E+02 -0.28688615501E+02 -0.10826832461E+04  0.10928644566E+04  0.12509026636E+03 0.  0.
          5    1    3    3  502    0  0.20895133359E+01 -0.63589684573E+02 -0.47131567807E+03  0.47560903571E+03  0.41800000000E+01 0.  1.
         -5    1    3    3    0  502 -0.77449301992E+02  0.34901069071E+02 -0.61136756804E+03  0.61725542092E+03  0.41800000000E+01 0.  1.
        -11    1    1    2    0    0  0.34457403423E+02  0.27876473078E+02  0.12678682305E+02  0.46099451048E+02  0.00000000000E+00 0.  1.
         11    1    1    2    0    0  0.40902385233E+02  0.81214242302E+00 -0.89516337729E+02  0.98421742585E+02  0.00000000000E+00 0. -1.
</event>
<event>
 7    1  0.2943257E-009  0.2239449E+03  0.7561462E-02  0.1130976E+00
          2   -1    0    0  501    0  0.00000000000E+00  0.00000000000E+00  0.13277488397E+03  0.13277488397E+03  0.00000000000E+00 0. -1.
         -2   -1    0    0    0  501 -0.00000000000E+00 -0.00000000000E+00 -0.54550779104E+03  0.54550779104E+03  0.00000000000E+00 0.  1.
         25    2    1    2    0    0 -0.20471537334E+02  0.22138950328E+03 -0.80546551514E+02  0.26751996124E+03  0.12508711642E+03 0.  0.
          5    1    3    3  502    0 -0.28725396458E+02  0.19208033319E+03 -0.11142835801E+03  0.22395033862E+03  0.41800000000E+01 0.  1.
         -5    1    3    3    0  502  0.82538591238E+01  0.29309170095E+02  0.30881806499E+02  0.43569622614E+02  0.41800000000E+01 0.  1.
        -11    1    1    2    0    0  0.18650581415E+02 -0.11610079217E+03 -0.25305152171E+03  0.27903818872E+03  0.00000000000E+00 0.  1.
         11    1    1    2    0    0  0.18209559192E+01 -0.10528871112E+03 -0.79134833848E+02  0.13172452504E+03  0.00000000000E+00 0. -1.
</event>
<event>
 7    1  0.2943257E-009  0.9576484E+02  0.7561462E-02  0.1289463E+00
         -3   -1    0    0    0  501 -0.00000000000E+00  0.00000000000E+00  0.20574259323E+03  0.20574259323E+03  0.00000000000E+00 0.  1.
          3   -1    0    0  501    0  0.00000000000E+00 -0.00000000000E+00 -0.56866946578E+02  0.56866946578E+02  0.00000000000E+00 0. -1.
         25    2    1    2    0    0  0.57167194369E+01  0.14675110133E+01  0.84538589846E+02  0.15109031071E+03  0.12508666734E+03 0.  0.
          5    1    3    3  502    0  0.54611303860E+02 -0.66173635190E+01  0.25894212110E+01  0.55230077960E+02  0.41800000000E+01 0.  1.
         -5    1    3    3    0  502 -0.48894584423E+02  0.80848745324E+01  0.81949168635E+02  0.95860232746E+02  0.41800000000E+01 0.  1.
        -11    1    1    2    0    0 -0.17343456664E+02 -0.41479222747E+02  0.50503689524E+02  0.67616152391E+02  0.00000000000E+00 0. -1.
         11    1    1    2    0    0  0.11626737227E+02  0.40011711733E+02  0.13833367285E+02  0.43903076712E+02  0.00000000000E+00 0.  1.
</event>
<event>
 7    1  0.2943257E-009  0.1213276E+03  0.7561462E-02  0.1240923E+00
          1   -1    0    0  501    0  0.00000000000E+00  0.00000000000E+00  0.16962331910E+03  0.16962331910E+03  0.00000000000E+00 0. -1.
         -1   -1    0    0    0  501 -0.00000000000E+00 -0.00000000000E+00 -0.96149093820E+02  0.96149093820E+02  0.00000000000E+00 0.  1.
         25    2    1    2    0    0 -0.62958198981E+01  0.56346125759E+02  0.10576249610E+01  0.13734385316E+03  0.12509073584E+03 0.  0.
          5    1    3    3  502    0  0.39776980824E+02  0.76867932919E+02  0.29219267965E+01  0.86700042509E+02  0.41800000000E+01 0.  1.
         -5    1    3    3    0  502 -0.46072800722E+02 -0.20521807161E+02 -0.18643018355E+01  0.50643810647E+02  0.41800000000E+01 0.  1.
        -11    1    1    2    0    0 -0.20583177279E+02 -0.71592697481E+02  0.57564087509E+02  0.94142475484E+02  0.00000000000E+00 0. -1.
         11    1    1    2    0    0  0.26878997177E+02  0.15246571722E+02  0.14852512810E+02  0.34286084281E+02  0.00000000000E+00 0.  1.
</event>
<event>
 7    1  0.2943257E-009  0.1899124E+03  0.7561462E-02  0.1158540E+00
         -2   -1    0    0    0  501 -0.00000000000E+00  0.00000000000E+00  0.38308300922E+02  0.38308300922E+02  0.00000000000E+00 0. -1.
          2   -1    0    0  501    0  0.00000000000E+00 -0.00000000000E+00 -0.11361375174E+04  0.11361375174E+04  0.00000000000E+00 0.  1.
         25    2    1    2    0    0  0.14291691620E+03  0.74585598280E+02 -0.36413255082E+03  0.41740176344E+03  0.12507382279E+03 0.  0.
          5    1    3    3  502    0 -0.11713097353E+02 -0.11003428226E+02 -0.87806737535E+02  0.89363122366E+02  0.41800000000E+01 0.  1.
         -5    1    3    3    0  502  0.15463001355E+03  0.85589026506E+02 -0.27632581329E+03  0.32803864108E+03  0.41800000000E+01 0.  1.
        -11    1    1    2    0    0 -0.15360072876E+03 -0.53245362620E+02 -0.64877092824E+03  0.66882880458E+03  0.00000000000E+00 0.  1.
         11    1    1    2    0    0  0.10683812558E+02 -0.21340235660E+02 -0.84925737391E+02  0.88215250271E+02  0.00000000000E+00 0. -1.
</event>
<event>
 7    1  0.2943257E-009  0.9140863E+02  0.7561462E-02  0.1299476E+00
         -1   -1    0    0    0  501 -0.00000000000E+00  0.00000000000E+00  0.38700940537E+03  0.38700940537E+03  0.00000000000E+00 0.  1.
          1   -1    0    0  501    0  0.00000000000E+00 -0.00000000000E+00 -0.42605484714E+02  0.42605484714E+02  0.00000000000E+00 0. -1.
         25    2    1    2    0    0 -0.21313633494E+02  0.39660846012E+01  0.30033344151E+03  0.32606379325E+03  0.12508964935E+03 0.  0.
          5    1    3    3  502    0 -0.77714775299E+01 -0.57515594427E+02  0.19277318485E+03  0.20136388123E+03  0.41800000000E+01 0. -1.
         -5    1    3    3    0  502 -0.13542155964E+02  0.61481679028E+02  0.10756025666E+03  0.12469991202E+03  0.41800000000E+01 0. -1.
        -11    1    1    2    0    0  0.25039144965E+00  0.25396904550E+02  0.59167070069E+02  0.64387946365E+02  0.00000000000E+00 0.  1.
         11    1    1    2    0    0  0.21063242044E+02 -0.29362989151E+02 -0.15096590926E+02  0.39163150472E+02  0.00000000000E+00 0. -1.
</event>
<event>
 7    1  0.2943257E-009  0.1204831E+03  0.7561462E-02  0.1242302E+00
          2   -1    0    0  501    0  0.00000000000E+00  0.00000000000E+00  0.40331821026E+03  0.40331821026E+03  0.00000000000E+00 0. -1.
         -2   -1    0    0    0  501 -0.00000000000E+00 -0.00000000000E+00 -0.46607607009E+02  0.46607607009E+02  0.00000000000E+00 0.  1.
         25    2    1    2    0    0  0.30244728080E+02  0.50689450555E+02  0.15214919581E+03  0.20562377579E+03  0.12509034899E+03 0.  0.
          5    1    3    3  502    0  0.54943138870E+02  0.60188756447E+02  0.41060375241E+02  0.91350214704E+02  0.41800000000E+01 0. -1.
         -5    1    3    3    0  502 -0.24698410790E+02 -0.94993058918E+01  0.11108882057E+03  0.11427356108E+03  0.41800000000E+01 0. -1.
        -11    1    1    2    0    0  0.35355194193E+01 -0.84620636410E+02  0.14450454259E+03  0.16749541735E+03  0.00000000000E+00 0. -1.
         11    1    1    2    0    0 -0.33780247500E+02  0.33931185855E+02  0.60056864861E+02  0.76806624139E+02  0.00000000000E+00 0.  1.
</event>
<event>
 7    1  0.2943257E-009  0.4820918E+02  0.7561462E-02  0.1455247E+00
          1   -1    0    0  501    0  0.00000000000E+00  0.00000000000E+00  0.63911429560E+02  0.63911429560E+02  0.00000000000E+00 0. -1.
         -1   -1    0    0    0  501 -0.00000000000E+00 -0.00000000000E+00 -0.20256066432E+03  0.20256066432E+03  0.00000000000E+00 0.  1.
         25    2    1    2    0    0 -0.35764776851E+00  0.12378783147E+02 -0.10948952537E+03  0.16670812894E+03  0.12510108675E+03 0.  0.
          5    1    3    3  502    0  0.12101026966E+02  0.13115985993E+02  0.25319996081E+02  0.31257615771E+02  0.41800000000E+01 0.  1.
         -5    1    3    3    0  502 -0.12458674734E+02 -0.73720284567E+00 -0.13480952145E+03  0.13545051317E+03  0.41800000000E+01 0.  1.
        -11    1    1    2    0    0  0.21030672361E+02  0.18337634335E+02  0.22750757026E+02  0.36002152133E+02  0.00000000000E+00 0. -1.
         11    1    1    2    0    0 -0.20673024592E+02 -0.30716417482E+02 -0.51910466419E+02  0.63761812808E+02  0.00000000000E+00 0.  1.
</event>
<event>
 7    1  0.2943257E-009  0.9880841E+02  0.7561462E-02  0.1282822E+00
         -1   -1    0    0    0  501 -0.00000000000E+00  0.00000000000E+00  0.50914554797E+03  0.50914554797E+03  0.00000000000E+00 0. -1.
          1   -1    0    0  501    0  0.00000000000E+00 -0.00000000000E+00 -0.39883290682E+02  0.39883290682E+02  0.00000000000E+00 0.  1.
         25    2    1    2    0    0  0.60443143636E+02 -0.21381608966E+02  0.12856201851E+03  0.19048887887E+03  0.12508906250E+03 0.  0.
          5    1    3    3  502    0  0.68028185790E+02 -0.67359123645E-01  0.14632717238E+03  0.16142166018E+03  0.41800000000E+01 0. -1.
         -5    1    3    3    0  502 -0.75850421538E+01 -0.21314249842E+02 -0.17765153867E+02  0.29067218696E+02  0.41800000000E+01 0. -1.
        -11    1    1    2    0    0  0.13808696797E+01 -0.27564998527E+02  0.14402869755E+03  0.14664924706E+03  0.00000000000E+00 0.  1.
         11    1    1    2    0    0 -0.61824013316E+02  0.48946607492E+02  0.19667154123E+03  0.21189071272E+03  0.00000000000E+00 0. -1.
</event>
<event>
 7    1  0.2943257E-009  0.1224548E+03  0.7561462E-02  0.1239101E+00
         -1   -1    0    0    0  501 -0.00000000000E+00  0.00000000000E+00  0.21950340638E+02  0.21950340638E+02  0.00000000000E+00 0.  1.
          1   -1    0    0  501    0  0.00000000000E+00 -0.00000000000E+00 -0.80561339084E+03  0.80561339084E+03  0.00000000000E+00 0. -1.
         25    2    1    2    0    0 -0.73091505155E+02 -0.58806055067E+01 -0.36570740628E+03  0.39340325551E+03  0.12508902747E+03 0.  0.
          5    1    3    3  502    0 -0.10110732524E+03 -0.23018432209E+02 -0.32363343615E+03  0.33986558053E+03  0.41800000000E+01 0.  1.
         -5    1    3    3    0  502  0.28015820089E+02  0.17137826702E+02 -0.42073970130E+02  0.53537674976E+02  0.41800000000E+01 0.  1.
        -11    1    1    2    0    0  0.90400875079E+02  0.70494348938E+01 -0.39562189686E+03  0.40588015229E+03  0.00000000000E+00 0. -1.
         11    1    1    2    0    0 -0.17309369924E+02 -0.11688293870E+01 -0.22333747060E+02  0.28280323673E+02  0.00000000000E+00 0.  1.
</event>
<event>
 7    1  0.2943257E-009  0.1004323E+03  0.7561462E-02  0.1279390E+00
         -1   -1    0    0    0  501 -0.00000000000E+00  0.00000000000E+00  0.88968772670E+01  0.88968772670E+01  0.00000000000E+00 0.  1.
          1   -1    0    0  501    0  0.00000000000E+00 -0.00000000000E+00 -0.14697740899E+04  0.14697740899E+04  0.00000000000E+00 0. -1.
         25    2    1    2    0    0  0.24682287577E+02  0.67840010487E+01 -0.99020303667E+03  0.99840122921E+03  0.12509085767E+03 0.  0.
          5    1    3    3  502    0 -0.37603522928E+02  0.21083807928E+02 -0.16086212845E+03  0.16659126226E+03  0.41800000000E+01 0.  1.
         -5    1    3    3    0  502  0.62285810505E+02 -0.14299806879E+02 -0.82934090822E+03  0.83180996695E+03  0.41800000000E+01 0.  1.
        -11    1    1    2    0    0  0.30893658810E+02 -0.19451556900E+02 -0.13798740492E+03  0.14273508727E+03  0.00000000000E+00 0.  1.
         11    1    1    2    0    0 -0.55575946387E+02  0.12667555852E+02 -0.33268677105E+03  0.33753465070E+03  0.00000000000E+00 0. -1.
</event>
<event>
 7    1  0.2943257E-009  0.1688398E+03  0.7561462E-02  0.1179063E+00
          2   -1    0    0  501    0  0.00000000000E+00  0.00000000000E+00  0.94200001335E+03  0.94200001335E+03  0.00000000000E+00 0. -1.
         -2   -1    0    0    0  501 -0.00000000000E+00 -0.00000000000E+00 -0.34419727717E+02  0.34419727717E+02  0.00000000000E+00 0.  1.
         25    2    1    2    0    0  0.16231804584E+02  0.13107769448E+03  0.33452762690E+03  0.38079083180E+03  0.12509232971E+03 0.  0.
          5    1    3    3  502    0  0.38473554984E+02  0.14466590339E+03  0.31203914074E+03  0.34611318350E+03  0.41800000000E+01 0.  1.
         -5    1    3    3    0  502 -0.22241750400E+02 -0.13588208904E+02  0.22488486158E+02  0.34677648302E+02  0.41800000000E+01 0.  1.
        -11    1    1    2    0    0  0.18222564640E+02  0.67714380445E+01  0.50817221831E+02  0.54408678259E+02  0.00000000000E+00 0. -1.
         11    1    1    2    0    0 -0.34454369224E+02 -0.13784913253E+03  0.52223543690E+03  0.54122023101E+03  0.00000000000E+00 0.  1.
</event>
<event>
 7    1  0.2943257E-009  0.9678740E+02  0.7561462E-02  0.1287200E+00
         -2   -1    0    0    0  501 -0.00000000000E+00  0.00000000000E+00  0.79903363177E+02  0.79903363177E+02  0.00000000000E+00 0.  1.
          2   -1    0    0  501    0  0.00000000000E+00 -0.00000000000E+00 -0.25022846860E+03  0.25022846860E+03  0.00000000000E+00 0. -1.
         25    2    1    2    0    0 -0.62871380633E+02  0.13059302689E+02 -0.18078085061E+02  0.14176471992E+03  0.12508821994E+03 0.  0.
          5    1    3    3  502    0 -0.85809307039E+02  0.27858828619E+02  0.22129423225E+02  0.92986747867E+02  0.41800000000E+01 0.  1.
         -5    1    3    3    0  502  0.22937926406E+02 -0.14799525931E+02 -0.40207508286E+02  0.48777972058E+02  0.41800000000E+01 0.  1.
        -11    1    1    2    0    0  0.13332000680E+02  0.13886272903E+02  0.61676643936E+01  0.20214126282E+02  0.00000000000E+00 0.  1.
         11    1    1    2    0    0  0.49539379953E+02 -0.26945575592E+02 -0.15841468476E+03  0.16815298558E+03  0.00000000000E+00 0. -1.
</event>
<event>
 7    1  0.2943257E-009  0.1854802E+03  0.7561462E-02  0.1162602E+00
         -2   -1    0    0    0  501 -0.00000000000E+00  0.00000000000E+00  0.12485036814E+03  0.12485036814E+03  0.00000000000E+00 0.  1.
          2   -1    0    0  501    0  0.00000000000E+00 -0.00000000000E+00 -0.34347386266E+03  0.34347386266E+03  0.00000000000E+00 0. -1.
         25    2    1    2    0    0 -0.64946604991E+02 -0.16340410050E+03 -0.12346484743E+03  0.24862129017E+03  0.12510002324E+03 0.  0.
          5    1    3    3  502    0 -0.33859618131E+02 -0.60420160167E+01 -0.72350709059E+02  0.80218932920E+02  0.41800000000E+01 0. -1.
         -5    1    3    3    0  502 -0.31086986860E+02 -0.15736208449E+03 -0.51114138376E+02  0.16840235725E+03  0.41800000000E+01 0. -1.
        -11    1    1    2    0    0  0.27166282620E+02  0.71644818457E+02  0.74204832704E+01  0.76980844988E+02  0.00000000000E+00 0.  1.
         11    1    1    2    0    0  0.37780322372E+02  0.91759282048E+02 -0.10257913035E+03  0.14272209564E+03  0.00000000000E+00 0. -1.
</event>
<event>
 7    1  0.2943257E-009  0.1591054E+03  0.7561462E-02  0.1189710E+00
         -2   -1    0    0    0  501 -0.00000000000E+00  0.00000000000E+00  0.11931116911E+03  0.11931116911E+03  0.00000000000E+00 0. -1.
          2   -1    0    0  501    0  0.00000000000E+00 -0.00000000000E+00 -0.23757315644E+03  0.23757315644E+03  0.00000000000E+00 0.  1.
         25    2    1    2    0    0  0.11845591115E+03  0.27053003181E+02 -0.18220391230E+02  0.17533579416E+03  0.12508792983E+03 0.  0.
          5    1    3    3  502    0  0.12642569976E+03 -0.17704780186E+02 -0.21666215333E+02  0.12955236041E+03  0.41800000000E+01 0.  1.
         -5    1    3    3    0  502 -0.79697886081E+01  0.44757783367E+02  0.34458241026E+01  0.45783433752E+02  0.41800000000E+01 0.  1.
        -11    1    1    2    0    0 -0.86601799274E+02 -0.54885082987E+02 -0.44592253339E+02  0.11180658760E+03  0.00000000000E+00 0. -1.
         11    1    1    2    0    0 -0.31854111878E+02  0.27832079806E+02 -0.55449342763E+02  0.69741943784E+02  0.00000000000E+00 0.  1.
</event>
<event>
 7    1  0.2943257E-009  0.9517601E+02  0.7561462E-02  0.1290780E+00
          2   -1    0    0  501    0  0.00000000000E+00  0.00000000000E+00  0.25558216867E+03  0.25558216867E+03  0.00000000000E+00 0. -1.
         -2   -1    0    0    0  501 -0.00000000000E+00 -0.00000000000E+00 -0.75064063309E+02  0.75064063309E+02  0.00000000000E+00 0.  1.
         25    2    1    2    0    0  0.62506378201E+01  0.38497239616E+01  0.20245398885E+03  0.23808685532E+03  0.12507534622E+03 0.  0.
          5    1    3    3  502    0 -0.40660285057E+02  0.26098061526E+02  0.16984788661E+03  0.17663562659E+03  0.41800000000E+01 0.  1.
         -5    1    3    3    0  502  0.46910922877E+02 -0.22248337564E+02  0.32606102236E+02  0.61451228731E+02  0.41800000000E+01 0.  1.
        -11    1    1    2    0    0 -0.27259753255E+02 -0.39734535138E+02 -0.14468888488E+02  0.50311789515E+02  0.00000000000E+00 0.  1.
         11    1    1    2    0    0  0.21009115434E+02  0.35884811176E+02 -0.74669949993E+01  0.42247587136E+02  0.00000000000E+00 0. -1.
</event>
<event>
 7    1  0.2943257E-009  0.2024019E+03  0.7561462E-02  0.1147728E+00
          1   -1    0    0  501    0  0.00000000000E+00  0.00000000000E+00  0.87455689650E+03  0.87455689650E+03  0.00000000000E+00 0. -1.
         -1   -1    0    0    0  501 -0.00000000000E+00 -0.00000000000E+00 -0.13421955679E+03  0.13421955679E+03  0.00000000000E+00 0.  1.
         25    2    1    2    0    0  0.13670300001E+03 -0.13171673864E+03  0.76414089518E+03  0.79724160919E+03  0.12508343734E+03 0.  0.
          5    1    3    3  502    0  0.95890333845E+02 -0.12868156676E+03  0.40350285741E+03  0.43426481562E+03  0.41800000000E+01 0. -1.
         -5    1    3    3    0  502  0.40812666167E+02 -0.30351718813E+01  0.36063803776E+03  0.36297679357E+03  0.41800000000E+01 0. -1.
        -11    1    1    2    0    0 -0.11260525989E+03  0.13811201267E+03 -0.16868715089E+01  0.17820695310E+03  0.00000000000E+00 0.  1.
         11    1    1    2    0    0 -0.24097740125E+02 -0.63952740320E+01 -0.22116683959E+02  0.33327890998E+02  0.00000000000E+00 0. -1.
</event>
<event>
 7    1  0.2943257E-009  0.6778754E+02  0.7561462E-02  0.1367782E+00
          2   -1    0    0  501    0  0.00000000000E+00  0.00000000000E+00  0.20076308504E+03  0.20076308504E+03  0.00000000000E+00 0. -1.
         -2   -1    0    0    0  501 -0.00000000000E+00 -0.00000000000E+00 -0.70767998997E+02  0.70767998997E+02  0.00000000000E+00 0.  1.
         25    2    1    2    0    0 -0.47357886492E+02 -0.16941828863E+02  0.92369687015E+02  0.16343396208E+03  0.12509478767E+03 0.  0.
          5    1    3    3  502    0 -0.19689592352E+02 -0.20732211828E+02 -0.27736122645E+02  0.40053333865E+02  0.41800000000E+01 0.  1.
         -5    1    3    3    0  502 -0.27668294140E+02  0.37903829647E+01  0.12010580966E+03  0.12338062821E+03  0.41800000000E+01 0.  1.
        -11    1    1    2    0    0  0.28161142322E+02  0.39696323715E+02 -0.12089790797E+02  0.50149886290E+02  0.00000000000E+00 0.  1.
         11    1    1    2    0    0  0.19196744170E+02 -0.22754494851E+02  0.49715189829E+02  0.57947235675E+02  0.00000000000E+00 0. -1.
</event>
<event>
 7    1  0.2943257E-009  0.8234442E+02  0.7561462E-02  0.1322527E+00
         -2   -1    0    0    0  501 -0.00000000000E+00  0.00000000000E+00  0.29594895089E+02  0.29594895089E+02  0.00000000000E+00 0.  1.
          2   -1    0    0  501    0  0.00000000000E+00 -0.00000000000E+00 -0.48358308579E+03  0.48358308579E+03  0.00000000000E+00 0. -1.
         25    2    1    2    0    0  0.13068524553E+02 -0.49158796786E+02 -0.28132824614E+03  0.31205906260E+03  0.12509157779E+03 0.  0.
          5    1    3    3  502    0  0.30492527291E+02 -0.58698387778E+02 -0.28395759808E+03  0.29158992585E+03  0.41800000000E+01 0.  1.
         -5    1    3    3    0  502 -0.17424002738E+02  0.95395909917E+01  0.26293519353E+01  0.20469136751E+02  0.41800000000E+01 0.  1.
        -11    1    1    2    0    0  0.23778675781E+02  0.17378709364E+02 -0.96368812614E+01  0.30988940632E+02  0.00000000000E+00 0.  1.
         11    1    1    2    0    0 -0.36847200333E+02  0.31780087423E+02 -0.16302306329E+03  0.17012997765E+03  0.00000000000E+00 0. -1.
</event>
<event>
 7    1  0.2943257E-009  0.1152973E+03  0.7561462E-02  0.1251063E+00
          3   -1    0    0  501    0  0.00000000000E+00  0.00000000000E+00  0.48554960009E+03  0.48554960009E+03  0.00000000000E+00 0. -1.
         -3   -1    0    0    0  501 -0.00000000000E+00 -0.00000000000E+00 -0.36675253859E+02  0.36675253859E+02  0.00000000000E+00 0.  1.
         25    2    1    2    0    0 -0.64820663948E+02 -0.41943030853E+02  0.23191139612E+03  0.27457728211E+03  0.12509537116E+03 0.  0.
          5    1    3    3  502    0  0.20469747577E+02  0.15308930902E+02  0.11936340408E+03  0.12214118292E+03  0.41800000000E+01 0.  1.
         -5    1    3    3    0  502 -0.85290411525E+02 -0.57251961755E+02  0.11254799204E+03  0.15243609919E+03  0.41800000000E+01 0.  1.
        -11    1    1    2    0    0  0.45251639726E+02 -0.10029861038E+02  0.16573238229E+03  0.17209163707E+03  0.00000000000E+00 0. -1.
         11    1    1    2    0    0  0.19569024222E+02  0.51972891891E+02  0.51230567827E+02  0.75555934779E+02  0.00000000000E+00 0.  1.
</event>
<event>
 7    1  0.2943257E-009  0.1263742E+03  0.7561462E-02  0.1232937E+00
          2   -1    0    0  501    0  0.00000000000E+00  0.00000000000E+00  0.68160766360E+03  0.68160766360E+03  0.00000000000E+00 0. -1.
         -2   -1    0    0    0  501 -0.00000000000E+00 -0.00000000000E+00 -0.26176541348E+02  0.26176541348E+02  0.00000000000E+00 0.  1.
         25    2    1    2    0    0  0.61858624241E+02  0.44427750534E+02  0.33102553574E+03  0.36197491986E+03  0.12509045882E+03 0.  0.
          5    1    3    3  502    0 -0.27845247968E+02 -0.21151106447E+02  0.83158930510E+02  0.90308400838E+02  0.41800000000E+01 0.  1.
         -5    1    3    3    0  502  0.89703872209E+02  0.65578856981E+02  0.24786660522E+03  0.27166651902E+03  0.41800000000E+01 0.  1.
        -11    1    1    2    0    0 -0.32505068695E+02  0.18139409883E+02  0.20056263690E+03  0.20398771777E+03  0.00000000000E+00 0. -1.
         11    1    1    2    0    0 -0.29353555546E+02 -0.62567160417E+02  0.12384294962E+03  0.14182156732E+03  0.00000000000E+00 0.  1.
</event>
<event>
 7    1  0.2943257E-009  0.1115303E+03  0.7561462E-02  0.1257762E+00
         -1   -1    0    0    0  501 -0.00000000000E+00  0.00000000000E+00  0.42253615197E+02  0.42253615197E+02  0.00000000000E+00 0.  1.
          1   -1    0    0  501    0  0.00000000000E+00 -0.00000000000E+00 -0.31949837264E+03  0.31949837264E+03  0.00000000000E+00 0. -1.
         25    2    1    2    0    0  0.83550721171E+01  0.41371646994E+02 -0.16485494157E+03  0.21120194818E+03  0.12509073006E+03 0.  0.
          5    1    3    3  502    0  0.62968402422E+02  0.44187082172E+02 -0.10097817939E+03  0.12701016907E+03  0.41800000000E+01 0.  1.
         -5    1    3    3    0  502 -0.54613330305E+02 -0.28154351785E+01 -0.63876762179E+02  0.84191779104E+02  0.41800000000E+01 0.  1.
        -11    1    1    2    0    0 -0.27288920345E+02 -0.59189329187E+02 -0.47511326374E+02  0.80655985500E+02  0.00000000000E+00 0.  1.
         11    1    1    2    0    0  0.18933848228E+02  0.17817682193E+02 -0.64878489497E+02  0.69894054160E+02  0.00000000000E+00 0. -1.
</event>
<event>
 7    1  0.2943257E-009  0.1148737E+03  0.7561462E-02  0.1251802E+00
          1   -1    0    0  501    0  0.00000000000E+00  0.00000000000E+00  0.28215203595E+02  0.28215203595E+02  0.00000000000E+00 0. -1.
         -1   -1    0    0    0  501 -0.00000000000E+00 -0.00000000000E+00 -0.73806450088E+03  0.73806450088E+03  0.00000000000E+00 0.  1.
         25    2    1    2    0    0 -0.24325711377E+01 -0.61698903051E+02 -0.57975032076E+03  0.59629711509E+03  0.12508854065E+03 0.  0.
          5    1    3    3  502    0  0.51771379485E+02 -0.73544104047E+01 -0.35288373196E+03  0.35676149423E+03  0.41800000000E+01 0.  1.
         -5    1    3    3    0  502 -0.54203950623E+02 -0.54344492647E+02 -0.22686658881E+03  0.23953562086E+03  0.41800000000E+01 0.  1.
        -11    1    1    2    0    0 -0.11009321885E+01  0.80894660144E+02 -0.70639718276E+02  0.10740171269E+03  0.00000000000E+00 0. -1.
         11    1    1    2    0    0  0.35335033261E+01 -0.19195757092E+02 -0.59459258242E+02  0.62580876686E+02  0.00000000000E+00 0.  1.
</event>
<event>
 7    1  0.2943257E-009  0.2038533E+03  0.7561462E-02  0.1146528E+00
          1   -1    0    0  501    0  0.00000000000E+00  0.00000000000E+00  0.70318928788E+03  0.70318928788E+03  0.00000000000E+00 0. -1.
         -1   -1    0    0    0  501 -0.00000000000E+00 -0.00000000000E+00 -0.11855722771E+03  0.11855722771E+03  0.00000000000E+00 0.  1.
         25    2    1    2    0    0  0.34264083623E+02  0.18772113502E+03  0.31670450747E+02  0.23036020229E+03  0.12509817501E+03 0.  0.
          5    1    3    3  502    0  0.40871784290E+02  0.23529897092E+02 -0.28563173870E+02  0.55294539601E+02  0.41800000000E+01 0.  1.
         -5    1    3    3    0  502 -0.66077006676E+01  0.16419123792E+03  0.60233624617E+02  0.17506566269E+03  0.41800000000E+01 0.  1.
        -11    1    1    2    0    0 -0.37524398934E+02 -0.81624284550E+02  0.15153760873E+03  0.17616540865E+03  0.00000000000E+00 0.  1.
         11    1    1    2    0    0  0.32603153116E+01 -0.10609685047E+03  0.40142400069E+03  0.41522090466E+03  0.00000000000E+00 0. -1.
</event>
<event>
 7    1  0.2943257E-009  0.1417319E+03  0.7561462E-02  0.1211017E+00
          1   -1    0    0  501    0  0.00000000000E+00  0.00000000000E+00  0.79633236925E+03  0.79633236925E+03  0.00000000000E+00 0. -1.
         -1   -1    0    0    0  501 -0.00000000000E+00 -0.00000000000E+00 -0.47592892217E+02  0.47592892217E+02  0.00000000000E+00 0.  1.
         25    2    1    2    0    0 -0.10004793116E+03 -0.25656834029E+02  0.66223715438E+03  0.68181650672E+03  0.12509132078E+03 0.  0.
          5    1    3    3  502    0  0.58955472107E+01 -0.38880965916E+02  0.34078512988E+03  0.34307209758E+03  0.41800000000E+01 0.  1.
         -5    1    3    3    0  502 -0.10594347837E+03  0.13224131887E+02  0.32145202450E+03  0.33874440915E+03  0.41800000000E+01 0.  1.
        -11    1    1    2    0    0  0.26157084217E+02 -0.33438465521E+02  0.25197947977E+02  0.49368619723E+02  0.00000000000E+00 0. -1.
         11    1    1    2    0    0  0.73890846939E+02  0.59095299550E+02  0.61304374670E+02  0.11274013502E+03  0.00000000000E+00 0.  1.
</event>
<event>
 7    1  0.2943257E-009  0.2068609E+03  0.7561462E-02  0.1144076E+00
          1   -1    0    0  501    0  0.00000000000E+00  0.00000000000E+00  0.23643587332E+03  0.23643587332E+03  0.00000000000E+00 0. -1.
         -1   -1    0    0    0  501 -0.00000000000E+00 -0.00000000000E+00 -0.24346930394E+03  0.24346930394E+03  0.00000000000E+00 0.  1.
         25    2    1    2    0    0  0.19701994850E+03  0.22140948654E+02 -0.81729876052E+02  0.24826244473E+03  0.12508951638E+03 0.  0.
          5    1    3    3  502    0  0.61672061807E+02  0.16506344608E+02  0.31817015763E+02  0.71454163713E+02  0.41800000000E+01 0. -1.
         -5    1    3    3    0  502  0.13534788669E+03  0.56346040454E+01 -0.11354689182E+03  0.17680828102E+03  0.41800000000E+01 0. -1.
        -11    1    1    2    0    0 -0.10386072602E+03  0.29140980204E+02  0.12874733458E+02  0.10863703741E+03  0.00000000000E+00 0.  1.
         11    1    1    2    0    0 -0.93159222480E+02 -0.51281928858E+02  0.61821711979E+02  0.12300569512E+03  0.00000000000E+00 0. -1.
</event>
<event>
 7    1  0.2943257E-009  0.1626965E+03  0.7561462E-02  0.1185686E+00
          1   -1    0    0  501    0  0.00000000000E+00  0.00000000000E+00  0.10697734930E+04  0.10697734930E+04  0.00000000000E+00 0. -1.
         -1   -1    0    0    0  501 -0.00000000000E+00 -0.00000000000E+00 -0.43001814876E+02  0.43001814876E+02  0.00000000000E+00 0.  1.
         25    2    1    2    0    0  0.14061872460E+03 -0.33369155811E+02  0.23716516606E+03  0.30460074153E+03  0.12508864649E+03 0.  0.
          5    1    3    3  502    0  0.88923748415E+02 -0.47684340366E+02  0.22887221357E+03  0.25016233108E+03  0.41800000000E+01 0. -1.
         -5    1    3    3    0  502  0.51694976180E+02  0.14315184554E+02  0.82929524916E+01  0.54438410448E+02  0.41800000000E+01 0. -1.
        -11    1    1    2    0    0 -0.89593565420E+02 -0.25056433814E+02  0.48533780284E+03  0.49417366857E+03  0.00000000000E+00 0.  1.
         11    1    1    2    0    0 -0.51025159175E+02  0.58425589626E+02  0.30426870918E+03  0.31400089774E+03  0.00000000000E+00 0. -1.
</event>
<event>
 7    1  0.2943257E-009  0.4911468E+02  0.7561462E-02  0.1450176E+00
          2   -1    0    0  501    0  0.00000000000E+00  0.00000000000E+00  0.96007001663E+02  0.96007001663E+02  0.00000000000E+00 0. -1.
         -2   -1    0    0    0  501 -0.00000000000E+00 -0.00000000000E+00 -0.19143573920E+03  0.19143573920E+03  0.00000000000E+00 0.  1.
         25    2    1    2    0    0 -0.65053144825E+00  0.17183229512E+01 -0.13719483613E+03  0.18567018123E+03  0.12509043653E+03 0.  0.
          5    1    3    3  502    0 -0.31509279493E+02  0.83154087559E+01  0.10571688284E+02  0.34513963988E+02  0.41800000000E+01 0. -1.
         -5    1    3    3    0  502  0.30858748045E+02 -0.65970858048E+01 -0.14776652442E+03  0.15115621724E+03  0.41800000000E+01 0. -1.
        -11    1    1    2    0    0  0.10186689711E+02 -0.14422746569E+02 -0.26410675097E+02  0.31769608511E+02  0.00000000000E+00 0.  1.
         11    1    1    2    0    0 -0.95361582631E+01  0.12704423618E+02  0.68176773696E+02  0.70002951120E+02  0.00000000000E+00 0. -1.
</event>
<event>
 6    1  0.2943257E-009  0.1098151E+03  0.7561462E-02  0.1260913E+00
          1   -1    0    0  501    0  0.00000000000E+00  0.00000000000E+00  0.68791388636E+02  0.68791388636E+02  0.00000000000E+00 0. -1.
         -1   -1    0    0    0  501 -0.00000000000E+00 -0.00000000000E+00 -0.20200818163E+03  0.20200818163E+03  0.00000000000E+00 0.  1.
          5    1    1    2  502    0 -0.46502780432E+02 -0.24895894915E+02 -0.27504987018E+02  0.59634812671E+02  0.41800000000E+01 0. -1.
         -5    1    1    2    0  502  0.75062282470E+02  0.23312296667E+01 -0.74587405462E+02  0.10592702363E+03  0.41800000000E+01 0. -1.
        -11    1    1    2    0    0  0.16584908293E+02 -0.22343028704E+02 -0.30870854633E+02  0.41560555585E+02  0.00000000000E+00 0.  1.
         11    1    1    2    0    0 -0.45144410332E+02  0.44907693953E+02 -0.25354587772E+00  0.63677178376E+02  0.00000000000E+00 0. -1.
</event>
<event>
 7    1  0.2943257E-009  0.8783682E+02  0.7561462E-02  0.1308176E+00
          1   -1    0    0  501    0  0.00000000000E+00  0.00000000000E+00  0.31641550002E+02  0.31641550002E+02  0.00000000000E+00 0. -1.
         -1   -1    0    0    0  501 -0.00000000000E+00 -0.00000000000E+00 -0.45553799279E+03  0.45553799279E+03  0.00000000000E+00 0.  1.
         25    2    1    2    0    0  0.54533955726E+01  0.45615983127E+02 -0.19456973554E+03  0.23582776575E+03  0.12508715229E+03 0.  0.
          5    1    3    3  502    0 -0.36659425243E+02  0.13523205896E+02 -0.17478830570E+03  0.17915137389E+03  0.41800000000E+01 0. -1.
         -5    1    3    3    0  502  0.42112820815E+02  0.32092777231E+02 -0.19781429840E+02  0.56676391857E+02  0.41800000000E+01 0. -1.
        -11    1    1    2    0    0 -0.36470168018E+02 -0.34817494579E+02 -0.57768146744E+02  0.76677831622E+02  0.00000000000E+00 0. -1.
         11    1    1    2    0    0  0.31016772445E+02 -0.10798488548E+02 -0.17155856051E+03  0.17467394543E+03  0.00000000000E+00 0.  1.
</event>
<event>
 7    1  0.2943257E-009  0.2688155E+03  0.7561462E-02  0.1101959E+00
          1   -1    0    0  501    0  0.00000000000E+00  0.00000000000E+00  0.30171579743E+03  0.30171579743E+03  0.00000000000E+00 0. -1.
         -1   -1    0    0    0  501 -0.00000000000E+00 -0.00000000000E+00 -0.35268688724E+03  0.35268688724E+03  0.00000000000E+00 0.  1.
         25    2    1    2    0    0  0.14038744947E+03 -0.22003893228E+03 -0.18868687165E+03  0.34550898761E+03  0.12509179549E+03 0.  0.
          5    1    3    3  502    0  0.10526923327E+03 -0.20731309339E+03 -0.19950347023E+03  0.30639751500E+03  0.41800000000E+01 0. -1.
         -5    1    3    3    0  502  0.35118216199E+02 -0.12725838890E+02  0.10816598588E+02  0.39111472607E+02  0.41800000000E+01 0. -1.
        -11    1    1    2    0    0 -0.22659117078E+02  0.86756604268E+02  0.84653864980E+02  0.12331431720E+03  0.00000000000E+00 0. -1.
         11    1    1    2    0    0 -0.11772833239E+03  0.13328232801E+03  0.53061916858E+02  0.18557937986E+03  0.00000000000E+00 0.  1.
</event>
<event>
 7    1  0.2943257E-009  0.1477219E+03  0.7561462E-02  0.1203301E+00
         -2   -1    0    0    0  501 -0.00000000000E+00  0.00000000000E+00  0.48997638140E+03  0.48997638140E+03  0.00000000000E+00 0.  1.
          2   -1    0    0  501    0  0.00000000000E+00 -0.00000000000E+00 -0.66598270399E+02  0.66598270399E+02  0.00000000000E+00 0. -1.
         25    2    1    2    0    0  0.13406318513E+03 -0.32033772719E+02  0.28788957987E+03  0.34282224430E+03  0.12509029055E+03 0.  0.
          5    1    3    3  502    0  0.19040029600E+02 -0.25050628827E+01  0.18381453013E+03  0.18486225129E+03  0.41800000000E+01 0.  1.
         -5    1    3    3    0  502  0.11502315553E+03 -0.29528709836E+02  0.10407504974E+03  0.15795999301E+03  0.41800000000E+01 0.  1.
        -11    1    1    2    0    0 -0.10760966867E+03 -0.91689938415E+01  0.59361387083E+02  0.12323832812E+03  0.00000000000E+00 0. -1.
         11    1    1    2    0    0 -0.26453516455E+02  0.41202766560E+02  0.76127144048E+02  0.90514079380E+02  0.00000000000E+00 0.  1.
</event>
<event>
 7    1  0.2943257E-009  0.1210833E+03  0.7561462E-02  0.1241321E+00
          2   -1    0    0  501    0  0.00000000000E+00  0.00000000000E+00  0.36296988804E+03  0.36296988804E+03  0.00000000000E+00 0. -1.
         -2   -1    0    0    0  501 -0.00000000000E+00 -0.00000000000E+00 -0.67174539086E+02  0.67174539086E+02  0.00000000000E+00 0.  1.
         25    2    1    2    0    0  0.94939350347E+02 -0.53386608376E+01  0.73219369288E+02  0.17335165057E+03  0.12509091563E+03 0.  0.
          5    1    3    3  502    0  0.10980955452E+03  0.12937716756E+02  0.16604116887E+02  0.11188696026E+03  0.41800000000E+01 0. -1.
         -5    1    3    3    0  502 -0.14870204174E+02 -0.18276377593E+02  0.56615252401E+02  0.61464690307E+02  0.41800000000E+01 0. -1.
        -11    1    1    2    0    0 -0.44894589152E+02 -0.22612234622E+02  0.17568642378E+03  0.18273630398E+03  0.00000000000E+00 0. -1.
         11    1    1    2    0    0 -0.50044761194E+02  0.27950895459E+02  0.46889555883E+02  0.74056472579E+02  0.00000000000E+00 0.  1.
</event>
<event>
 7    1  0.2943257E-009  0.1178352E+03  0.7561462E-02  0.1246712E+00
         -1   -1    0    0    0  501 -0.00000000000E+00  0.00000000000E+00  0.52620789323E+02  0.52620789323E+02  0.00000000000E+00 0.  1.
          1   -1    0    0  501    0  0.00000000000E+00 -0.00000000000E+00 -0.40463912310E+03  0.40463912310E+03  0.00000000000E+00 0. -1.
         25    2    1    2    0    0  0.13860815887E+02 -0.92589262149E+02 -0.23613831144E+03  0.28315041528E+03  0.12509181372E+03 0.  0.
          5    1    3    3  502    0  0.43888604441E+02 -0.63738643143E+02 -0.22760581400E+03  0.24043856429E+03  0.41800000000E+01 0.  1.
         -5    1    3    3    0  502 -0.30027788555E+02 -0.28850619006E+02 -0.85324974369E+01  0.42711850991E+02  0.41800000000E+01 0.  1.
        -11    1    1    2    0    0  0.23786577654E+02  0.66200872974E+02 -0.10578637774E+03  0.12703981492E+03  0.00000000000E+00 0. -1.
         11    1    1    2    0    0 -0.37647393540E+02  0.26388389175E+02 -0.10093644598E+02  0.47069682226E+02  0.00000000000E+00 0.  1.
</event>
<event>
 7    1  0.2943257E-009  0.1007725E+03  0.7561462E-02  0.1278680E+00
         -2   -1    0    0    0  501 -0.00000000000E+00  0.00000000000E+00  0.17043074360E+03  0.17043074360E+03  0.00000000000E+00 0.  1.
          2   -1    0    0  501    0  0.00000000000E+00 -0.00000000000E+00 -0.92030630733E+02  0.92030630733E+02  0.00000000000E+00 0. -1.
         25    2    1    2    0    0 -0.22362560833E+02  0.17638507947E+02 -0.12429258742E+02  0.12889499002E+03  0.12509288904E+03 0.  0.
          5    1    3    3  502    0  0.29056948300E+02  0.56472209889E+02 -0.39504933647E+01  0.63769079750E+02  0.41800000000E+01 0. -1.
         -5    1    3    3    0  502 -0.51419509133E+02 -0.38833701942E+02 -0.84787653772E+01  0.65125910269E+02  0.41800000000E+01 0. -1.
        -11    1    1    2    0    0  0.92495705952E+01 -0.43424148594E+02  0.94496137421E+02  0.10440656696E+03  0.00000000000E+00 0.  1.
         11    1    1    2    0    0  0.13112990238E+02  0.25785640647E+02 -0.36667658115E+01  0.29159817353E+02  0.00000000000E+00 0. -1.
</event>
<event>
 7    1  0.2943257E-009  0.1264118E+03  0.7561462E-02  0.1232879E+00
          1   -1    0    0  501    0  0.00000000000E+00  0.00000000000E+00  0.57448024904E+03  0.57448024904E+03  0.00000000000E+00 0. -1.
         -1   -1    0    0    0  501 -0.00000000000E+00 -0.00000000000E+00 -0.46350370206E+02  0.46350370206E+02  0.00000000000E+00 0.  1.
         25    2    1    2    0    0 -0.89371019556E+01  0.97175577646E+02  0.14308149849E+03  0.21363946739E+03  0.12508613886E+03 0.  0.
          5    1    3    3  502    0 -0.55816350394E+02  0.45146457954E+02  0.11978876841E+03  0.13971574383E+03  0.41800000000E+01 0.  1.
         -5    1    3    3    0  502  0.46879248438E+02  0.52029119692E+02  0.23292730079E+02  0.73923723558E+02  0.41800000000E+01 0.  1.
        -11    1    1    2    0    0 -0.22040090667E+02 -0.44097482703E+02  0.28892685617E+03  0.29310251073E+03  0.00000000000E+00 0. -1.
         11    1    1    2    0    0  0.30977192622E+02 -0.53078094943E+02  0.96121524173E+02  0.11408864113E+03  0.00000000000E+00 0.  1.
</event>
<event>
 7    1  0.2943257E-009  0.1181532E+03  0.7561462E-02  0.1246175E+00
         -2   -1    0    0    0  501 -0.00000000000E+00  0.00000000000E+00  0.24665527857E+03  0.24665527857E+03  0.00000000000E+00 0.  1.
          2   -1    0    0  501    0  0.00000000000E+00 -0.00000000000E+00 -0.87222419980E+02  0.87222419980E+02  0.00000000000E+00 0. -1.
         25    2    1    2    0    0  0.82265240545E+02  0.57507836292E+01  0.13096000167E+03  0.19899437844E+03  0.12509036453E+03 0.  0.
          5    1    3    3  502    0 -0.91334569497E+01 -0.68868564221E+01 -0.19179613937E+02  0.22719569054E+02  0.41800000000E+01 0.  1.
         -5    1    3    3    0  502  0.91398697494E+02  0.12637640051E+02  0.15013961560E+03  0.17627480938E+03  0.41800000000E+01 0.  1.
        -11    1    1    2    0    0 -0.45945131515E+02 -0.54302237712E+02  0.17697901996E+02  0.73300094580E+02  0.00000000000E+00 0. -1.
         11    1    1    2    0    0 -0.36320109030E+02  0.48551454082E+02  0.10774954930E+02  0.61583225534E+02  0.00000000000E+00 0.  1.
</event>
<event>
 7    1  0.2943257E-009  0.1194366E+03  0.7561462E-02  0.1244029E+00
         -1   -1    0    0    0  501 -0.00000000000E+00  0.00000000000E+00  0.28929149160E+03  0.28929149160E+03  0.00000000000E+00 0.  1.
          1   -1    0    0  501    0  0.00000000000E+00 -0.00000000000E+00 -0.62102958729E+02  0.62102958729E+02  0.00000000000E+00 0. -1.
         25    2    1    2    0    0 -0.45929757182E+02  0.57859746064E+02  0.15746469928E+03  0.21424314558E+03  0.12509077145E+03 0.  0.
          5    1    3    3  502    0  0.30852831263E+02 -0.60884058588E+01  0.53152128990E+01  0.32166594023E+02  0.41800000000E+01 0.  1.
         -5    1    3    3    0  502 -0.76782588445E+02  0.63948151922E+02  0.15214948638E+03  0.18207655156E+03  0.41800000000E+01 0.  1.
        -11    1    1    2    0    0  0.37793199179E+02  0.97568286827E+01 -0.89567591668E+00  0.39042590149E+02  0.00000000000E+00 0. -1.
         11    1    1    2    0    0  0.81365580029E+01 -0.67616574746E+02  0.70619509510E+02  0.98108714598E+02  0.00000000000E+00 0.  1.
</event>
<event>
 7    1  0.2943257E-009  0.1237266E+03  0.7561462E-02  0.1237073E+00
         -1   -1    0    0    0  501 -0.00000000000E+00  0.00000000000E+00  0.15916681819E+03  0.15916681819E+03  0.00000000000E+00 0.  1.
          1   -1    0    0  501    0  0.00000000000E+00 -0.00000000000E+00 -0.14425081911E+03  0.14425081911E+03  0.00000000000E+00 0. -1.
         25    2    1    2    0    0  0.66976283483E+02 -0.34840871345E+02 -0.63739578474E+02  0.15940575565E+03  0.12509097571E+03 0.  0.
          5    1    3    3  502    0 -0.17811269464E+02  0.27971578908E+02 -0.38202526824E+02  0.50759787256E+02  0.41800000000E+01 0.  1.
         -5    1    3    3    0  502  0.84787552947E+02 -0.62812450253E+02 -0.25537051650E+02  0.10864596839E+03  0.41800000000E+01 0.  1.
        -11    1    1    2    0    0 -0.41638791872E+02 -0.21346432557E+02  0.66301134932E+02  0.81149859302E+02  0.00000000000E+00 0.  1.
         11    1    1    2    0    0 -0.25337491611E+02  0.56187303902E+02  0.12354442631E+02  0.62862022348E+02  0.00000000000E+00 0. -1.
</event>
<event>
 7    1  0.2943257E-009  0.1164492E+03  0.7561462E-02  0.1249072E+00
         -2   -1    0    0    0  501 -0.00000000000E+00  0.00000000000E+00  0.48309461291E+03  0.48309461291E+03  0.00000000000E+00 0.  1.
          2   -1    0    0  501    0  0.00000000000E+00 -0.00000000000E+00 -0.44691496823E+02  0.44691496823E+02  0.00000000000E+00 0. -1.
         25    2    1    2    0    0  0.97669089420E+02 -0.38015532645E+01  0.26173628614E+03  0.30611759262E+03  0.12509354178E+03 0.  0.
          5    1    3    3  502    0  0.34057442479E+02  0.15903544541E+02  0.19177711805E+01  0.37867959590E+02  0.41800000000E+01 0.  1.
         -5    1    3    3    0  502  0.63611646941E+02 -0.19705097806E+02  0.25981851495E+03  0.26824963303E+03  0.41800000000E+01 0.  1.
        -11    1    1    2    0    0 -0.68238859678E+02  0.42003749610E+02  0.13913848957E+03  0.16056268630E+03  0.00000000000E+00 0.  1.
         11    1    1    2    0    0 -0.29430229742E+02 -0.38202196345E+02  0.37528340388E+02  0.61105830823E+02  0.00000000000E+00 0. -1.
</event>
<event>
 7    1  0.2943257E-009  0.9611121E+02  0.7561462E-02  0.1288693E+00
          1   -1    0    0  501    0  0.00000000000E+00  0.00000000000E+00  0.14073285841E+02  0.14073285841E+02  0.00000000000E+00 0. -1.
         -1   -1    0    0    0  501 -0.00000000000E+00 -0.00000000000E+00 -0.93117518540E+03  0.93117518540E+03  0.00000000000E+00 0.  1.
         25    2    1    2    0    0 -0.35226066941E+01  0.31373315024E+02 -0.60110406946E+03  0.61479253340E+03  0.12508822148E+03 0.  0.
          5    1    3    3  502    0 -0.43701711782E+02 -0.20449468468E+02 -0.12294519026E+03  0.13214012480E+03  0.41800000000E+01 0.  1.
         -5    1    3    3    0  502  0.40179105088E+02  0.51822783492E+02 -0.47815887920E+03  0.48265240860E+03  0.41800000000E+01 0.  1.
        -11    1    1    2    0    0 -0.12430761979E+02 -0.51171096780E+02 -0.28742250197E+03  0.29220660436E+03  0.00000000000E+00 0.  1.
         11    1    1    2    0    0  0.15953368673E+02  0.19797781756E+02 -0.28575328130E+02  0.38249333487E+02  0.00000000000E+00 0. -1.
</event>
<event>
 7    1  0.2943257E-009  0.1756719E+03  0.7561462E-02  0.1172059E+00
          1   -1    0    0  501    0  0.00000000000E+00  0.00000000000E+00  0.45512778772E+03  0.45512778772E+03  0.00000000000E+00 0. -1.
         -1   -1    0    0    0  501 -0.00000000000E+00 -0.00000000000E+00 -0.83226474557E+02  0.83226474557E+02  0.00000000000E+00 0.  1.
         25    2    1    2    0    0 -0.13786582838E+03 -0.64780833649E+02  0.12442508593E+03  0.23309242707E+03  0.12508770725E+03 0.  0.
          5    1    3    3  502    0 -0.93093090994E+02 -0.10070814565E+03  0.70674799698E+02  0.15434005929E+03  0.41800000000E+01 0. -1.
         -5    1    3    3    0  502 -0.44772737389E+02  0.35927311996E+02  0.53750286234E+02  0.78752367779E+02  0.41800000000E+01 0. -1.
        -11    1    1    2    0    0  0.10313126258E+03  0.29958003285E+02  0.89477836333E+02  0.13978491506E+03  0.00000000000E+00 0.  1.
         11    1    1    2    0    0  0.34734565801E+02  0.34822830364E+02  0.15799839090E+03  0.16547692015E+03  0.00000000000E+00 0. -1.
</event>
<event>
 7    1  0.3135813E-009  0.9995423E+02  0.7561462E-02  0.1280392E+00
         -2   -1    0    0    0  501 -0.00000000000E+00  0.00000000000E+00  0.51007956827E+02  0.51007956827E+02  0.00000000000E+00 0.  1.
          2   -1    0    0  501    0  0.00000000000E+00 -0.00000000000E+00 -0.28937492004E+03  0.28937492004E+03  0.00000000000E+00 0. -1.
         25    2    1    2    0    0 -0.33228762881E+02  0.36453484789E+02 -0.16794967797E+03  0.21514629979E+03  0.12509128166E+03 0.  0.
          5    1    3    3  502    0  0.47035101509E+02  0.18111960768E+02 -0.79603158267E+02  0.94310546085E+02  0.41800000000E+01 0. -1.
         -5    1    3    3    0  502 -0.80263864390E+02  0.18341524020E+02 -0.88346519701E+02  0.12083575371E+03  0.41800000000E+01 0. -1.
        -11    1    1    2    0    0  0.16447966369E+01 -0.35249432988E+02  0.11755820331E+02  0.37194451113E+02  0.00000000000E+00 0.  1.
         11    1    1    2    0    0  0.31583966244E+02 -0.12040518012E+01 -0.82173105579E+02  0.88042125968E+02  0.00000000000E+00 0. -1.
</event>
<event>
 7    1  0.2943257E-009  0.1026411E+03  0.7561462E-02  0.1274838E+00
         -3   -1    0    0    0  501 -0.00000000000E+00  0.00000000000E+00  0.37903781955E+02  0.37903781955E+02  0.00000000000E+00 0.  1.
          3   -1    0    0  501    0  0.00000000000E+00 -0.00000000000E+00 -0.50459361185E+03  0.50459361185E+03  0.00000000000E+00 0. -1.
         25    2    1    2    0    0 -0.84633503337E+02 -0.29569709228E+02 -0.31390257299E+03  0.34959960376E+03  0.12509140670E+03 0.  0.
          5    1    3    3  502    0 -0.92597562302E+02 -0.25246010649E+02 -0.11244625692E+03  0.14789625653E+03  0.41800000000E+01 0. -1.
         -5    1    3    3    0  502  0.79640589642E+01 -0.43236985793E+01 -0.20145631606E+03  0.20170334723E+03  0.41800000000E+01 0. -1.
        -11    1    1    2    0    0  0.15118161623E+02  0.25443941470E+02 -0.56746266389E+01  0.30135599478E+02  0.00000000000E+00 0.  1.
         11    1    1    2    0    0  0.69515341715E+02  0.41257677579E+01 -0.14711263027E+03  0.16276219057E+03  0.00000000000E+00 0. -1.
</event>
<event>
 7    1  0.2943257E-009  0.8890684E+02  0.7561462E-02  0.1305521E+00
          3   -1    0    0  501    0  0.00000000000E+00  0.00000000000E+00  0.33469885223E+03  0.33469885223E+03  0.00000000000E+00 0. -1.
         -3   -1    0    0    0  501 -0.00000000000E+00 -0.00000000000E+00 -0.43214205297E+02  0.43214205297E+02  0.00000000000E+00 0.  1.
         25    2    1    2    0    0 -0.11677978216E+02 -0.10002289914E+02  0.24021109006E+03  0.27126679847E+03  0.12509151525E+03 0.  0.
          5    1    3    3  502    0  0.42537226260E+02 -0.43690546968E+02  0.13399798934E+03  0.14727937079E+03  0.41800000000E+01 0. -1.
         -5    1    3    3    0  502 -0.54215204476E+02  0.33688257054E+02  0.10621310072E+03  0.12398742768E+03  0.41800000000E+01 0. -1.
        -11    1    1    2    0    0 -0.15320816966E+02  0.18872326646E+02  0.68997121890E+02  0.73153912914E+02  0.00000000000E+00 0. -1.
         11    1    1    2    0    0  0.26998795181E+02 -0.88700367322E+01 -0.17723565019E+02  0.33492346138E+02  0.00000000000E+00 0.  1.
</event>
<event>
 7    1  0.2943257E-009  0.1081406E+03  0.7561462E-02  0.1264052E+00
         -1   -1    0    0    0  501 -0.00000000000E+00  0.00000000000E+00  0.18543290000E+02  0.18543290000E+02  0.00000000000E+00 0.  1.
          1   -1    0    0  501    0  0.00000000000E+00 -0.00000000000E+00 -0.12494012096E+04  0.12494012096E+04  0.00000000000E+00 0. -1.
         25    2    1    2    0    0  0.46034786990E+02  0.54646856739E+02 -0.98482660496E+03  0.99530715842E+03  0.12508963667E+03 0.  0.
          5    1    3    3  502    0  0.66004456202E+02  0.16018645030E+02 -0.86660222472E+03  0.86926985080E+03  0.41800000000E+01 0. -1.
         -5    1    3    3    0  502 -0.19969669212E+02  0.38628211710E+02 -0.11822438024E+03  0.12603730762E+03  0.41800000000E+01 0. -1.
        -11    1    1    2    0    0  0.15485609098E+01 -0.56889865405E+02 -0.19362839401E+03  0.20181875482E+03  0.00000000000E+00 0. -1.
         11    1    1    2    0    0 -0.47583347899E+02  0.22430086658E+01 -0.52402920651E+02  0.70818586387E+02  0.00000000000E+00 0.  1.
</event>
<event>
 7    1  0.2943257E-009  0.1347676E+03  0.7561462E-02  0.1220548E+00
          2   -1    0    0  501    0  0.00000000000E+00  0.00000000000E+00  0.66866792603E+02  0.66866792603E+02  0.00000000000E+00 0. -1.
         -2   -1    0    0    0  501 -0.00000000000E+00 -0.00000000000E+00 -0.39975614574E+03  0.39975614574E+03  0.00000000000E+00 0.  1.
         25    2    1    2    0    0  0.24344884672E+02  0.11929783504E+03 -0.17613778724E+03  0.24798448502E+03  0.12508852010E+03 0.  0.
          5    1    3    3  502    0  0.16011096508E+02  0.34957844721E+02 -0.15606877199E+03  0.16078973882E+03  0.41800000000E+01 0. -1.
         -5    1    3    3    0  502  0.83337881646E+01  0.84339990319E+02 -0.20069015253E+02  0.87194746203E+02  0.41800000000E+01 0. -1.
        -11    1    1    2    0    0 -0.33193940806E+02 -0.12880693535E+03 -0.15683839409E+03  0.20564859873E+03  0.00000000000E+00 0.  1.
         11    1    1    2    0    0  0.88490561336E+01  0.95091003056E+01  0.86828198600E-01  0.12989854588E+02  0.00000000000E+00 0. -1.
</event>
<event>
 7    1  0.2943257E-009  0.1035126E+03  0.7561462E-02  0.1273078E+00
          3   -1    0    0  501    0  0.00000000000E+00  0.00000000000E+00  0.30283464589E+03  0.30283464589E+03  0.00000000000E+00 0. -1.
         -3   -1    0    0    0  501 -0.00000000000E+00 -0.00000000000E+00 -0.45533796376E+02  0.45533796376E+02  0.00000000000E+00 0.  1.
         25    2    1    2    0    0  0.29021345455E+02  0.28023344614E+02  0.18289263336E+03  0.22522112142E+03  0.12508913566E+03 0.  0.
          5    1    3    3  502    0  0.64701427530E+02 -0.13908489470E+01  0.16162849275E+03  0.17415352783E+03  0.41800000000E+01 0. -1.
         -5    1    3    3    0  502 -0.35680082075E+02  0.29414193561E+02  0.21264140607E+02  0.51067593594E+02  0.41800000000E+01 0. -1.
        -11    1    1    2    0    0  0.16016707978E+02 -0.44881846801E+02  0.50526934934E+02  0.69454202613E+02  0.00000000000E+00 0. -1.
         11    1    1    2    0    0 -0.45038053434E+02  0.16858502187E+02  0.23881281227E+02  0.53693118238E+02  0.00000000000E+00 0.  1.
</event>
<event>
 7    1  0.2943257E-009  0.9786138E+02  0.7561462E-02  0.1284859E+00
         -1   -1    0    0    0  501 -0.00000000000E+00  0.00000000000E+00  0.30507504654E+02  0.30507504654E+02  0.00000000000E+00 0.  1.
          1   -1    0    0  501    0  0.00000000000E+00 -0.00000000000E+00 -0.51260702858E+03  0.51260702858E+03  0.00000000000E+00 0. -1.
         25    2    1    2    0    0  0.47830650155E+02 -0.22761747199E+02 -0.19175672849E+03  0.23499902714E+03  0.12509209251E+03 0.  0.
          5    1    3    3  502    0 -0.22680632759E+02 -0.18177232629E+02  0.12810691165E+01  0.29392795486E+02  0.41800000000E+01 0.  1.
         -5    1    3    3    0  502  0.70511282914E+02 -0.45845145709E+01 -0.19303779760E+03  0.20560623166E+03  0.41800000000E+01 0.  1.
        -11    1    1    2    0    0 -0.40604602536E+00  0.43722205708E+02 -0.76862283770E+02  0.88428540708E+02  0.00000000000E+00 0. -1.
         11    1    1    2    0    0 -0.47424604129E+02 -0.20960458509E+02 -0.21348051167E+03  0.21968696538E+03  0.00000000000E+00 0.  1.
</event>
<event>
 7    1  0.2943257E-009  0.1025650E+03  0.7561462E-02  0.1274993E+00
          1   -1    0    0  501    0  0.00000000000E+00  0.00000000000E+00  0.44076695016E+03  0.44076695016E+03  0.00000000000E+00 0. -1.
         -1   -1    0    0    0  501 -0.00000000000E+00 -0.00000000000E+00 -0.34880131767E+02  0.34880131767E+02  0.00000000000E+00 0.  1.
         25    2    1    2    0    0 -0.51323949776E+02 -0.30566968928E+02  0.20839880590E+03  0.25029250645E+03  0.12509112309E+03 0.  0.
          5    1    3    3  502    0  0.29302429836E+02 -0.26411984524E+02  0.13635170873E+03  0.14200523298E+03  0.41800000000E+01 0. -1.
         -5    1    3    3    0  502 -0.80626379612E+02 -0.41549844048E+01  0.72047097170E+02  0.10828727347E+03  0.41800000000E+01 0. -1.
        -11    1    1    2    0    0  0.30820965343E+02 -0.15276450286E+02  0.17702609861E+02  0.38687003424E+02  0.00000000000E+00 0.  1.
         11    1    1    2    0    0  0.20502984432E+02  0.45843419215E+02  0.17978540263E+03  0.18666757205E+03  0.00000000000E+00 0. -1.
</event>
<event>
 7    1  0.2943257E-009  0.1985882E+03  0.7561462E-02  0.1150936E+00
          2   -1    0    0  501    0  0.00000000000E+00  0.00000000000E+00  0.74382204722E+02  0.74382204722E+02  0.00000000000E+00 0. -1.
         -2   -1    0    0    0  501 -0.00000000000E+00 -0.00000000000E+00 -0.62178875688E+03  0.62178875688E+03  0.00000000000E+00 0.  1.
         25    2    1    2    0    0 -0.16716482068E+03 -0.78921090430E+02 -0.30277014276E+03  0.37615123637E+03  0.12508947793E+03 0.  0.
          5    1    3    3  502    0 -0.10300698774E+02 -0.35354683667E+02 -0.14406139298E+03  0.14875219460E+03  0.41800000000E+01 0.  1.
         -5    1    3    3    0  502 -0.15686412190E+03 -0.43566406763E+02 -0.15870874978E+03  0.22739904177E+03  0.41800000000E+01 0.  1.
        -11    1    1    2    0    0  0.36443712101E+02  0.52477846774E+02 -0.12707874227E+03  0.14223598452E+03  0.00000000000E+00 0.  1.
         11    1    1    2    0    0  0.13072110858E+03  0.26443243657E+02 -0.11755766713E+03  0.17778374072E+03  0.00000000000E+00 0. -1.
</event>
<event>
 7    1  0.2943257E-009  0.1034765E+03  0.7561462E-02  0.1273151E+00
          1   -1    0    0  501    0  0.00000000000E+00  0.00000000000E+00  0.30223978105E+03  0.30223978105E+03  0.00000000000E+00 0. -1.
         -1   -1    0    0    0  501 -0.00000000000E+00 -0.00000000000E+00 -0.51970558685E+02  0.51970558685E+02  0.00000000000E+00 0.  1.
         25    2    1    2    0    0 -0.48182282122E+02 -0.37934778892E+02  0.15241904800E+03  0.20649428810E+03  0.12509094717E+03 0.  0.
          5    1    3    3  502    0 -0.78892949149E+02 -0.52299491296E+02  0.71617085914E+02  0.11876789806E+03  0.41800000000E+01 0. -1.
         -5    1    3    3    0  502  0.30710667026E+02  0.14364712404E+02  0.80801962088E+02  0.87726390037E+02  0.41800000000E+01 0. -1.
        -11    1    1    2    0    0  0.42310000344E+02  0.27765829633E+01 -0.12301873155E+01  0.42418850796E+02  0.00000000000E+00 0.  1.
         11    1    1    2    0    0  0.58722817787E+01  0.35158195929E+02  0.99080361675E+02  0.10529720084E+03  0.00000000000E+00 0. -1.
</event>
<event>
 7    1  0.2943257E-009  0.1026218E+03  0.7561462E-02  0.1274877E+00
         -2   -1    0    0    0  501 -0.00000000000E+00  0.00000000000E+00  0.35323586429E+02  0.35323586429E+02  0.00000000000E+00 0.  1.
          2   -1    0    0  501    0  0.00000000000E+00 -0.00000000000E+00 -0.34705638611E+03  0.34705638611E+03  0.00000000000E+00 0. -1.
         25    2    1    2    0    0  0.13564244696E+02  0.21892041458E+02 -0.18326847008E+03  0.22337754683E+03  0.12508775356E+03 0.  0.
          5    1    3    3  502    0  0.41314525498E+02  0.61672242577E+02 -0.80030882503E+02  0.10923721928E+03  0.41800000000E+01 0.  1.
         -5    1    3    3    0  502 -0.27750280802E+02 -0.39780201119E+02 -0.10323758757E+03  0.11414032755E+03  0.41800000000E+01 0.  1.
        -11    1    1    2    0    0  0.15762794544E+02  0.23423737773E+02 -0.85414385091E+02  0.89959737459E+02  0.00000000000E+00 0. -1.
         11    1    1    2    0    0 -0.29327039240E+02 -0.45315779231E+02 -0.43049944511E+02  0.69042688246E+02  0.00000000000E+00 0.  1.
</event>
<event>
 7    1  0.2943257E-009  0.8988799E+02  0.7561462E-02  0.1303123E+00
          2   -1    0    0  501    0  0.00000000000E+00  0.00000000000E+00  0.27450872093E+02  0.27450872093E+02  0.00000000000E+00 0. -1.
         -2   -1    0    0    0  501 -0.00000000000E+00 -0.00000000000E+00 -0.48060415111E+03  0.48060415111E+03  0.00000000000E+00 0.  1.
         25    2    1    2    0    0  0.18625458310E+02 -0.31448298701E+02 -0.26638321952E+03  0.29655258247E+03  0.12509001295E+03 0.  0.
          5    1    3    3  502    0  0.41837540902E+02  0.50590918859E+01 -0.20852411508E+02  0.47204551741E+02  0.41800000000E+01 0.  1.
         -5    1    3    3    0  502 -0.23212082591E+02 -0.36507390587E+02 -0.24553080802E+03  0.24934803073E+03  0.41800000000E+01 0.  1.
        -11    1    1    2    0    0 -0.49050526319E+02 -0.15559045526E+01 -0.13113255694E+03  0.14001472230E+03  0.00000000000E+00 0.  1.
         11    1    1    2    0    0  0.30425068009E+02  0.33004203254E+02 -0.55637502555E+02  0.71487718430E+02  0.00000000000E+00 0. -1.
</event>
<event>
 7    1  0.2943257E-009  0.1710244E+03  0.7561462E-02  0.1176784E+00
          1   -1    0    0  501    0  0.00000000000E+00  0.00000000000E+00  0.63994773379E+03  0.63994773379E+03  0.00000000000E+00 0. -1.
         -1   -1    0    0    0  501 -0.00000000000E+00 -0.00000000000E+00 -0.63736682274E+02  0.63736682274E+02  0.00000000000E+00 0.  1.
         25    2    1    2    0    0  0.13488434907E+03 -0.98814284746E+02  0.35743498801E+03  0.41396523300E+03  0.12509753391E+03 0.  0.
          5    1    3    3  502    0  0.10656955896E+03 -0.99893372404E+02  0.16921136369E+03  0.22357485267E+03  0.41800000000E+01 0.  1.
         -5    1    3    3    0  502  0.28314790104E+02  0.10790876585E+01  0.18822362432E+03  0.19039038033E+03  0.41800000000E+01 0.  1.
        -11    1    1    2    0    0 -0.11959335221E+03  0.85621007462E+02  0.12269959915E+03  0.19154299372E+03  0.00000000000E+00 0.  1.
         11    1    1    2    0    0 -0.15290996858E+02  0.13193277284E+02  0.96076464355E+02  0.98176189340E+02  0.00000000000E+00 0. -1.
</event>
<event>
 7    1  0.2943257E-009  0.8615690E+02  0.7561462E-02  0.1312435E+00
          2   -1    0    0  501    0  0.00000000000E+00  0.00000000000E+00  0.14723053876E+03  0.14723053876E+03  0.00000000000E+00 0. -1.
         -2   -1    0    0    0  501 -0.00000000000E+00 -0.00000000000E+00 -0.14549406207E+03  0.14549406207E+03  0.00000000000E+00 0.  1.
         25    2    1    2    0    0 -0.33861716200E+01  0.57528322700E+01  0.98369018716E+02  0.15927539248E+03  0.12509046954E+03 0.  0.
          5    1    3    3  502    0 -0.27140244021E+01  0.52713234368E+02  0.98832568215E+02  0.11212225446E+03  0.41800000000E+01 0. -1.
         -5    1    3    3    0  502 -0.67214721784E+00 -0.46960402098E+02 -0.46354949983E+00  0.47153138021E+02  0.41800000000E+01 0. -1.
        -11    1    1    2    0    0  0.37633810283E+02 -0.49465060213E+01 -0.85065604447E+01  0.38899012440E+02  0.00000000000E+00 0. -1.
         11    1    1    2    0    0 -0.34247638663E+02 -0.80632624865E+00 -0.88125981582E+02  0.94550195906E+02  0.00000000000E+00 0.  1.
</event>
<event>
 7    1  0.2943257E-009  0.1061790E+03  0.7561462E-02  0.1267814E+00
         -1   -1    0    0    0  501 -0.00000000000E+00  0.00000000000E+00  0.20818097241E+02  0.20818097241E+02  0.00000000000E+00 0.  1.
          1   -1    0    0  501    0  0.00000000000E+00 -0.00000000000E+00 -0.60486877056E+03  0.60486877056E+03  0.00000000000E+00 0. -1.
         25    2    1    2    0    0  0.30065856694E+02 -0.46753741247E+01 -0.31219987285E+03  0.33770091466E+03  0.12508929728E+03 0.  0.
          5    1    3    3  502    0  0.47403351609E+01  0.54474732613E+02 -0.20848120134E+03  0.21557330768E+03  0.41800000000E+01 0. -1.
         -5    1    3    3    0  502  0.25325521533E+02 -0.59150106738E+02 -0.10371867151E+03  0.12212760699E+03  0.41800000000E+01 0. -1.
        -11    1    1    2    0    0 -0.57584558977E+02  0.20702402722E+02 -0.20498653823E+03  0.21392534157E+03  0.00000000000E+00 0.  1.
         11    1    1    2    0    0  0.27518702283E+02 -0.16027028597E+02 -0.66864262240E+02  0.74060611568E+02  0.00000000000E+00 0. -1.
</event>
<event>
 7    1  0.2943257E-009  0.1587071E+03  0.7561462E-02  0.1190164E+00
          2   -1    0    0  501    0  0.00000000000E+00  0.00000000000E+00  0.50308995498E+03  0.50308995498E+03  0.00000000000E+00 0. -1.
         -2   -1    0    0    0  501 -0.00000000000E+00 -0.00000000000E+00 -0.92094374689E+02  0.92094374689E+02  0.00000000000E+00 0.  1.
         25    2    1    2    0    0 -0.13399403517E+03 -0.12299884304E+02  0.36870587757E+02  0.18739195374E+03  0.12510241993E+03 0.  0.
          5    1    3    3  502    0 -0.21052691330E+02  0.43539433344E+02  0.37483255988E+02  0.61329967778E+02  0.41800000000E+01 0. -1.
         -5    1    3    3    0  502 -0.11294134384E+03 -0.55839317648E+02 -0.61266823110E+00  0.12606198597E+03  0.41800000000E+01 0. -1.
        -11    1    1    2    0    0  0.87182557447E+02 -0.15232628503E+02  0.12716458308E+03  0.15493115401E+03  0.00000000000E+00 0.  1.
         11    1    1    2    0    0  0.46811477722E+02  0.27532512807E+02  0.24696040945E+03  0.25286122191E+03  0.00000000000E+00 0. -1.
</event>
<event>
 7    1  0.2943257E-009  0.8662538E+02  0.7561462E-02  0.1311236E+00
         -3   -1    0    0    0  501 -0.00000000000E+00  0.00000000000E+00  0.30113723190E+03  0.30113723190E+03  0.00000000000E+00 0.  1.
          3   -1    0    0  501    0  0.00000000000E+00 -0.00000000000E+00 -0.54546539679E+02  0.54546539679E+02  0.00000000000E+00 0. -1.
         25    2    1    2    0    0 -0.41817802599E+02 -0.46155697820E+02  0.10185122541E+03  0.17291622903E+03  0.12508906063E+03 0.  0.
          5    1    3    3  502    0 -0.26804455636E+02 -0.20110709157E+02 -0.25298037724E+02  0.42194579953E+02  0.41800000000E+01 0.  1.
         -5    1    3    3    0  502 -0.15013346962E+02 -0.26044988664E+02  0.12714926313E+03  0.13072164907E+03  0.41800000000E+01 0.  1.
        -11    1    1    2    0    0 -0.26912232123E+02  0.10741162461E+01  0.20715491707E+02  0.33978722169E+02  0.00000000000E+00 0. -1.
         11    1    1    2    0    0  0.68730034721E+02  0.45081581574E+02  0.12402397511E+03  0.14878882038E+03  0.00000000000E+00 0.  1.
</event>
<event>
 7    1  0.2943257E-009  0.2146269E+03  0.7561462E-02  0.1137953E+00
         -1   -1    0    0    0  501 -0.00000000000E+00  0.00000000000E+00  0.13374435092E+03  0.13374435092E+03  0.00000000000E+00 0.  1.
          1   -1    0    0  501    0  0.00000000000E+00 -0.00000000000E+00 -0.43690536821E+03  0.43690536821E+03  0.00000000000E+00 0. -1.
         25    2    1    2    0    0 -0.16094881251E+03 -0.91291978654E+02 -0.28661688042E+03  0.36336508241E+03  0.12508477671E+03 0.  0.
          5    1    3    3  502    0 -0.80687452946E+02  0.22547585976E+02 -0.11338733924E+03  0.14104261695E+03  0.41800000000E+01 0.  1.
         -5    1    3    3    0  502 -0.80261359562E+02 -0.11383956463E+03 -0.17322954118E+03  0.22232246546E+03  0.41800000000E+01 0.  1.
        -11    1    1    2    0    0 -0.11408342942E+02  0.11110828682E+02  0.29400789980E+01  0.16193976262E+02  0.00000000000E+00 0.  1.
         11    1    1    2    0    0  0.17235715545E+03  0.80181149972E+02 -0.19484215865E+02  0.19109066046E+03  0.00000000000E+00 0. -1.
</event>
<event>
 7    1  0.2943257E-009  0.1045545E+03  0.7561462E-02  0.1271000E+00
         -1   -1    0    0    0  501 -0.00000000000E+00  0.00000000000E+00  0.12348590610E+03  0.12348590610E+03  0.00000000000E+00 0.  1.
          1   -1    0    0  501    0  0.00000000000E+00 -0.00000000000E+00 -0.17794392606E+03  0.17794392606E+03  0.00000000000E+00 0. -1.
         25    2    1    2    0    0 -0.35662121857E+02 -0.65106350557E+02 -0.96640730682E+02  0.17463667643E+03  0.12509162286E+03 0.  0.
          5    1    3    3  502    0 -0.28383033479E+02  0.21767011761E+02 -0.77248536467E+02  0.85230324279E+02  0.41800000000E+01 0.  1.
         -5    1    3    3    0  502 -0.72790883774E+01 -0.86873362318E+02 -0.19392194215E+02  0.89406352148E+02  0.41800000000E+01 0.  1.
        -11    1    1    2    0    0  0.18208924308E+01  0.47753192295E+02  0.66324018208E+02  0.81746916853E+02  0.00000000000E+00 0.  1.
         11    1    1    2    0    0  0.33841229426E+02  0.17353158262E+02 -0.24141307487E+02  0.45046238888E+02  0.00000000000E+00 0. -1.
</event>
<event>
 7    1  0.2943257E-009  0.1160412E+03  0.7561462E-02  0.1249775E+00
         -4   -1    0    0    0  501 -0.00000000000E+00  0.00000000000E+00  0.27840858457E+02  0.27840858457E+02  0.00000000000E+00 0.  1.
          4   -1    0    0  501    0  0.00000000000E+00 -0.00000000000E+00 -0.52379273858E+03  0.52379273858E+03  0.00000000000E+00 0. -1.
         25    2    1    2    0    0 -0.46854787353E+02 -0.48115270659E+02 -0.32563241675E+03  0.35523909084E+03  0.12509152831E+03 0.  0.
          5    1    3    3  502    0 -0.10381547395E+02  0.40022739428E+02 -0.60153618817E+02  0.73113107268E+02  0.41800000000E+01 0. -1.
         -5    1    3    3    0  502 -0.36473239958E+02 -0.88138010086E+02 -0.26547879793E+03  0.28212598357E+03  0.41800000000E+01 0. -1.
        -11    1    1    2    0    0  0.41272890651E+02  0.65148401479E+02 -0.15364058600E+03  0.17191042838E+03  0.00000000000E+00 0.  1.
         11    1    1    2    0    0  0.55818967015E+01 -0.17033130820E+02 -0.16678877375E+02  0.24484077822E+02  0.00000000000E+00 0. -1.
</event>
<event>
 7    1  0.2943257E-009  0.7941718E+02  0.7561462E-02  0.1330714E+00
         -1   -1    0    0    0  501 -0.00000000000E+00  0.00000000000E+00  0.67235849071E+02  0.67235849071E+02  0.00000000000E+00 0.  1.
          1   -1    0    0  501    0  0.00000000000E+00 -0.00000000000E+00 -0.18261181301E+03  0.18261181301E+03  0.00000000000E+00 0. -1.
         25    2    1    2    0    0 -0.44407623563E+01 -0.18122154723E+02 -0.54561275233E+02  0.13774341676E+03  0.12509269861E+03 0.  0.
          5    1    3    3  502    0  0.72464495913E+01  0.27040062495E+02 -0.79706927041E+02  0.84583347237E+02  0.41800000000E+01 0. -1.
         -5    1    3    3    0  502 -0.11687211948E+02 -0.45162217218E+02  0.25145651809E+02  0.53160069526E+02  0.41800000000E+01 0. -1.
        -11    1    1    2    0    0 -0.38148550461E+02  0.14992321275E+02 -0.55610603955E+02  0.69084157893E+02  0.00000000000E+00 0.  1.
         11    1    1    2    0    0  0.42589312817E+02  0.31298334477E+01 -0.52040847470E+01  0.43020087421E+02  0.00000000000E+00 0. -1.
</event>
<event>
 7    1  0.2943257E-009  0.1107843E+03  0.7561462E-02  0.1259124E+00
         -2   -1    0    0    0  501 -0.00000000000E+00  0.00000000000E+00  0.14184010817E+03  0.14184010817E+03  0.00000000000E+00 0.  1.
          2   -1    0    0  501    0  0.00000000000E+00 -0.00000000000E+00 -0.10326862329E+03  0.10326862329E+03  0.00000000000E+00 0. -1.
         25    2    1    2    0    0 -0.63466202932E+02  0.14642867617E+02 -0.22300759933E+02  0.14278463809E+03  0.12509099285E+03 0.  0.
          5    1    3    3  502    0  0.99307267177E+01  0.55470850267E+02 -0.34969644013E+01  0.56615684421E+02  0.41800000000E+01 0. -1.
         -5    1    3    3    0  502 -0.73396929649E+02 -0.40827982650E+02 -0.18803795532E+02  0.86168953664E+02  0.41800000000E+01 0. -1.
        -11    1    1    2    0    0  0.58807348162E+01 -0.22130453080E+02  0.94968965177E+01  0.24789736565E+02  0.00000000000E+00 0. -1.
         11    1    1    2    0    0  0.57585468115E+02  0.74875854632E+01  0.51375348287E+02  0.77534356809E+02  0.00000000000E+00 0.  1.
</event>
<event>
 7    1  0.2943257E-009  0.1020596E+03  0.7561462E-02  0.1276023E+00
         -1   -1    0    0    0  501 -0.00000000000E+00  0.00000000000E+00  0.38341082097E+02  0.38341082097E+02  0.00000000000E+00 0.  1.
          1   -1    0    0  501    0  0.00000000000E+00 -0.00000000000E+00 -0.57187765925E+03  0.57187765925E+03  0.00000000000E+00 0. -1.
         25    2    1    2    0    0  0.45784521509E+02 -0.28958483713E+02 -0.11352684319E+03  0.17740144928E+03  0.12509242141E+03 0.  0.
          5    1    3    3  502    0  0.50073427161E+01  0.28806840524E+02 -0.10130560433E+03  0.10552348275E+03  0.41800000000E+01 0.  1.
         -5    1    3    3    0  502  0.40777178793E+02 -0.57765324236E+02 -0.12221238856E+02  0.71877966538E+02  0.41800000000E+01 0.  1.
        -11    1    1    2    0    0 -0.33129409946E+02  0.60936894274E+02 -0.25521802452E+03  0.26447514614E+03  0.00000000000E+00 0.  1.
         11    1    1    2    0    0 -0.12655111563E+02 -0.31978410561E+02 -0.16479170945E+03  0.16834214593E+03  0.00000000000E+00 0. -1.
</event>
<event>
 7    1  0.2943257E-009  0.1052338E+03  0.7561462E-02  0.1269660E+00
          3   -1    0    0  501    0  0.00000000000E+00  0.00000000000E+00  0.57759221692E+02  0.57759221692E+02  0.00000000000E+00 0. -1.
         -3   -1    0    0    0  501 -0.00000000000E+00 -0.00000000000E+00 -0.29947791355E+03  0.29947791355E+03  0.00000000000E+00 0.  1.
         25    2    1    2    0    0  0.25854151418E+02 -0.62143927337E+02 -0.84795771397E+02  0.16545037933E+03  0.12511275044E+03 0.  0.
          5    1    3    3  502    0  0.44449918265E+02 -0.69107548268E+02 -0.10725831583E+03  0.13517938887E+03  0.41800000000E+01 0. -1.
         -5    1    3    3    0  502 -0.18595766847E+02  0.69636209310E+01  0.22462544428E+02  0.30270990457E+02  0.41800000000E+01 0. -1.
        -11    1    1    2    0    0 -0.51305751309E+02  0.64412535768E+02 -0.13492536892E+03  0.15806995306E+03  0.00000000000E+00 0.  1.
         11    1    1    2    0    0  0.25451599890E+02 -0.22686084316E+01 -0.21997551540E+02  0.33716802858E+02  0.00000000000E+00 0. -1.
</event>
<event>
 7    1  0.2943257E-009  0.1101802E+03  0.7561462E-02  0.1260237E+00
         -1   -1    0    0    0  501 -0.00000000000E+00  0.00000000000E+00  0.60822985702E+03  0.60822985702E+03  0.00000000000E+00 0.  1.
          1   -1    0    0  501    0  0.00000000000E+00 -0.00000000000E+00 -0.21421781332E+02  0.21421781332E+02  0.00000000000E+00 0. -1.
         25    2    1    2    0    0 -0.18758229776E+02  0.67818321976E+01  0.41037796523E+03  0.42948292208E+03  0.12509053354E+03 0.  0.
          5    1    3    3  502    0  0.95122618835E+01  0.62588676083E+02  0.22596423212E+03  0.23470222005E+03  0.41800000000E+01 0. -1.
         -5    1    3    3    0  502 -0.28270491659E+02 -0.55806843885E+02  0.18441373311E+03  0.19478070203E+03  0.41800000000E+01 0. -1.
        -11    1    1    2    0    0 -0.11044511699E+02 -0.44668075828E+02  0.77769391747E+02  0.90362030353E+02  0.00000000000E+00 0. -1.
         11    1    1    2    0    0  0.29802741475E+02  0.37886243631E+02  0.98660718710E+02  0.10980668592E+03  0.00000000000E+00 0.  1.
</event>
<event>
 7    1  0.2943257E-009  0.1160669E+03  0.7561462E-02  0.1249730E+00
         -3   -1    0    0    0  501 -0.00000000000E+00  0.00000000000E+00  0.55454250169E+02  0.55454250169E+02  0.00000000000E+00 0.  1.
          3   -1    0    0  501    0  0.00000000000E+00 -0.00000000000E+00 -0.31451341714E+03  0.31451341714E+03  0.00000000000E+00 0. -1.
         25    2    1    2    0    0 -0.65459536293E+02 -0.54138700691E+00 -0.19656302594E+03  0.24201366317E+03  0.12509334915E+03 0.  0.
          5    1    3    3  502    0 -0.31625794514E+02  0.55988077719E+02 -0.50990656154E+02  0.82172836999E+02  0.41800000000E+01 0. -1.
         -5    1    3    3    0  502 -0.33833741779E+02 -0.56529464726E+02 -0.14557236978E+03  0.15984082617E+03  0.41800000000E+01 0. -1.
        -11    1    1    2    0    0  0.41278527240E+02 -0.38050195696E+02 -0.60257981060E+02  0.82357504121E+02  0.00000000000E+00 0. -1.
         11    1    1    2    0    0  0.24181009053E+02  0.38591582703E+02 -0.22381599737E+01  0.45596500024E+02  0.00000000000E+00 0.  1.
</event>
<event>
 7    1  0.4991523E-009  0.1003903E+03  0.7561462E-02  0.1279477E+00
         -2   -1    0    0    0  501 -0.00000000000E+00  0.00000000000E+00  0.60388045980E+02  0.60388045980E+02  0.00000000000E+00 0.  1.
          2   -1    0    0  501    0  0.00000000000E+00 -0.00000000000E+00 -0.23063068586E+03  0.23063068586E+03  0.00000000000E+00 0. -1.
         25    2    1    2    0    0 -0.93418191834E+01  0.41969685953E+02 -0.73814587759E+02  0.15149489182E+03  0.12511348751E+03 0.  0.
          5    1    3    3  502    0 -0.53958529086E+02 -0.11954694196E+02 -0.56769028378E+02  0.79338720417E+02  0.41800000000E+01 0. -1.
         -5    1    3    3    0  502  0.44616709902E+02  0.53924380149E+02 -0.17045559382E+02  0.72156171403E+02  0.41800000000E+01 0. -1.
        -11    1    1    2    0    0 -0.23976860741E+02 -0.33078440360E+01  0.61299207756E+01  0.24968131926E+02  0.00000000000E+00 0.  1.
         11    1    1    2    0    0  0.33318679925E+02 -0.38661841917E+02 -0.10255797289E+03  0.11455570809E+03  0.00000000000E+00 0. -1.
</event>
<event>
 7    1  0.2943257E-009  0.1081869E+03  0.7561462E-02  0.1263965E+00
          1   -1    0    0  501    0  0.00000000000E+00  0.00000000000E+00  0.21313255693E+02  0.21313255693E+02  0.00000000000E+00 0. -1.
         -1   -1    0    0    0  501 -0.00000000000E+00 -0.00000000000E+00 -0.60882637383E+03  0.60882637383E+03  0.00000000000E+00 0.  1.
         25    2    1    2    0    0 -0.29747015087E+02  0.97802996541E+01 -0.38442776297E+03  0.40547803493E+03  0.12508873928E+03 0.  0.
          5    1    3    3  502    0  0.43214080984E+02 -0.21166144871E+02 -0.17408413382E+03  0.18066051182E+03  0.41800000000E+01 0. -1.
         -5    1    3    3    0  502 -0.72961096071E+02  0.30946444525E+02 -0.21034362916E+03  0.22481752310E+03  0.41800000000E+01 0. -1.
        -11    1    1    2    0    0  0.36623458165E+02  0.30614827724E+02 -0.15114690663E+03  0.15850530826E+03  0.00000000000E+00 0.  1.
         11    1    1    2    0    0 -0.68764430773E+01 -0.40395127378E+02 -0.51938448539E+02  0.66156286337E+02  0.00000000000E+00 0. -1.
</event>
<event>
 7    1  0.2943257E-009  0.7630856E+02  0.7561462E-02  0.1339866E+00
         -2   -1    0    0    0  501 -0.00000000000E+00  0.00000000000E+00  0.83331316648E+02  0.83331316648E+02  0.00000000000E+00 0. -1.
          2   -1    0    0  501    0  0.00000000000E+00 -0.00000000000E+00 -0.16451308671E+03  0.16451308671E+03  0.00000000000E+00 0.  1.
         25    2    1    2    0    0  0.34984719813E+02 -0.25366584353E+02 -0.45178589075E+02  0.13984489974E+03  0.12509235328E+03 0.  0.
          5    1    3    3  502    0  0.18836210506E+02 -0.44386460444E+02 -0.81971810432E+02  0.95193543911E+02  0.41800000000E+01 0. -1.
         -5    1    3    3    0  502  0.16148509307E+02  0.19019876091E+02  0.36793221356E+02  0.44651355826E+02  0.41800000000E+01 0. -1.
        -11    1    1    2    0    0  0.11943376561E+02  0.29484597424E+02 -0.49638581001E+02  0.58957395233E+02  0.00000000000E+00 0.  1.
         11    1    1    2    0    0 -0.46928096374E+02 -0.41180130707E+01  0.13635400019E+02  0.49042108383E+02  0.00000000000E+00 0. -1.
</event>
<event>
 7    1  0.2943257E-009  0.1019477E+03  0.7561462E-02  0.1276253E+00
          1   -1    0    0  501    0  0.00000000000E+00  0.00000000000E+00  0.23996579259E+02  0.23996579259E+02  0.00000000000E+00 0. -1.
         -1   -1    0    0    0  501 -0.00000000000E+00 -0.00000000000E+00 -0.62998045343E+03  0.62998045343E+03  0.00000000000E+00 0.  1.
         25    2    1    2    0    0 -0.47051290663E+02 -0.23674331476E+02 -0.40190668792E+03  0.42420652578E+03  0.12509153766E+03 0.  0.
          5    1    3    3  502    0  0.37041176443E+02 -0.34098818419E+02 -0.13515024798E+03  0.14428388718E+03  0.41800000000E+01 0.  1.
         -5    1    3    3    0  502 -0.84092467106E+02  0.10424486943E+02 -0.26675643993E+03  0.27992263859E+03  0.41800000000E+01 0.  1.
        -11    1    1    2    0    0  0.98033374636E+01  0.29272200272E+02 -0.18498268365E+03  0.18754082325E+03  0.00000000000E+00 0.  1.
         11    1    1    2    0    0  0.37247953199E+02 -0.55978687962E+01 -0.19094502600E+02  0.42229683661E+02  0.00000000000E+00 0. -1.
</event>
<event>
 7    1  0.2943257E-009  0.2730788E+03  0.7561462E-02  0.1099530E+00
          1   -1    0    0  501    0  0.00000000000E+00  0.00000000000E+00  0.20190712440E+04  0.20190712440E+04  0.00000000000E+00 0.  1.
         -1   -1    0    0    0  501 -0.00000000000E+00 -0.00000000000E+00 -0.38984711566E+02  0.38984711566E+02  0.00000000000E+00 0. -1.
         25    2    1    2    0    0 -0.26997898784E+02  0.25498709181E+03  0.11157146235E+04  0.11516136490E+04  0.12509025497E+03 0.  0.
          5    1    3    3  502    0  0.23948877677E+02  0.20106774883E+03  0.92553645972E+03  0.94743706864E+03  0.41800000000E+01 0. -1.
         -5    1    3    3    0  502 -0.50946776461E+02  0.53919342977E+02  0.19017816376E+03  0.20417658032E+03  0.41800000000E+01 0. -1.
        -11    1    1    2    0    0 -0.25983060782E+02 -0.38478057506E+02  0.10035544313E+03  0.11057529256E+03  0.00000000000E+00 0. -1.
         11    1    1    2    0    0  0.52980959566E+02 -0.21650903431E+03  0.76401646580E+03  0.79586701403E+03  0.00000000000E+00 0.  1.
</event>
<event>
 7    1  0.2943257E-009  0.3636409E+03  0.7561462E-02  0.1057151E+00
          2   -1    0    0  501    0  0.00000000000E+00  0.00000000000E+00  0.13113445398E+04  0.13113445398E+04  0.00000000000E+00 0. -1.
         -2   -1    0    0    0  501 -0.00000000000E+00 -0.00000000000E+00 -0.10851560061E+03  0.10851560061E+03  0.00000000000E+00 0.  1.
         25    2    1    2    0    0  0.25624729205E+03  0.23841957642E+03  0.44016823613E+03  0.57610814584E+03  0.12508377391E+03 0.  0.
          5    1    3    3  502    0  0.51343752594E+01 -0.14065247169E+02  0.17237962776E+02  0.23212340423E+02  0.41800000000E+01 0. -1.
         -5    1    3    3    0  502  0.25111291679E+03  0.25248482359E+03  0.42293027336E+03  0.55289580541E+03  0.41800000000E+01 0. -1.
        -11    1    1    2    0    0 -0.24613154397E+03 -0.20382770078E+03  0.63186719060E+03  0.70808376277E+03  0.00000000000E+00 0.  1.
         11    1    1    2    0    0 -0.10115748084E+02 -0.34591875636E+02  0.13079351250E+03  0.13566823184E+03  0.00000000000E+00 0. -1.
</event>
<event>
 7    1  0.2943257E-009  0.9692304E+02  0.7561462E-02  0.1286903E+00
         -3   -1    0    0    0  501 -0.00000000000E+00  0.00000000000E+00  0.14164725032E+03  0.14164725032E+03  0.00000000000E+00 0.  1.
          3   -1    0    0  501    0  0.00000000000E+00 -0.00000000000E+00 -0.94541731581E+02  0.94541731581E+02  0.00000000000E+00 0. -1.
         25    2    1    2    0    0  0.13372629458E+02 -0.13927857734E+01  0.65129956292E+02  0.14167299649E+03  0.12509420313E+03 0.  0.
          5    1    3    3  502    0 -0.43420691112E+02  0.44675986344E+01  0.71703974677E+02  0.84049082319E+02  0.41800000000E+01 0.  1.
         -5    1    3    3    0  502  0.56793320570E+02 -0.58603844079E+01 -0.65740183857E+01  0.57623914172E+02  0.41800000000E+01 0.  1.
        -11    1    1    2    0    0 -0.66877341885E+01 -0.45193335833E+02 -0.10131502045E+02  0.46795413514E+02  0.00000000000E+00 0.  1.
         11    1    1    2    0    0 -0.66848952697E+01  0.46586121606E+02 -0.78929355078E+01  0.47720571895E+02  0.00000000000E+00 0. -1.
</event>
<event>
 7    1  0.2943257E-009  0.1899746E+03  0.7561462E-02  0.1158484E+00
         -1   -1    0    0    0  501 -0.00000000000E+00  0.00000000000E+00  0.92840219564E+02  0.92840219564E+02  0.00000000000E+00 0.  1.
          1   -1    0    0  501    0  0.00000000000E+00 -0.00000000000E+00 -0.46027409422E+03  0.46027409422E+03  0.00000000000E+00 0. -1.
         25    2    1    2    0    0 -0.11536940873E+03 -0.11749373053E+03 -0.11218782965E+03  0.23525466579E+03  0.12507506335E+03 0.  0.
          5    1    3    3  502    0  0.12403357150E+02  0.57610506330E+01 -0.41892991827E+02  0.44266557774E+02  0.41800000000E+01 0.  1.
         -5    1    3    3    0  502 -0.12777276588E+03 -0.12325478116E+03 -0.70294837828E+02  0.19098810802E+03  0.41800000000E+01 0.  1.
        -11    1    1    2    0    0  0.64786374756E+02  0.53057866375E+01 -0.70667231700E+02  0.96017099321E+02  0.00000000000E+00 0. -1.
         11    1    1    2    0    0  0.50583033978E+02  0.11218794389E+03 -0.18457881330E+03  0.22184254867E+03  0.00000000000E+00 0.  1.
</event>
<event>
 7    1  0.2943257E-009  0.2482461E+03  0.7561462E-02  0.1114418E+00
         -1   -1    0    0    0  501 -0.00000000000E+00  0.00000000000E+00  0.66565377651E+03  0.66565377651E+03  0.00000000000E+00 0.  1.
          1   -1    0    0  501    0  0.00000000000E+00 -0.00000000000E+00 -0.97686566064E+02  0.97686566064E+02  0.00000000000E+00 0. -1.
         25    2    1    2    0    0  0.82543126979E+02  0.21428688847E+03  0.26671240558E+03  0.37351867423E+03  0.12509378212E+03 0.  0.
          5    1    3    3  502    0 -0.71912178031E+01  0.15029165380E+03  0.14051957725E+03  0.20591871893E+03  0.41800000000E+01 0.  1.
         -5    1    3    3    0  502  0.89734344782E+02  0.63995234668E+02  0.12619282832E+03  0.16759995529E+03  0.41800000000E+01 0.  1.
        -11    1    1    2    0    0 -0.61555021010E+02 -0.20240238923E+03  0.29803729258E+03  0.36548868046E+03  0.00000000000E+00 0. -1.
         11    1    1    2    0    0 -0.20988105969E+02 -0.11884499238E+02  0.32175122971E+01  0.24332987891E+02  0.00000000000E+00 0.  1.
</event>
<event>
 7    1  0.2943257E-009  0.2894460E+03  0.7561462E-02  0.1090639E+00
         -2   -1    0    0    0  501 -0.00000000000E+00  0.00000000000E+00  0.76395975358E+02  0.76395975358E+02  0.00000000000E+00 0.  1.
          2   -1    0    0  501    0  0.00000000000E+00 -0.00000000000E+00 -0.12198763676E+04  0.12198763676E+04  0.00000000000E+00 0. -1.
         25    2    1    2    0    0  0.27789604516E+03 -0.11376659989E+02 -0.71702013890E+03  0.77917990070E+03  0.12509115777E+03 0.  0.
          5    1    3    3  502    0  0.19729588953E+03 -0.41940330919E+02 -0.60512303129E+03  0.63786833656E+03  0.41800000000E+01 0.  1.
         -5    1    3    3    0  502  0.80600155628E+02  0.30563670930E+02 -0.11189710761E+03  0.14131156414E+03  0.41800000000E+01 0.  1.
        -11    1    1    2    0    0 -0.25745042125E+03  0.34754069133E+02 -0.36233257599E+03  0.44584017354E+03  0.00000000000E+00 0. -1.
         11    1    1    2    0    0 -0.20445623907E+02 -0.23377409144E+02 -0.64127677360E+02  0.71252268728E+02  0.00000000000E+00 0.  1.
</event>
<event>
 7    1  0.3090958E-009  0.1708437E+03  0.7561462E-02  0.1176971E+00
          2   -1    0    0  501    0  0.00000000000E+00  0.00000000000E+00  0.90233197293E+02  0.90233197293E+02  0.00000000000E+00 0. -1.
         -2   -1    0    0    0  501 -0.00000000000E+00 -0.00000000000E+00 -0.41101044327E+03  0.41101044327E+03  0.00000000000E+00 0.  1.
         25    2    1    2    0    0  0.87658939988E+02  0.10802167054E+03 -0.68717581934E+02  0.19930529520E+03  0.12509086123E+03 0.  0.
          5    1    3    3  502    0  0.86157229002E+02  0.13474678721E+03 -0.59011109400E+02  0.17052726529E+03  0.41800000000E+01 0.  1.
         -5    1    3    3    0  502  0.15017109853E+01 -0.26725116672E+02 -0.97064725338E+01  0.28778029919E+02  0.41800000000E+01 0.  1.
        -11    1    1    2    0    0 -0.31465066067E+01 -0.54454670011E+02 -0.40588446897E+02  0.67989952282E+02  0.00000000000E+00 0. -1.
         11    1    1    2    0    0 -0.84512433381E+02 -0.53567000529E+02 -0.21147121714E+03  0.23394839307E+03  0.00000000000E+00 0.  1.
</event>
<event>
 7    1  0.2943257E-009  0.1359058E+03  0.7561462E-02  0.1218947E+00
         -3   -1    0    0    0  501 -0.00000000000E+00  0.00000000000E+00  0.50375062331E+02  0.50375062331E+02  0.00000000000E+00 0.  1.
          3   -1    0    0  501    0  0.00000000000E+00 -0.00000000000E+00 -0.51633440147E+03  0.51633440147E+03  0.00000000000E+00 0. -1.
         25    2    1    2    0    0 -0.47339564093E+01  0.10389004649E+03 -0.34869481877E+03  0.38477451243E+03  0.12509115348E+03 0.  0.
          5    1    3    3  502    0  0.53387884623E+02  0.43542153977E+02 -0.93984363225E+02  0.11660496700E+03  0.41800000000E+01 0. -1.
         -5    1    3    3    0  502 -0.58121841033E+02  0.60347892512E+02 -0.25471045554E+03  0.26816954543E+03  0.41800000000E+01 0. -1.
        -11    1    1    2    0    0 -0.25751420725E+02 -0.33985183943E+02 -0.92328079580E+02  0.10169858738E+03  0.00000000000E+00 0. -1.
         11    1    1    2    0    0  0.30485377135E+02 -0.69904862546E+02 -0.24936440795E+02  0.80236363989E+02  0.00000000000E+00 0.  1.
</event>
<event>
 7    1  0.2943257E-009  0.7968826E+02  0.7561462E-02  0.1329938E+00
          2   -1    0    0  501    0  0.00000000000E+00  0.00000000000E+00  0.41489955909E+03  0.41489955909E+03  0.00000000000E+00 0. -1.
         -2   -1    0    0    0  501 -0.00000000000E+00 -0.00000000000E+00 -0.31057588333E+02  0.31057588333E+02  0.00000000000E+00 0.  1.
         25    2    1    2    0    0  0.38858205068E+02 -0.21920041680E+01  0.23958215296E+03  0.27305984657E+03  0.12508919541E+03 0.  0.
          5    1    3    3  502    0  0.51094877310E+02  0.54777643146E+01  0.24968096792E+03  0.25494852526E+03  0.41800000000E+01 0. -1.
         -5    1    3    3    0  502 -0.12236672242E+02 -0.76697684826E+01 -0.10098814959E+02  0.18111321314E+02  0.41800000000E+01 0. -1.
        -11    1    1    2    0    0  0.22886650493E+02 -0.16566455299E+02  0.63652143263E+02  0.69640803800E+02  0.00000000000E+00 0. -1.
         11    1    1    2    0    0 -0.61744855561E+02  0.18758459467E+02  0.80607674532E+02  0.10325649705E+03  0.00000000000E+00 0.  1.
</event>
<event>
 7    1  0.3822898E-009  0.1679402E+03  0.7561462E-02  0.1180013E+00
          2   -1    0    0  501    0  0.00000000000E+00  0.00000000000E+00  0.15074861477E+04  0.15074861477E+04  0.00000000000E+00 0. -1.
         -2   -1    0    0    0  501 -0.00000000000E+00 -0.00000000000E+00 -0.22052595162E+02  0.22052595162E+02  0.00000000000E+00 0.  1.
         25    2    1    2    0    0 -0.14294557873E+03  0.20799411704E+02  0.87964298013E+03  0.90015873924E+03  0.12509168372E+03 0.  0.
          5    1    3    3  502    0 -0.15961527840E+03  0.27846615451E+02  0.84894517910E+03  0.86427880953E+03  0.41800000000E+01 0. -1.
         -5    1    3    3    0  502  0.16669699673E+02 -0.70472037470E+01  0.30697801031E+02  0.35879929710E+02  0.41800000000E+01 0. -1.
        -11    1    1    2    0    0  0.66804085972E+02  0.18804828834E+02  0.40668860027E+03  0.41256760062E+03  0.00000000000E+00 0. -1.
         11    1    1    2    0    0  0.76141492758E+02 -0.39604240538E+02  0.19910197218E+03  0.21681240304E+03  0.00000000000E+00 0.  1.
</event>
<event>
 7    1  0.2943257E-009  0.1593732E+03  0.7561462E-02  0.1189406E+00
          2   -1    0    0  501    0  0.00000000000E+00  0.00000000000E+00  0.10852327109E+04  0.10852327109E+04  0.00000000000E+00 0. -1.
         -2   -1    0    0    0  501 -0.00000000000E+00 -0.00000000000E+00 -0.31370083401E+02  0.31370083401E+02  0.00000000000E+00 0.  1.
         25    2    1    2    0    0 -0.91554785633E+02  0.11055169045E+03  0.43903390843E+03  0.47854182983E+03  0.12509018790E+03 0.  0.
          5    1    3    3  502    0 -0.34719711148E+02  0.69518999189E+01  0.26949782009E+03  0.27184615997E+03  0.41800000000E+01 0. -1.
         -5    1    3    3    0  502 -0.56835074485E+02  0.10359979053E+03  0.16953608834E+03  0.20669566986E+03  0.41800000000E+01 0. -1.
        -11    1    1    2    0    0  0.23900938726E+02  0.10556572027E+02  0.49639913888E+02  0.56096498427E+02  0.00000000000E+00 0.  1.
         11    1    1    2    0    0  0.67653846907E+02 -0.12110826247E+03  0.56518880517E+03  0.58196446603E+03  0.00000000000E+00 0. -1.
</event>
<event>
 7    1  0.4635099E-009  0.1012547E+03  0.7561462E-02  0.1277679E+00
         -2   -1    0    0    0  501 -0.00000000000E+00  0.00000000000E+00  0.31855266916E+02  0.31855266916E+02  0.00000000000E+00 0.  1.
          2   -1    0    0  501    0  0.00000000000E+00 -0.00000000000E+00 -0.58109446270E+03  0.58109446270E+03  0.00000000000E+00 0. -1.
         25    2    1    2    0    0  0.50541677312E+02 -0.63685381302E+02 -0.28046030598E+03  0.31767221802E+03  0.12508943172E+03 0.  0.
          5    1    3    3  502    0  0.32200974658E+02 -0.40391763785E+02 -0.20085236923E+02  0.55581350225E+02  0.41800000000E+01 0. -1.
         -5    1    3    3    0  502  0.18340702654E+02 -0.23293617517E+02 -0.26037506906E+03  0.26209086779E+03  0.41800000000E+01 0. -1.
        -11    1    1    2    0    0 -0.76177487519E+02  0.40993672324E+02 -0.17020075835E+03  0.19092351589E+03  0.00000000000E+00 0. -1.
         11    1    1    2    0    0  0.25635810208E+02  0.22691708979E+02 -0.98578131451E+02  0.10435399572E+03  0.00000000000E+00 0.  1.
</event>
<event>
 7    1  0.2943257E-009  0.7027104E+02  0.7561462E-02  0.1359174E+00
         -3   -1    0    0    0  501 -0.00000000000E+00  0.00000000000E+00  0.18806953422E+03  0.18806953422E+03  0.00000000000E+00 0.  1.
          3   -1    0    0  501    0  0.00000000000E+00 -0.00000000000E+00 -0.76018389400E+02  0.76018389400E+02  0.00000000000E+00 0. -1.
         25    2    1    2    0    0  0.19190450843E+02 -0.10790833847E+02  0.46056195981E+02  0.13511023372E+03  0.12509550979E+03 0.  0.
          5    1    3    3  502    0 -0.10336506280E+01 -0.87371849481E+01  0.87881210618E+02  0.88419378046E+02  0.41800000000E+01 0.  1.
         -5    1    3    3    0  502  0.20224101471E+02 -0.20536488985E+01 -0.41825014637E+02  0.46690855673E+02  0.41800000000E+01 0.  1.
        -11    1    1    2    0    0  0.82680510360E+01 -0.46122177658E+02  0.35657689534E+02  0.58881973156E+02  0.00000000000E+00 0.  1.
         11    1    1    2    0    0 -0.27458501879E+02  0.56913011504E+02  0.30337259305E+02  0.70095716746E+02  0.00000000000E+00 0. -1.
</event>
<event>
 7    1  0.2943257E-009  0.8127750E+02  0.7561462E-02  0.1325465E+00
         -2   -1    0    0    0  501 -0.00000000000E+00  0.00000000000E+00  0.31974580321E+03  0.31974580321E+03  0.00000000000E+00 0.  1.
          2   -1    0    0  501    0  0.00000000000E+00 -0.00000000000E+00 -0.54096133898E+02  0.54096133898E+02  0.00000000000E+00 0. -1.
         25    2    1    2    0    0  0.23921979535E+02  0.12507683807E+01  0.47747269183E+02  0.13602053898E+03  0.12509180543E+03 0.  0.
          5    1    3    3  502    0  0.36368710786E+02 -0.32706955029E+02  0.75627947294E+02  0.90163666981E+02  0.41800000000E+01 0.  1.
         -5    1    3    3    0  502 -0.12446731251E+02  0.33957723409E+02 -0.27880678111E+02  0.45856872003E+02  0.41800000000E+01 0.  1.
        -11    1    1    2    0    0 -0.28104172078E+02  0.32546572849E+02  0.47599846048E+02  0.64147246521E+02  0.00000000000E+00 0.  1.
         11    1    1    2    0    0  0.41821925432E+01 -0.33797341230E+02  0.17030255408E+03  0.17367415160E+03  0.00000000000E+00 0. -1.
</event>
<event>
 7    1  0.2943257E-009  0.9834682E+02  0.7561462E-02  0.1283811E+00
          1   -1    0    0  501    0  0.00000000000E+00  0.00000000000E+00  0.10989507006E+04  0.10989507006E+04  0.00000000000E+00 0. -1.
         -1   -1    0    0    0  501 -0.00000000000E+00 -0.00000000000E+00 -0.13410796539E+02  0.13410796539E+02  0.00000000000E+00 0.  1.
         25    2    1    2    0    0 -0.23138852654E+02  0.62300704413E+01  0.82549028385E+03  0.83525780988E+03  0.12508868833E+03 0.  0.
          5    1    3    3  502    0  0.15931204701E+01  0.50999805219E+02  0.16459469003E+03  0.17237285910E+03  0.41800000000E+01 0.  1.
         -5    1    3    3    0  502 -0.24731973124E+02 -0.44769734778E+02  0.66089559382E+03  0.66288495078E+03  0.41800000000E+01 0.  1.
        -11    1    1    2    0    0  0.15362894530E+02 -0.48668516329E+02  0.16516850255E+03  0.17287358747E+03  0.00000000000E+00 0. -1.
         11    1    1    2    0    0  0.77759581241E+01  0.42438445888E+02  0.94881117664E+02  0.10423009980E+03  0.00000000000E+00 0.  1.
</event>
<event>
 7    1  0.3600322E-009  0.5120409E+02  0.7561462E-02  0.1438953E+00
         -2   -1    0    0    0  501 -0.00000000000E+00  0.00000000000E+00  0.51754620559E+02  0.51754620559E+02  0.00000000000E+00 0.  1.
          2   -1    0    0  501    0  0.00000000000E+00 -0.00000000000E+00 -0.29008206564E+03  0.29008206564E+03  0.00000000000E+00 0. -1.
         25    2    1    2    0    0  0.40596895341E+02  0.74992361161E+01 -0.18752873437E+03  0.22916957644E+03  0.12508925652E+03 0.  0.
          5    1    3    3  502    0  0.16638374830E+02 -0.15895321142E+02  0.12359809785E+02  0.26452486634E+02  0.41800000000E+01 0.  1.
         -5    1    3    3    0  502  0.23958520511E+02  0.23394557258E+02 -0.19988854416E+03  0.20271708981E+03  0.41800000000E+01 0.  1.
        -11    1    1    2    0    0 -0.22257967603E+02  0.53383149881E+01 -0.75757657569E+02  0.79139986158E+02  0.00000000000E+00 0. -1.
         11    1    1    2    0    0 -0.18338927738E+02 -0.12837551104E+02  0.24958946856E+02  0.33527123603E+02  0.00000000000E+00 0.  1.
</event>
<event>
 7    1  0.3725158E-009  0.2124740E+03  0.7561462E-02  0.1139622E+00
         -1   -1    0    0    0  501 -0.00000000000E+00  0.00000000000E+00  0.32228975251E+03  0.32228975251E+03  0.00000000000E+00 0.  1.
          1   -1    0    0  501    0  0.00000000000E+00 -0.00000000000E+00 -0.16736811036E+03  0.16736811036E+03  0.00000000000E+00 0. -1.
         25    2    1    2    0    0  0.19844628396E+03 -0.21289825076E+02  0.30592568439E+02  0.23752328319E+03  0.12508885060E+03 0.  0.
          5    1    3    3  502    0  0.11220437276E+03 -0.63481889471E+02  0.51990632351E+02  0.13906929858E+03  0.41800000000E+01 0. -1.
         -5    1    3    3    0  502  0.86241911201E+02  0.42192064395E+02 -0.21398063912E+02  0.98453984605E+02  0.41800000000E+01 0. -1.
        -11    1    1    2    0    0 -0.14491238232E+03  0.10835020439E+02  0.38314131298E+02  0.15028296269E+03  0.00000000000E+00 0. -1.
         11    1    1    2    0    0 -0.53533901633E+02  0.10454804637E+02  0.86014942413E+02  0.10185161698E+03  0.00000000000E+00 0.  1.
</event>
<event>
 7    1  0.2943257E-009  0.9415401E+02  0.7561462E-02  0.1293093E+00
         -2   -1    0    0    0  501 -0.00000000000E+00  0.00000000000E+00  0.33972238031E+02  0.33972238031E+02  0.00000000000E+00 0.  1.
          2   -1    0    0  501    0  0.00000000000E+00 -0.00000000000E+00 -0.38774660955E+03  0.38774660955E+03  0.00000000000E+00 0. -1.
         25    2    1    2    0    0 -0.40052841323E+02  0.36648844467E+01 -0.24157724000E+03  0.27500160173E+03  0.12509459057E+03 0.  0.
          5    1    3    3  502    0 -0.29542685373E+02  0.47487580684E+02 -0.21569041040E+03  0.22286243766E+03  0.41800000000E+01 0.  1.
         -5    1    3    3    0  502 -0.10510155950E+02 -0.43822696237E+02 -0.25886829598E+02  0.52139164073E+02  0.41800000000E+01 0.  1.
        -11    1    1    2    0    0 -0.25131481831E+01 -0.34382249002E+02 -0.18021102609E+02  0.38900065546E+02  0.00000000000E+00 0. -1.
         11    1    1    2    0    0  0.42565989506E+02  0.30717364555E+02 -0.94176028906E+02  0.10781718030E+03  0.00000000000E+00 0.  1.
</event>
<event>
 7    1  0.2943257E-009  0.2153075E+03  0.7561462E-02  0.1137431E+00
          1   -1    0    0  501    0  0.00000000000E+00  0.00000000000E+00  0.34447464753E+03  0.34447464753E+03  0.00000000000E+00 0. -1.
         -1   -1    0    0    0  501 -0.00000000000E+00 -0.00000000000E+00 -0.20278998114E+03  0.20278998114E+03  0.00000000000E+00 0.  1.
         25    2    1    2    0    0 -0.12984074589E+03 -0.13697719325E+03 -0.82115755696E+02  0.24085575953E+03  0.12508848389E+03 0.  0.
          5    1    3    3  502    0 -0.59472940453E+02  0.79770601810E+01 -0.42829122335E+00  0.60152472673E+02  0.41800000000E+01 0.  1.
         -5    1    3    3    0  502 -0.70367805436E+02 -0.14495425343E+03 -0.81687464473E+02  0.18070328686E+03  0.41800000000E+01 0.  1.
        -11    1    1    2    0    0  0.60468796806E+02  0.12503039388E+03  0.14745318635E+03  0.20256237791E+03  0.00000000000E+00 0. -1.
         11    1    1    2    0    0  0.69371949083E+02  0.11946799374E+02  0.76347235733E+02  0.10384649122E+03  0.00000000000E+00 0.  1.
</event>
<event>
 7    1  0.2943257E-009  0.1619076E+03  0.7561462E-02  0.1186560E+00
          1   -1    0    0  501    0  0.00000000000E+00  0.00000000000E+00  0.35383177122E+03  0.35383177122E+03  0.00000000000E+00 0. -1.
         -1   -1    0    0    0  501 -0.00000000000E+00 -0.00000000000E+00 -0.12205371190E+03  0.12205371190E+03  0.00000000000E+00 0.  1.
         25    2    1    2    0    0 -0.14596453540E+03 -0.56935035221E+02  0.21925370128E+03  0.29709709867E+03  0.12508899504E+03 0.  0.
          5    1    3    3  502    0 -0.80762630414E+02 -0.37882473140E+01  0.19233220258E+03  0.20867702758E+03  0.41800000000E+01 0. -1.
         -5    1    3    3    0  502 -0.65201904987E+02 -0.53146787907E+02  0.26921498701E+02  0.88420071087E+02  0.41800000000E+01 0. -1.
        -11    1    1    2    0    0  0.72216279829E+02  0.41487646068E+02 -0.34304390018E+02  0.90073342466E+02  0.00000000000E+00 0.  1.
         11    1    1    2    0    0  0.73748255573E+02  0.15447389153E+02  0.46828748053E+02  0.88715041993E+02  0.00000000000E+00 0. -1.
</event>
<event>
 7    1  0.2943257E-009  0.1345384E+03  0.7561462E-02  0.1220873E+00
          1   -1    0    0  501    0  0.00000000000E+00  0.00000000000E+00  0.21951279162E+03  0.21951279162E+03  0.00000000000E+00 0. -1.
         -1   -1    0    0    0  501 -0.00000000000E+00 -0.00000000000E+00 -0.87661354984E+02  0.87661354984E+02  0.00000000000E+00 0.  1.
         25    2    1    2    0    0  0.38387898820E+02 -0.75636416147E+02  0.54289430199E+02  0.16058914084E+03  0.12508809576E+03 0.  0.
          5    1    3    3  502    0  0.31495004750E+02 -0.10742380120E+03  0.21218354776E+02  0.11401534707E+03  0.41800000000E+01 0.  1.
         -5    1    3    3    0  502  0.68928940692E+01  0.31787385049E+02  0.33071075422E+02  0.46573793774E+02  0.41800000000E+01 0.  1.
        -11    1    1    2    0    0 -0.67380173118E+02  0.64276711138E+02  0.55250194268E+02  0.10827819398E+03  0.00000000000E+00 0.  1.
         11    1    1    2    0    0  0.28992274298E+02  0.11359705009E+02  0.22311812168E+02  0.38306811784E+02  0.00000000000E+00 0. -1.
</event>
<event>
 7    1  0.2943257E-009  0.2087291E+03  0.7561462E-02  0.1142576E+00
         -2   -1    0    0    0  501 -0.00000000000E+00  0.00000000000E+00  0.15724955919E+03  0.15724955919E+03  0.00000000000E+00 0.  1.
          2   -1    0    0  501    0  0.00000000000E+00 -0.00000000000E+00 -0.36577759703E+03  0.36577759703E+03  0.00000000000E+00 0. -1.
         25    2    1    2    0    0  0.80120532839E+02  0.16002532850E+03 -0.23376494633E+03  0.31987837595E+03  0.12509484291E+03 0.  0.
          5    1    3    3  502    0  0.66637344296E+02  0.11459028878E+02 -0.90121714816E+02  0.11274413900E+03  0.41800000000E+01 0.  1.
         -5    1    3    3    0  502  0.13483188543E+02  0.14856629962E+03 -0.14364323152E+03  0.20713423695E+03  0.41800000000E+01 0.  1.
        -11    1    1    2    0    0  0.78864553028E+01 -0.83446399065E+02  0.13332988361E+00  0.83818348057E+02  0.00000000000E+00 0. -1.
         11    1    1    2    0    0 -0.88006988142E+02 -0.76578929431E+02  0.25103578613E+02  0.11933043222E+03  0.00000000000E+00 0.  1.
</event>
<event>
 7    1  0.2943257E-009  0.9332610E+02  0.7561462E-02  0.1294991E+00
          1   -1    0    0  501    0  0.00000000000E+00  0.00000000000E+00  0.45289791446E+03  0.45289791446E+03  0.00000000000E+00 0. -1.
         -1   -1    0    0    0  501 -0.00000000000E+00 -0.00000000000E+00 -0.27619188948E+02  0.27619188948E+02  0.00000000000E+00 0.  1.
         25    2    1    2    0    0 -0.17665221771E+02  0.96003101920E+01  0.26862331494E+03  0.29699825269E+03  0.12508097680E+03 0.  0.
          5    1    3    3  502    0 -0.55967846030E+02 -0.31507323003E+02  0.18741574270E+03  0.19815964323E+03  0.41800000000E+01 0. -1.
         -5    1    3    3    0  502  0.38302624260E+02  0.41107633195E+02  0.81207572235E+02  0.98838609462E+02  0.41800000000E+01 0. -1.
        -11    1    1    2    0    0 -0.69662225074E+01 -0.31942127362E+02  0.11583605749E+02  0.34684401084E+02  0.00000000000E+00 0.  1.
         11    1    1    2    0    0  0.24631444278E+02  0.22341817170E+02  0.14507180483E+03  0.14883444963E+03  0.00000000000E+00 0. -1.
</event>
<event>
 7    1  0.2943257E-009  0.8237217E+02  0.7561462E-02  0.1322451E+00
         -3   -1    0    0    0  501 -0.00000000000E+00  0.00000000000E+00  0.83974380101E+02  0.83974380101E+02  0.00000000000E+00 0.  1.
          3   -1    0    0  501    0  0.00000000000E+00 -0.00000000000E+00 -0.14166132633E+03  0.14166132633E+03  0.00000000000E+00 0. -1.
         25    2    1    2    0    0  0.21901317672E+02  0.79638119095E+01 -0.33627479621E+02  0.13160354293E+03  0.12508235331E+03 0.  0.
          5    1    3    3  502    0  0.46682639806E+02 -0.23808090593E+02  0.26680816636E+02  0.58952798181E+02  0.41800000000E+01 0. -1.
         -5    1    3    3    0  502 -0.24781322134E+02  0.31771902503E+02 -0.60308296258E+02  0.72650744751E+02  0.41800000000E+01 0. -1.
        -11    1    1    2    0    0 -0.13050930765E+02 -0.38090961861E+02 -0.41740765080E+02  0.57996031233E+02  0.00000000000E+00 0. -1.
         11    1    1    2    0    0 -0.88503869070E+01  0.30127149951E+02  0.17681298476E+02  0.36036132262E+02  0.00000000000E+00 0.  1.
</event>
<event>
 7    1  0.2943257E-009  0.2242740E+03  0.7561462E-02  0.1130736E+00
         -1   -1    0    0    0  501 -0.00000000000E+00  0.00000000000E+00  0.87942158983E+02  0.87942158983E+02  0.00000000000E+00 0.  1.
          1   -1    0    0  501    0  0.00000000000E+00 -0.00000000000E+00 -0.12660673899E+04  0.12660673899E+04  0.00000000000E+00 0. -1.
         25    2    1    2    0    0 -0.16202034133E+03 -0.12406022592E+03 -0.10873401246E+04  0.11133717277E+04  0.12508607726E+03 0.  0.
          5    1    3    3  502    0 -0.49871045464E+02 -0.98865828997E+02 -0.35024125995E+03  0.36735267236E+03  0.41800000000E+01 0.  1.
         -5    1    3    3    0  502 -0.11214929587E+03 -0.25194396920E+02 -0.73709886469E+03  0.74601905533E+03  0.41800000000E+01 0.  1.
        -11    1    1    2    0    0  0.14112953586E+03  0.56532107465E+02 -0.65905210200E+02  0.16570130294E+03  0.00000000000E+00 0. -1.
         11    1    1    2    0    0  0.20890805473E+02  0.67528118452E+02 -0.24879896054E+02  0.74936518218E+02  0.00000000000E+00 0.  1.
</event>
<event>
 7    1  0.2943257E-009  0.1431102E+03  0.7561462E-02  0.1209204E+00
          1   -1    0    0  501    0  0.00000000000E+00  0.00000000000E+00  0.36879570144E+03  0.36879570144E+03  0.00000000000E+00 0. -1.
         -1   -1    0    0    0  501 -0.00000000000E+00 -0.00000000000E+00 -0.57630017702E+02  0.57630017702E+02  0.00000000000E+00 0.  1.
         25    2    1    2    0    0 -0.81594445478E+02  0.52489977650E+02  0.16406647315E+03  0.22798896618E+03  0.12509320446E+03 0.  0.
          5    1    3    3  502    0 -0.30812247112E+02 -0.38379065612E+02  0.28537294234E+02  0.57045567852E+02  0.41800000000E+01 0.  1.
         -5    1    3    3    0  502 -0.50782198366E+02  0.90869043262E+02  0.13552917892E+03  0.17094339833E+03  0.41800000000E+01 0.  1.
        -11    1    1    2    0    0  0.96440712675E+02 -0.22274047142E+02  0.11726332685E+03  0.15345237718E+03  0.00000000000E+00 0. -1.
         11    1    1    2    0    0 -0.14846267197E+02 -0.30215930508E+02  0.29835883732E+02  0.44984375779E+02  0.00000000000E+00 0.  1.
</event>
<event>
 7    1  0.2943257E-009  0.1014152E+03  0.7561462E-02  0.1277348E+00
         -1   -1    0    0    0  501 -0.00000000000E+00  0.00000000000E+00  0.22220717371E+03  0.22220717371E+03  0.00000000000E+00 0.  1.
          1   -1    0    0  501    0  0.00000000000E+00 -0.00000000000E+00 -0.75622672202E+02  0.75622672202E+02  0.00000000000E+00 0. -1.
         25    2    1    2    0    0 -0.63945042209E+02  0.46910356347E+01  0.10908525628E+03  0.17792750066E+03  0.12509047971E+03 0.  0.
          5    1    3    3  502    0  0.34097796025E+02 -0.13152615393E+02  0.11884361702E+02  0.38656971409E+02  0.41800000000E+01 0. -1.
         -5    1    3    3    0  502 -0.98042838234E+02  0.17843651028E+02  0.97200894576E+02  0.13927052925E+03  0.41800000000E+01 0. -1.
        -11    1    1    2    0    0  0.42110743055E+02  0.50186696052E+01 -0.27570950590E+02  0.50583189319E+02  0.00000000000E+00 0. -1.
         11    1    1    2    0    0  0.21834299153E+02 -0.97097052399E+01  0.65070195818E+02  0.69319155933E+02  0.00000000000E+00 0.  1.
</event>
<event>
 7    1  0.2943257E-009  0.1166997E+03  0.7561462E-02  0.1248643E+00
          1   -1    0    0  501    0  0.00000000000E+00  0.00000000000E+00  0.29407959869E+02  0.29407959869E+02  0.00000000000E+00 0. -1.
         -1   -1    0    0    0  501 -0.00000000000E+00 -0.00000000000E+00 -0.63078849992E+03  0.63078849992E+03  0.00000000000E+00 0.  1.
         25    2    1    2    0    0  0.63732703742E+02  0.15878640143E+02 -0.45267335450E+03  0.47420841257E+03  0.12508582630E+03 0.  0.
          5    1    3    3  502    0  0.64719890321E+01  0.54140738743E+02 -0.32028767835E+03  0.32492272241E+03  0.41800000000E+01 0. -1.
         -5    1    3    3    0  502  0.57260714710E+02 -0.38262098600E+02 -0.13238567615E+03  0.14928569016E+03  0.41800000000E+01 0. -1.
        -11    1    1    2    0    0 -0.73881627267E+02 -0.39666259327E+02 -0.12718762663E+03  0.15234368823E+03  0.00000000000E+00 0.  1.
         11    1    1    2    0    0  0.10148923525E+02  0.23787619184E+02 -0.21519558912E+02  0.33644358976E+02  0.00000000000E+00 0. -1.
</event>
<event>
 7    1  0.2943257E-009  0.8262414E+02  0.7561462E-02  0.1321765E+00
         -2   -1    0    0    0  501 -0.00000000000E+00  0.00000000000E+00  0.37537487963E+02  0.37537487963E+02  0.00000000000E+00 0. -1.
          2   -1    0    0  501    0  0.00000000000E+00 -0.00000000000E+00 -0.36433758441E+03  0.36433758441E+03  0.00000000000E+00 0.  1.
         25    2    1    2    0    0  0.39882173467E+02  0.18776810740E+02 -0.19672403291E+03  0.23725910101E+03  0.12509348307E+03 0.  0.
          5    1    3    3  502    0  0.53385907085E+02  0.31074813808E+02 -0.28783086866E+02  0.68276186317E+02  0.41800000000E+01 0.  1.
         -5    1    3    3    0  502 -0.13503733618E+02 -0.12298003068E+02 -0.16794094604E+03  0.16898291470E+03  0.41800000000E+01 0.  1.
        -11    1    1    2    0    0 -0.61134406374E+02 -0.15764909462E+02 -0.46721259875E+02  0.78541862324E+02  0.00000000000E+00 0. -1.
         11    1    1    2    0    0  0.21252232906E+02 -0.30119012781E+01 -0.83354803659E+02  0.86074109033E+02  0.00000000000E+00 0.  1.
</event>
<event>
 7    1  0.2943257E-009  0.2130780E+03  0.7561462E-02  0.1139152E+00
         -1   -1    0    0    0  501 -0.00000000000E+00  0.00000000000E+00  0.40021601563E+02  0.40021601563E+02  0.00000000000E+00 0.  1.
          1   -1    0    0  501    0  0.00000000000E+00 -0.00000000000E+00 -0.12161370534E+04  0.12161370534E+04  0.00000000000E+00 0. -1.
         25    2    1    2    0    0  0.17570353460E+03 -0.65415110091E+02 -0.72317141058E+03  0.75748069520E+03  0.12509694564E+03 0.  0.
          5    1    3    3  502    0  0.11364935786E+03  0.24001115667E+02 -0.35590922859E+03  0.37440764081E+03  0.41800000000E+01 0. -1.
         -5    1    3    3    0  502  0.62054176739E+02 -0.89416225757E+02 -0.36726218199E+03  0.38307305439E+03  0.41800000000E+01 0. -1.
        -11    1    1    2    0    0 -0.64576356030E+00  0.20189490781E+02 -0.15887587289E+02  0.25699182447E+02  0.00000000000E+00 0.  1.
         11    1    1    2    0    0 -0.17505777104E+03  0.45225619310E+02 -0.43705645399E+03  0.47297877734E+03  0.00000000000E+00 0. -1.
</event>
<event>
 7    1  0.2943257E-009  0.2285704E+03  0.7561462E-02  0.1127650E+00
          2   -1    0    0  501    0  0.00000000000E+00  0.00000000000E+00  0.74454037547E+03  0.74454037547E+03  0.00000000000E+00 0.  1.
         -2   -1    0    0    0  501 -0.00000000000E+00 -0.00000000000E+00 -0.74770282930E+02  0.74770282930E+02  0.00000000000E+00 0. -1.
         25    2    1    2    0    0 -0.19661777523E+03 -0.61586970591E+02  0.28595015987E+03  0.37398628258E+03  0.12508693436E+03 0.  0.
          5    1    3    3  502    0 -0.10217247387E+03 -0.86536567856E+02  0.21447246850E+03  0.25287092387E+03  0.41800000000E+01 0.  1.
         -5    1    3    3    0  502 -0.94445301363E+02  0.24949597265E+02  0.71477691366E+02  0.12111535871E+03  0.41800000000E+01 0.  1.
        -11    1    1    2    0    0  0.13023713219E+03 -0.63907840093E+01  0.20856765575E+03  0.24597361596E+03  0.00000000000E+00 0.  1.
         11    1    1    2    0    0  0.66380643042E+02  0.67977754600E+02  0.17525227692E+03  0.19935075986E+03  0.00000000000E+00 0. -1.
</event>
<event>
 7    1  0.2943257E-009  0.1031766E+03  0.7561462E-02  0.1273754E+00
          2   -1    0    0  501    0  0.00000000000E+00  0.00000000000E+00  0.57804964484E+02  0.57804964484E+02  0.00000000000E+00 0. -1.
         -2   -1    0    0    0  501 -0.00000000000E+00 -0.00000000000E+00 -0.28848248898E+03  0.28848248898E+03  0.00000000000E+00 0.  1.
         25    2    1    2    0    0  0.22624745819E+02 -0.50139209750E+02 -0.19384314763E+03  0.23716405954E+03  0.12508319542E+03 0.  0.
          5    1    3    3  502    0  0.40614591791E+02 -0.72951637542E+02 -0.67477858983E+02  0.10743472595E+03  0.41800000000E+01 0. -1.
         -5    1    3    3    0  502 -0.17989845972E+02  0.22812427792E+02 -0.12636528865E+03  0.12972933360E+03  0.41800000000E+01 0. -1.
        -11    1    1    2    0    0 -0.49518500803E+02  0.42984682948E+02 -0.34531693381E+01  0.65663454588E+02  0.00000000000E+00 0. -1.
         11    1    1    2    0    0  0.26893754983E+02  0.71545268024E+01 -0.33381207522E+02  0.43459939329E+02  0.00000000000E+00 0.  1.
</event>
<event>
 7    1  0.3337695E-009  0.1577972E+03  0.7561462E-02  0.1191206E+00
          1   -1    0    0  501    0  0.00000000000E+00  0.00000000000E+00  0.20146614432E+03  0.20146614432E+03  0.00000000000E+00 0. -1.
         -1   -1    0    0    0  501 -0.00000000000E+00 -0.00000000000E+00 -0.18963325130E+03  0.18963325130E+03  0.00000000000E+00 0.  1.
         25    2    1    2    0    0  0.15600372466E+03 -0.14786342098E+02 -0.35751600349E+02  0.20367384893E+03  0.12509621013E+03 0.  0.
          5    1    3    3  502    0  0.71999513442E+02 -0.11824822425E+02 -0.80193715392E+02  0.10850004954E+03  0.41800000000E+01 0.  1.
         -5    1    3    3    0  502  0.84004211221E+02 -0.29615196730E+01  0.44442115043E+02  0.95173799394E+02  0.41800000000E+01 0.  1.
        -11    1    1    2    0    0 -0.92947547681E+02 -0.24536905725E+01 -0.18133489449E+02  0.94731677157E+02  0.00000000000E+00 0. -1.
         11    1    1    2    0    0 -0.63056176982E+02  0.17240032671E+02  0.65717982820E+02  0.92693869527E+02  0.00000000000E+00 0.  1.
</event>
<event>
 7    1  0.2943257E-009  0.1103216E+03  0.7561462E-02  0.1259975E+00
         -2   -1    0    0    0  501 -0.00000000000E+00  0.00000000000E+00  0.40059363583E+03  0.40059363583E+03  0.00000000000E+00 0.  1.
          2   -1    0    0  501    0  0.00000000000E+00 -0.00000000000E+00 -0.69611011613E+02  0.69611011613E+02  0.00000000000E+00 0. -1.
         25    2    1    2    0    0 -0.52110075684E+02  0.40101065329E+02  0.31923923861E+03  0.34911995244E+03  0.12508994481E+03 0.  0.
          5    1    3    3  502    0  0.23756352505E+02 -0.16046002153E+02  0.17027932279E+03  0.17272625347E+03  0.41800000000E+01 0.  1.
         -5    1    3    3    0  502 -0.75866428189E+02  0.56147067482E+02  0.14895991582E+03  0.17639369896E+03  0.41800000000E+01 0.  1.
        -11    1    1    2    0    0 -0.85186280786E+01  0.13704009722E+02  0.33475471599E+02  0.37161459950E+02  0.00000000000E+00 0.  1.
         11    1    1    2    0    0  0.60628703762E+02 -0.53805075051E+02 -0.21732085989E+02  0.83923235058E+02  0.00000000000E+00 0. -1.
</event>
<event>
 7    1  0.2943257E-009  0.1019650E+03  0.7561462E-02  0.1276217E+00
         -3   -1    0    0    0  501 -0.00000000000E+00  0.00000000000E+00  0.14361745223E+03  0.14361745223E+03  0.00000000000E+00 0.  1.
          3   -1    0    0  501    0  0.00000000000E+00 -0.00000000000E+00 -0.10237670279E+03  0.10237670279E+03  0.00000000000E+00 0. -1.
         25    2    1    2    0    0  0.19034653178E+02 -0.36244596561E+02 -0.16914166588E+02  0.13269987378E+03  0.12508868322E+03 0.  0.
          5    1    3    3  502    0 -0.36264334364E+02 -0.57781048698E+02 -0.24759839835E+02  0.72693009321E+02  0.41800000000E+01 0.  1.
         -5    1    3    3    0  502  0.55298987542E+02  0.21536452137E+02  0.78456732471E+01  0.60006864461E+02  0.41800000000E+01 0.  1.
        -11    1    1    2    0    0  0.23919392154E+02  0.14091035298E+02  0.58729581481E+02  0.64960436711E+02  0.00000000000E+00 0.  1.
         11    1    1    2    0    0 -0.42954045332E+02  0.22153561263E+02 -0.57466545221E+00  0.48333844533E+02  0.00000000000E+00 0. -1.
</event>
<event>
 7    1  0.2943257E-009  0.8329569E+02  0.7561462E-02  0.1319951E+00
         -2   -1    0    0    0  501 -0.00000000000E+00  0.00000000000E+00  0.33784217665E+02  0.33784217665E+02  0.00000000000E+00 0.  1.
          2   -1    0    0  501    0  0.00000000000E+00 -0.00000000000E+00 -0.50005188442E+03  0.50005188442E+03  0.00000000000E+00 0. -1.
         25    2    1    2    0    0 -0.10794890847E+02 -0.66735034776E+02 -0.22965050938E+03  0.27010415633E+03  0.12508718669E+03 0.  0.
          5    1    3    3  502    0 -0.24132449381E+01 -0.18945917207E+02  0.12434067110E+02  0.23170022763E+02  0.41800000000E+01 0.  1.
         -5    1    3    3    0  502 -0.83816459090E+01 -0.47789117569E+02 -0.24208457649E+03  0.24693413357E+03  0.41800000000E+01 0.  1.
        -11    1    1    2    0    0  0.41511823689E+02  0.38873904039E+02 -0.61475306143E+02  0.83747389133E+02  0.00000000000E+00 0. -1.
         11    1    1    2    0    0 -0.30716932842E+02  0.27861130738E+02 -0.17514185123E+03  0.17998455662E+03  0.00000000000E+00 0.  1.
</event>
<event>
 7    1  0.2943257E-009  0.1283918E+03  0.7561462E-02  0.1229862E+00
         -4   -1    0    0    0  501 -0.00000000000E+00  0.00000000000E+00  0.33195911683E+03  0.33195911683E+03  0.00000000000E+00 0.  1.
          4   -1    0    0  501    0  0.00000000000E+00 -0.00000000000E+00 -0.62522566398E+02  0.62522566398E+02  0.00000000000E+00 0. -1.
         25    2    1    2    0    0  0.37382100101E+02  0.77181438807E+02  0.19857987665E+03  0.24987283893E+03  0.12509225523E+03 0.  0.
          5    1    3    3  502    0  0.37975729962E+02  0.10638454140E+03  0.11506482888E+03  0.16129852435E+03  0.41800000000E+01 0.  1.
         -5    1    3    3    0  502 -0.59362986121E+00 -0.29203102588E+02  0.83515047776E+02  0.88574314574E+02  0.41800000000E+01 0.  1.
        -11    1    1    2    0    0  0.13879947285E+02 -0.57789193330E+02  0.67153709990E+02  0.89676443773E+02  0.00000000000E+00 0.  1.
         11    1    1    2    0    0 -0.51262047386E+02 -0.19392245476E+02  0.37029637884E+01  0.54932400527E+02  0.00000000000E+00 0. -1.
</event>
<event>
 7    1  0.2943257E-009  0.1004860E+03  0.7561462E-02  0.1279277E+00
          2   -1    0    0  501    0  0.00000000000E+00  0.00000000000E+00  0.15854567599E+03  0.15854567599E+03  0.00000000000E+00 0. -1.
         -2   -1    0    0    0  501 -0.00000000000E+00 -0.00000000000E+00 -0.12136773103E+03  0.12136773103E+03  0.00000000000E+00 0.  1.
         25    2    1    2    0    0  0.45213411437E+02  0.36495981593E+02 -0.43963561577E+02  0.14476414605E+03  0.12509058314E+03 0.  0.
          5    1    3    3  502    0  0.38788883862E+02 -0.15256567775E+02  0.31869471442E+02  0.52635311165E+02  0.41800000000E+01 0. -1.
         -5    1    3    3    0  502  0.64245275750E+01  0.51752549368E+02 -0.75833033019E+02  0.92128834886E+02  0.41800000000E+01 0. -1.
        -11    1    1    2    0    0 -0.71473230294E+02 -0.15480040456E+02  0.65002119104E+02  0.97843394203E+02  0.00000000000E+00 0. -1.
         11    1    1    2    0    0  0.26259818857E+02 -0.21015941137E+02  0.16139387433E+02  0.37305866764E+02  0.00000000000E+00 0.  1.
</event>
<event>
 6    1  0.2943257E-009  0.1028284E+03  0.7561462E-02  0.1274458E+00
          1   -1    0    0  501    0  0.00000000000E+00  0.00000000000E+00  0.62227819609E+03  0.62227819609E+03  0.00000000000E+00 0. -1.
         -1   -1    0    0    0  501 -0.00000000000E+00 -0.00000000000E+00 -0.22563112578E+02  0.22563112578E+02  0.00000000000E+00 0.  1.
          5    1    1    2  502    0 -0.27768758683E+02 -0.39139234562E+02  0.21693415337E+03  0.22221809768E+03  0.41800000000E+01 0. -1.
         -5    1    1    2    0  502 -0.63749227370E+01  0.77149748235E+02  0.14783404908E+03  0.16692843305E+03  0.41800000000E+01 0. -1.
        -11    1    1    2    0    0  0.68899796491E+01  0.17123643273E+02  0.72376639412E+01  0.19826113029E+02  0.00000000000E+00 0.  1.
         11    1    1    2    0    0  0.27253701771E+02 -0.55134156946E+02  0.22770921712E+03  0.23586866491E+03  0.00000000000E+00 0. -1.
</event>
<event>
 7    1  0.2943257E-009  0.2897379E+03  0.7561462E-02  0.1090486E+00
          2   -1    0    0  501    0  0.00000000000E+00  0.00000000000E+00  0.12146885747E+04  0.12146885747E+04  0.00000000000E+00 0. -1.
         -2   -1    0    0    0  501 -0.00000000000E+00 -0.00000000000E+00 -0.82096368358E+02  0.82096368358E+02  0.00000000000E+00 0.  1.
         25    2    1    2    0    0  0.25748667210E+03 -0.98484540693E+02  0.35445897163E+03  0.46614057956E+03  0.12508911338E+03 0.  0.
          5    1    3    3  502    0  0.15126693934E+03 -0.11270246397E+03  0.17652202110E+03  0.25838155633E+03  0.41800000000E+01 0. -1.
         -5    1    3    3    0  502  0.10621973276E+03  0.14217923276E+02  0.17793695053E+03  0.20775902323E+03  0.41800000000E+01 0. -1.
        -11    1    1    2    0    0 -0.65360910259E+02  0.57594816628E+02  0.33090118780E+03  0.34217657369E+03  0.00000000000E+00 0. -1.
         11    1    1    2    0    0 -0.19212576184E+03  0.40889724065E+02  0.44723204695E+03  0.48846778984E+03  0.00000000000E+00 0.  1.
</event>
<event>
 7    1  0.2943257E-009  0.1086554E+03  0.7561462E-02  0.1263080E+00
         -2   -1    0    0    0  501 -0.00000000000E+00  0.00000000000E+00  0.13299427475E+02  0.13299427475E+02  0.00000000000E+00 0.  1.
          2   -1    0    0  501    0  0.00000000000E+00 -0.00000000000E+00 -0.17903081662E+04  0.17903081662E+04  0.00000000000E+00 0. -1.
         25    2    1    2    0    0  0.10798412031E+02 -0.31824695646E+02 -0.15473675585E+04  0.15527807568E+04  0.12510915454E+03 0.  0.
          5    1    3    3  502    0 -0.37220664752E+02  0.32061657030E+02 -0.63353534218E+03  0.63545088711E+03  0.41800000000E+01 0.  1.
         -5    1    3    3    0  502  0.48019076783E+02 -0.63886352676E+02 -0.91383221636E+03  0.91732986970E+03  0.41800000000E+01 0.  1.
        -11    1    1    2    0    0  0.30034957407E+02 -0.78503218678E+01 -0.14846066921E+03  0.15167167343E+03  0.00000000000E+00 0.  1.
         11    1    1    2    0    0 -0.40833369438E+02  0.39675017514E+02 -0.81180511031E+02  0.99155163484E+02  0.00000000000E+00 0. -1.
</event>
<event>
 7    1  0.2943257E-009  0.1564729E+03  0.7561462E-02  0.1192737E+00
          2   -1    0    0  501    0  0.00000000000E+00  0.00000000000E+00  0.10195477636E+03  0.10195477636E+03  0.00000000000E+00 0. -1.
         -2   -1    0    0    0  501 -0.00000000000E+00 -0.00000000000E+00 -0.27448053764E+03  0.27448053764E+03  0.00000000000E+00 0.  1.
         25    2    1    2    0    0 -0.40277280188E+02 -0.11365523308E+03 -0.13712518045E+03  0.22133677285E+03  0.12508749177E+03 0.  0.
          5    1    3    3  502    0  0.39040990843E+02 -0.10414670286E+02 -0.16636264146E+02  0.43896491977E+02  0.41800000000E+01 0.  1.
         -5    1    3    3    0  502 -0.79318271031E+02 -0.10324056280E+03 -0.12048891630E+03  0.17744028088E+03  0.41800000000E+01 0.  1.
        -11    1    1    2    0    0  0.72545563419E+01 -0.10962598708E+02  0.11943587413E+02  0.17761093391E+02  0.00000000000E+00 0.  1.
         11    1    1    2    0    0  0.33022723846E+02  0.12461783179E+03 -0.47344168239E+02  0.13733744776E+03  0.00000000000E+00 0. -1.
</event>
<event>
 7    1  0.2943257E-009  0.1984426E+03  0.7561462E-02  0.1151060E+00
          2   -1    0    0  501    0  0.00000000000E+00  0.00000000000E+00  0.10659738723E+04  0.10659738723E+04  0.00000000000E+00 0. -1.
         -2   -1    0    0    0  501 -0.00000000000E+00 -0.00000000000E+00 -0.46411024920E+02  0.46411024920E+02  0.00000000000E+00 0.  1.
         25    2    1    2    0    0 -0.40398606253E+02  0.16622558722E+03  0.30111196039E+03  0.36820903987E+03  0.12508593494E+03 0.  0.
          5    1    3    3  502    0 -0.66660996876E+01 -0.18295186800E+02  0.56627062003E+02  0.60027054702E+02  0.41800000000E+01 0.  1.
         -5    1    3    3    0  502 -0.33732506566E+02  0.18452077402E+03  0.24448489839E+03  0.30818198517E+03  0.41800000000E+01 0.  1.
        -11    1    1    2    0    0  0.35008885450E+02 -0.15106053630E+02  0.89140907612E+02  0.96953165635E+02  0.00000000000E+00 0.  1.
         11    1    1    2    0    0  0.53897208029E+01 -0.15111953359E+03  0.62930997939E+03  0.64722269173E+03  0.00000000000E+00 0. -1.
</event>
<event>
 7    1  0.2943257E-009  0.1363132E+03  0.7561462E-02  0.1218378E+00
          1   -1    0    0  501    0  0.00000000000E+00  0.00000000000E+00  0.34984263850E+02  0.34984263850E+02  0.00000000000E+00 0. -1.
         -1   -1    0    0    0  501 -0.00000000000E+00 -0.00000000000E+00 -0.64227410419E+03  0.64227410419E+03  0.00000000000E+00 0.  1.
         25    2    1    2    0    0 -0.22243368896E+02 -0.93379273400E+02 -0.24436381267E+03  0.29082121803E+03  0.12509537063E+03 0.  0.
          5    1    3    3  502    0  0.32200819389E+02 -0.76270227780E+02 -0.20566402639E+03  0.22174130099E+03  0.41800000000E+01 0.  1.
         -5    1    3    3    0  502 -0.54444188285E+02 -0.17109045621E+02 -0.38699786285E+02  0.69079917042E+02  0.41800000000E+01 0.  1.
        -11    1    1    2    0    0  0.45109999440E+02  0.99147138766E+02 -0.30654341995E+03  0.32532128041E+03  0.00000000000E+00 0.  1.
         11    1    1    2    0    0 -0.22866630544E+02 -0.57678653662E+01 -0.56382607726E+02  0.61115869603E+02  0.00000000000E+00 0. -1.
</event>
<event>
 7    1  0.2943257E-009  0.1128985E+03  0.7561462E-02  0.1255295E+00
          4   -1    0    0  501    0  0.00000000000E+00  0.00000000000E+00  0.32502511678E+03  0.32502511678E+03  0.00000000000E+00 0. -1.
         -4   -1    0    0    0  501 -0.00000000000E+00 -0.00000000000E+00 -0.42006483152E+02  0.42006483152E+02  0.00000000000E+00 0.  1.
         25    2    1    2    0    0 -0.42702673876E+02 -0.18238272025E+02  0.14435989729E+03  0.19657906179E+03  0.12508954660E+03 0.  0.
          5    1    3    3  502    0  0.17515459049E+02 -0.55635994236E+02  0.41987322526E+02  0.71990018844E+02  0.41800000000E+01 0.  1.
         -5    1    3    3    0  502 -0.60218132926E+02  0.37397722211E+02  0.10237257476E+03  0.12458904295E+03  0.41800000000E+01 0.  1.
        -11    1    1    2    0    0  0.49388959947E+02  0.46158366070E+02  0.11433404604E+03  0.13282371101E+03  0.00000000000E+00 0. -1.
         11    1    1    2    0    0 -0.66862860705E+01 -0.27920094044E+02  0.24324690308E+02  0.37628827133E+02  0.00000000000E+00 0.  1.
</event>
<event>
 7    1  0.2943257E-009  0.8497379E+02  0.7561462E-02  0.1315501E+00
         -3   -1    0    0    0  501 -0.00000000000E+00  0.00000000000E+00  0.42679244338E+03  0.42679244338E+03  0.00000000000E+00 0.  1.
          3   -1    0    0  501    0  0.00000000000E+00 -0.00000000000E+00 -0.28619505028E+02  0.28619505028E+02  0.00000000000E+00 0. -1.
         25    2    1    2    0    0  0.81982554217E-01  0.17989430112E+02  0.25636703160E+03  0.28582309600E+03  0.12508861260E+03 0.  0.
          5    1    3    3  502    0  0.12162250530E+02 -0.32670061337E+02  0.13852173892E+02  0.37743984518E+02  0.41800000000E+01 0.  1.
         -5    1    3    3    0  502 -0.12080267976E+02  0.50659491449E+02  0.24251485770E+03  0.24807911148E+03  0.41800000000E+01 0.  1.
        -11    1    1    2    0    0 -0.14701786336E+02 -0.47464015584E+02  0.12062767006E+03  0.13046076070E+03  0.00000000000E+00 0.  1.
         11    1    1    2    0    0  0.14619803782E+02  0.29474585473E+02  0.21178236700E+02  0.39128091713E+02  0.00000000000E+00 0. -1.
</event>
<event>
 7    1  0.2943257E-009  0.5594217E+02  0.7561462E-02  0.1415695E+00
         -2   -1    0    0    0  501 -0.00000000000E+00  0.00000000000E+00  0.31629576455E+03  0.31629576455E+03  0.00000000000E+00 0.  1.
          2   -1    0    0  501    0  0.00000000000E+00 -0.00000000000E+00 -0.43567108734E+02  0.43567108734E+02  0.00000000000E+00 0. -1.
         25    2    1    2    0    0  0.11687151840E+02  0.81013903127E+01  0.21873349156E+03  0.25237654121E+03  0.12508939277E+03 0.  0.
          5    1    3    3  502    0  0.66847722133E+01  0.17515229074E+02 -0.11148994494E+02  0.22209050121E+02  0.41800000000E+01 0.  1.
         -5    1    3    3    0  502  0.50023796268E+01 -0.94138387614E+01  0.22988248605E+03  0.23016749109E+03  0.41800000000E+01 0.  1.
        -11    1    1    2    0    0 -0.98027041747E+01  0.35884647928E+02  0.51312858202E+02  0.63378311613E+02  0.00000000000E+00 0.  1.
         11    1    1    2    0    0 -0.18844476654E+01 -0.43986038241E+02  0.26823060592E+01  0.44108020460E+02  0.00000000000E+00 0. -1.
</event>
<event>
 7    1  0.2943257E-009  0.8499089E+02  0.7561462E-02  0.1315456E+00
         -4   -1    0    0    0  501 -0.00000000000E+00  0.00000000000E+00  0.27690668991E+02  0.27690668991E+02  0.00000000000E+00 0.  1.
          4   -1    0    0  501    0  0.00000000000E+00 -0.00000000000E+00 -0.45117722923E+03  0.45117722923E+03  0.00000000000E+00 0. -1.
         25    2    1    2    0    0 -0.19769348346E+02 -0.16683695353E+02 -0.24179433303E+03  0.27346127212E+03  0.12508954809E+03 0.  0.
          5    1    3    3  502    0 -0.35214829449E+02 -0.50736577490E+02 -0.54653995026E+02  0.82576122946E+02  0.41800000000E+01 0. -1.
         -5    1    3    3    0  502  0.15445481103E+02  0.34052882137E+02 -0.18714033800E+03  0.19088514918E+03  0.41800000000E+01 0. -1.
        -11    1    1    2    0    0  0.14406679995E+02  0.42091175668E+02 -0.35472948746E+02  0.56899469157E+02  0.00000000000E+00 0.  1.
         11    1    1    2    0    0  0.53626683514E+01 -0.25407480315E+02 -0.14621927847E+03  0.14850715694E+03  0.00000000000E+00 0. -1.
</event>
<event>
 7    1  0.2943257E-009  0.1183127E+03  0.7561462E-02  0.1245907E+00
         -2   -1    0    0    0  501 -0.00000000000E+00  0.00000000000E+00  0.43195121368E+02  0.43195121368E+02  0.00000000000E+00 0.  1.
          2   -1    0    0  501    0  0.00000000000E+00 -0.00000000000E+00 -0.37091574509E+03  0.37091574509E+03  0.00000000000E+00 0. -1.
         25    2    1    2    0    0 -0.58413853208E+02  0.17746848300E+02 -0.21329412388E+03  0.25469420166E+03  0.12509046410E+03 0.  0.
          5    1    3    3  502    0 -0.60195827212E+02  0.58858145883E+02 -0.84227207917E+02  0.11916171325E+03  0.41800000000E+01 0. -1.
         -5    1    3    3    0  502  0.17819740041E+01 -0.41111297583E+02 -0.12906691596E+03  0.13553248841E+03  0.41800000000E+01 0. -1.
        -11    1    1    2    0    0  0.30638296274E+01  0.34631296150E+02 -0.37452081475E+02  0.51101586392E+02  0.00000000000E+00 0. -1.
         11    1    1    2    0    0  0.55350023581E+02 -0.52378144450E+02 -0.76974418371E+02  0.10831507841E+03  0.00000000000E+00 0.  1.
</event>
<event>
 7    1  0.2943257E-009  0.1030809E+03  0.7561462E-02  0.1273947E+00
          1   -1    0    0  501    0  0.00000000000E+00  0.00000000000E+00  0.77793696629E+02  0.77793696629E+02  0.00000000000E+00 0. -1.
         -1   -1    0    0    0  501 -0.00000000000E+00 -0.00000000000E+00 -0.18044778469E+03  0.18044778469E+03  0.00000000000E+00 0.  1.
         25    2    1    2    0    0 -0.98575656258E+01 -0.25701780157E+02 -0.20578849764E+02  0.12972551466E+03  0.12508983569E+03 0.  0.
          5    1    3    3  502    0 -0.25867783155E+02  0.45699790094E+02  0.29113369734E+01  0.52759466478E+02  0.41800000000E+01 0. -1.
         -5    1    3    3    0  502  0.16010217530E+02 -0.71401570251E+02 -0.23490186738E+02  0.76966048181E+02  0.41800000000E+01 0. -1.
        -11    1    1    2    0    0  0.27535857844E+02 -0.18101478075E+02 -0.73443875864E+02  0.80497763184E+02  0.00000000000E+00 0.  1.
         11    1    1    2    0    0 -0.17678292219E+02  0.43803258231E+02 -0.86313624302E+01  0.48018203474E+02  0.00000000000E+00 0. -1.
</event>
<event>
 7    1  0.2943257E-009  0.1028312E+03  0.7561462E-02  0.1274452E+00
         -1   -1    0    0    0  501 -0.00000000000E+00  0.00000000000E+00  0.37763604871E+03  0.37763604871E+03  0.00000000000E+00 0.  1.
          1   -1    0    0  501    0  0.00000000000E+00 -0.00000000000E+00 -0.35581684221E+02  0.35581684221E+02  0.00000000000E+00 0. -1.
         25    2    1    2    0    0 -0.34343512892E+02  0.20585303048E+01  0.23999424213E+03  0.27281557152E+03  0.12508950949E+03 0.  0.
          5    1    3    3  502    0  0.29235840264E+02 -0.28809176632E+02  0.16332999947E+03  0.16846027466E+03  0.41800000000E+01 0. -1.
         -5    1    3    3    0  502 -0.63579353156E+02  0.30867706937E+02  0.76664242666E+02  0.10435529686E+03  0.41800000000E+01 0. -1.
        -11    1    1    2    0    0  0.55603927813E+02  0.23494798110E+02  0.81120437003E+02  0.10111541735E+03  0.00000000000E+00 0. -1.
         11    1    1    2    0    0 -0.21260414921E+02 -0.25553328415E+02  0.20939685353E+02  0.39286744055E+02  0.00000000000E+00 0.  1.
</event>
<event>
 7    1  0.2943257E-009  0.1531008E+03  0.7561462E-02  0.1196714E+00
         -1   -1    0    0    0  501 -0.00000000000E+00  0.00000000000E+00  0.12679350154E+03  0.12679350154E+03  0.00000000000E+00 0.  1.
          1   -1    0    0  501    0  0.00000000000E+00 -0.00000000000E+00 -0.23487297277E+03  0.23487297277E+03  0.00000000000E+00 0. -1.
         25    2    1    2    0    0 -0.26869380059E+02 -0.13098594769E+03 -0.56169561685E+02  0.19152373834E+03  0.12508813138E+03 0.  0.
          5    1    3    3  502    0 -0.49523553626E+02 -0.12582300988E+03 -0.80662611632E+02  0.15750536973E+03  0.41800000000E+01 0. -1.
         -5    1    3    3    0  502  0.22654173568E+02 -0.51629378047E+01  0.24493049947E+02  0.34018368605E+02  0.41800000000E+01 0. -1.
        -11    1    1    2    0    0  0.38683837111E+02  0.40312637588E+02  0.13789911960E+02  0.57547455850E+02  0.00000000000E+00 0. -1.
         11    1    1    2    0    0 -0.11814457052E+02  0.90673310099E+02 -0.65699821507E+02  0.11259528012E+03  0.00000000000E+00 0.  1.
</event>
<event>
 7    1  0.2943257E-009  0.8299219E+02  0.7561462E-02  0.1320768E+00
         -1   -1    0    0    0  501 -0.00000000000E+00  0.00000000000E+00  0.96201894446E+02  0.96201894446E+02  0.00000000000E+00 0.  1.
          1   -1    0    0  501    0  0.00000000000E+00 -0.00000000000E+00 -0.17360091004E+03  0.17360091004E+03  0.00000000000E+00 0. -1.
         25    2    1    2    0    0  0.17546276530E+02 -0.16684186950E+02  0.25742985578E+02  0.12998982139E+03  0.12509363871E+03 0.  0.
          5    1    3    3  502    0  0.32726457865E+02  0.45784619448E+02 -0.84385935907E+01  0.57060798139E+02  0.41800000000E+01 0.  1.
         -5    1    3    3    0  502 -0.15180181335E+02 -0.62468806398E+02  0.34181579168E+02  0.72929023253E+02  0.41800000000E+01 0.  1.
        -11    1    1    2    0    0  0.80012618510E+01  0.17842808642E+02 -0.11127263853E+03  0.11297781241E+03  0.00000000000E+00 0. -1.
         11    1    1    2    0    0 -0.25547538381E+02 -0.11586216923E+01  0.81306373619E+01  0.26835170681E+02  0.00000000000E+00 0.  1.
</event>
<event>
 7    1  0.2943257E-009  0.1429983E+03  0.7561462E-02  0.1209350E+00
          3   -1    0    0  501    0  0.00000000000E+00  0.00000000000E+00  0.16575077968E+03  0.16575077968E+03  0.00000000000E+00 0. -1.
         -3   -1    0    0    0  501 -0.00000000000E+00 -0.00000000000E+00 -0.15450613722E+03  0.15450613722E+03  0.00000000000E+00 0.  1.
         25    2    1    2    0    0  0.54799834402E+01  0.11339038224E+03  0.29561660901E+02  0.17149028236E+03  0.12509043186E+03 0.  0.
          5    1    3    3  502    0 -0.50665536289E+02  0.31484336471E+02 -0.16373511854E+02  0.61998583056E+02  0.41800000000E+01 0. -1.
         -5    1    3    3    0  502  0.56145519730E+02  0.81906045773E+02  0.45935172755E+02  0.10949169930E+03  0.41800000000E+01 0. -1.
        -11    1    1    2    0    0 -0.29666666263E+02 -0.81863852118E+02  0.24398073514E+02  0.90427138415E+02  0.00000000000E+00 0. -1.
         11    1    1    2    0    0  0.24186682823E+02 -0.31526530126E+02 -0.42715091955E+02  0.58339496128E+02  0.00000000000E+00 0.  1.
</event>
<event>
 7    1  0.2943257E-009  0.1096916E+03  0.7561462E-02  0.1261142E+00
         -2   -1    0    0    0  501 -0.00000000000E+00  0.00000000000E+00  0.48453890698E+03  0.48453890698E+03  0.00000000000E+00 0.  1.
          2   -1    0    0  501    0  0.00000000000E+00 -0.00000000000E+00 -0.30398367739E+02  0.30398367739E+02  0.00000000000E+00 0. -1.
         25    2    1    2    0    0  0.43607328787E+02 -0.23098014120E+02  0.29965356996E+03  0.32844370415E+03  0.12509151620E+03 0.  0.
          5    1    3    3  502    0  0.81377397076E+02 -0.40347165587E+02  0.22891919440E+03  0.24631614744E+03  0.41800000000E+01 0.  1.
         -5    1    3    3    0  502 -0.37770068289E+02  0.17249151467E+02  0.70734375563E+02  0.82127556710E+02  0.41800000000E+01 0.  1.
        -11    1    1    2    0    0 -0.47639063304E+02 -0.13807213381E+02  0.13651743953E+03  0.14524851390E+03  0.00000000000E+00 0.  1.
         11    1    1    2    0    0  0.40317345171E+01  0.36905227501E+02  0.17969529744E+02  0.41245056666E+02  0.00000000000E+00 0. -1.
</event>
<event>
 7    1  0.2943257E-009  0.2238270E+03  0.7561462E-02  0.1131062E+00
         -2   -1    0    0    0  501 -0.00000000000E+00  0.00000000000E+00  0.35330021152E+02  0.35330021152E+02  0.00000000000E+00 0.  1.
          2   -1    0    0  501    0  0.00000000000E+00 -0.00000000000E+00 -0.18059801755E+04  0.18059801755E+04  0.00000000000E+00 0. -1.
         25    2    1    2    0    0 -0.16442166373E+03 -0.14533900124E+03 -0.11306491440E+04  0.11585215053E+04  0.12508670126E+03 0.  0.
          5    1    3    3  502    0 -0.52324414533E+02 -0.12220541237E+02 -0.54196402463E+03  0.54463718417E+03  0.41800000000E+01 0.  1.
         -5    1    3    3    0  502 -0.11209724919E+03 -0.13311846000E+03 -0.58868511932E+03  0.61388432117E+03  0.41800000000E+01 0.  1.
        -11    1    1    2    0    0  0.57590288925E+02  0.44589884436E+02 -0.10353097415E+03  0.12658420826E+03  0.00000000000E+00 0. -1.
         11    1    1    2    0    0  0.10683137480E+03  0.10074911680E+03 -0.53647003627E+03  0.55620448308E+03  0.00000000000E+00 0.  1.
</event>
<event>
 7    1  0.2943257E-009  0.1354135E+03  0.7561462E-02  0.1219637E+00
         -2   -1    0    0    0  501 -0.00000000000E+00  0.00000000000E+00  0.10903128307E+03  0.10903128307E+03  0.00000000000E+00 0.  1.
          2   -1    0    0  501    0  0.00000000000E+00 -0.00000000000E+00 -0.18223395381E+03  0.18223395381E+03  0.00000000000E+00 0. -1.
         25    2    1    2    0    0  0.81063977214E+02 -0.39866100474E+02 -0.33600762886E+02  0.15793793300E+03  0.12511876376E+03 0.  0.
          5    1    3    3  502    0 -0.25860740999E+02  0.65734797691E+01 -0.31197217279E+02  0.41264116703E+02  0.41800000000E+01 0. -1.
         -5    1    3    3    0  502  0.10692471821E+03 -0.46439580243E+02 -0.24035456066E+01  0.11667381630E+03  0.41800000000E+01 0. -1.
        -11    1    1    2    0    0 -0.30007324128E+02  0.64008027614E+02 -0.18896430801E+02  0.73174737426E+02  0.00000000000E+00 0.  1.
         11    1    1    2    0    0 -0.51056653086E+02 -0.24141927140E+02 -0.20705477060E+02  0.60152566451E+02  0.00000000000E+00 0. -1.
</event>
<event>
 7    1  0.2943257E-009  0.1179158E+03  0.7561462E-02  0.1246575E+00
         -1   -1    0    0    0  501 -0.00000000000E+00  0.00000000000E+00  0.15454456638E+03  0.15454456638E+03  0.00000000000E+00 0.  1.
          1   -1    0    0  501    0  0.00000000000E+00 -0.00000000000E+00 -0.10916230210E+03  0.10916230210E+03  0.00000000000E+00 0. -1.
         25    2    1    2    0    0 -0.30815936660E+02  0.63580693372E+02  0.14508005188E+02  0.14439633072E+03  0.12509073343E+03 0.  0.
          5    1    3    3  502    0 -0.29612690981E+00  0.83697678306E+02  0.46326005632E+02  0.95754687837E+02  0.41800000000E+01 0.  1.
         -5    1    3    3    0  502 -0.30519809751E+02 -0.20116984933E+02 -0.31818000445E+02  0.48641642883E+02  0.41800000000E+01 0.  1.
        -11    1    1    2    0    0  0.63455303645E+02 -0.42964800981E+02  0.21238041026E+02  0.79521091986E+02  0.00000000000E+00 0.  1.
         11    1    1    2    0    0 -0.32639366985E+02 -0.20615892391E+02  0.96362180664E+01  0.39789445772E+02  0.00000000000E+00 0. -1.
</event>
<event>
 7    1  0.2943257E-009  0.1394919E+03  0.7561462E-02  0.1214014E+00
         -1   -1    0    0    0  501 -0.00000000000E+00  0.00000000000E+00  0.26422004920E+02  0.26422004920E+02  0.00000000000E+00 0.  1.
          1   -1    0    0  501    0  0.00000000000E+00 -0.00000000000E+00 -0.86136621502E+03  0.86136621502E+03  0.00000000000E+00 0. -1.
         25    2    1    2    0    0  0.18105769934E+02  0.10239928757E+03 -0.50488632033E+03  0.53044483376E+03  0.12509233472E+03 0.  0.
          5    1    3    3  502    0 -0.47561666440E+02  0.49810875815E+02 -0.31881124826E+03  0.32619215178E+03  0.41800000000E+01 0.  1.
         -5    1    3    3    0  502  0.65667436374E+02  0.52588411755E+02 -0.18607507207E+03  0.20425268199E+03  0.41800000000E+01 0.  1.
        -11    1    1    2    0    0  0.25591512451E+02 -0.58304655227E+02 -0.96031512863E+02  0.11522330404E+03  0.00000000000E+00 0. -1.
         11    1    1    2    0    0 -0.43697282386E+02 -0.44094632342E+02 -0.23402637690E+03  0.24212008214E+03  0.00000000000E+00 0.  1.
</event>
<event>
 7    1  0.2943257E-009  0.1088456E+03  0.7561462E-02  0.1262723E+00
         -2   -1    0    0    0  501 -0.00000000000E+00  0.00000000000E+00  0.64688338205E+02  0.64688338205E+02  0.00000000000E+00 0. -1.
          2   -1    0    0  501    0  0.00000000000E+00 -0.00000000000E+00 -0.36925668480E+03  0.36925668480E+03  0.00000000000E+00 0.  1.
         25    2    1    2    0    0 -0.10821966251E+03  0.22183295738E+01 -0.18079863671E+03  0.24505532595E+03  0.12509016508E+03 0.  0.
          5    1    3    3  502    0 -0.50194414584E+02 -0.57916194283E+01 -0.17928018966E+03  0.18631124742E+03  0.41800000000E+01 0.  1.
         -5    1    3    3    0  502 -0.58025247928E+02  0.80099490020E+01 -0.15184470417E+01  0.58744078523E+02  0.41800000000E+01 0.  1.
        -11    1    1    2    0    0  0.25590396982E+02 -0.14998676828E+01  0.13269487312E+02  0.28865157444E+02  0.00000000000E+00 0. -1.
         11    1    1    2    0    0  0.82629265529E+02 -0.71846189101E+00 -0.13703919720E+03  0.16002453962E+03  0.00000000000E+00 0.  1.
</event>
<event>
 7    1  0.2943257E-009  0.9419947E+02  0.7561462E-02  0.1292989E+00
          2   -1    0    0  501    0  0.00000000000E+00  0.00000000000E+00  0.19040822199E+03  0.19040822199E+03  0.00000000000E+00 0. -1.
         -2   -1    0    0    0  501 -0.00000000000E+00 -0.00000000000E+00 -0.84891073649E+02  0.84891073649E+02  0.00000000000E+00 0.  1.
         25    2    1    2    0    0  0.70083437006E+01 -0.14061179528E+02 -0.81466653706E+01  0.12633685832E+03  0.12509116661E+03 0.  0.
          5    1    3    3  502    0 -0.38327748505E+02  0.11070869516E+02  0.39142724921E+02  0.56046460830E+02  0.41800000000E+01 0.  1.
         -5    1    3    3    0  502  0.45336092206E+02 -0.25132049044E+02 -0.47289390291E+02  0.70290397493E+02  0.41800000000E+01 0.  1.
        -11    1    1    2    0    0 -0.59819377673E+00  0.54919860919E+02  0.64492938064E+02  0.84710613381E+02  0.00000000000E+00 0.  1.
         11    1    1    2    0    0 -0.64101499238E+01 -0.40858681392E+02  0.49170875649E+02  0.64251823937E+02  0.00000000000E+00 0. -1.
</event>
<event>
 7    1  0.2943257E-009  0.9687809E+02  0.7561462E-02  0.1287001E+00
          1   -1    0    0  501    0  0.00000000000E+00  0.00000000000E+00  0.69419561495E+03  0.69419561495E+03  0.00000000000E+00 0. -1.
         -1   -1    0    0    0  501 -0.00000000000E+00 -0.00000000000E+00 -0.14012964690E+02  0.14012964690E+02  0.00000000000E+00 0.  1.
         25    2    1    2    0    0 -0.97537349756E+01  0.29526745752E+02  0.38847643373E+03  0.40930292595E+03  0.12509189249E+03 0.  0.
          5    1    3    3  502    0  0.34977067879E+02 -0.35400830905E+02  0.15188871766E+03  0.15988830182E+03  0.41800000000E+01 0. -1.
         -5    1    3    3    0  502 -0.44730802854E+02  0.64927576657E+02  0.23658771607E+03  0.24941462413E+03  0.41800000000E+01 0. -1.
        -11    1    1    2    0    0  0.30123399460E+02 -0.14310767019E+01  0.15111517572E+03  0.15409498210E+03  0.00000000000E+00 0.  1.
         11    1    1    2    0    0 -0.20369664484E+02 -0.28095669050E+02  0.14059104081E+03  0.14481067159E+03  0.00000000000E+00 0. -1.
</event>
<event>
 7    1  0.2943257E-009  0.1055732E+03  0.7561462E-02  0.1268994E+00
         -1   -1    0    0    0  501 -0.00000000000E+00  0.00000000000E+00  0.25873615560E+02  0.25873615560E+02  0.00000000000E+00 0.  1.
          1   -1    0    0  501    0  0.00000000000E+00 -0.00000000000E+00 -0.60372511761E+03  0.60372511761E+03  0.00000000000E+00 0. -1.
         25    2    1    2    0    0  0.63377096518E+02 -0.10206551042E+02 -0.31945689332E+03  0.34902905179E+03  0.12509093595E+03 0.  0.
          5    1    3    3  502    0 -0.32695832301E+02  0.23270779383E+01 -0.15171360628E+03  0.15527048487E+03  0.41800000000E+01 0. -1.
         -5    1    3    3    0  502  0.96072928819E+02 -0.12533628980E+02 -0.16774328704E+03  0.19375856692E+03  0.41800000000E+01 0. -1.
        -11    1    1    2    0    0 -0.76317289643E+01 -0.17339976976E+02 -0.49113857470E+01  0.19571402568E+02  0.00000000000E+00 0.  1.
         11    1    1    2    0    0 -0.55745367553E+02  0.27546528018E+02 -0.25348322298E+03  0.26099827881E+03  0.00000000000E+00 0. -1.
</event>
<event>
 7    1  0.2943257E-009  0.1068550E+03  0.7561462E-02  0.1266507E+00
         -2   -1    0    0    0  501 -0.00000000000E+00  0.00000000000E+00  0.12498793764E+03  0.12498793764E+03  0.00000000000E+00 0.  1.
          2   -1    0    0  501    0  0.00000000000E+00 -0.00000000000E+00 -0.16298257196E+03  0.16298257196E+03  0.00000000000E+00 0. -1.
         25    2    1    2    0    0 -0.43961279989E+02 -0.20088186709E+02  0.58908046161E+02  0.14647169656E+03  0.12509064956E+03 0.  0.
          5    1    3    3  502    0  0.15495293126E+02 -0.59844566207E+02  0.21041436281E+02  0.65434628863E+02  0.41800000000E+01 0. -1.
         -5    1    3    3    0  502 -0.59456573115E+02  0.39756379498E+02  0.37866609880E+02  0.81037067699E+02  0.41800000000E+01 0. -1.
        -11    1    1    2    0    0 -0.15324914087E+02  0.13555717076E+02  0.70581103710E+01  0.21643183205E+02  0.00000000000E+00 0.  1.
         11    1    1    2    0    0  0.59286194076E+02  0.65324696334E+01 -0.10396079086E+03  0.11985562983E+03  0.00000000000E+00 0. -1.
</event>
<event>
 7    1  0.2943257E-009  0.1051274E+03  0.7561462E-02  0.1269869E+00
          4   -1    0    0  501    0  0.00000000000E+00  0.00000000000E+00  0.13861990118E+03  0.13861990118E+03  0.00000000000E+00 0. -1.
         -4   -1    0    0    0  501 -0.00000000000E+00 -0.00000000000E+00 -0.11445694767E+03  0.11445694767E+03  0.00000000000E+00 0.  1.
         25    2    1    2    0    0 -0.14873936554E+02 -0.59232110806E+02  0.18766719082E+02  0.14046527329E+03  0.12509446956E+03 0.  0.
          5    1    3    3  502    0  0.42049731412E+02 -0.67224399113E+01 -0.26823893859E+02  0.50501136541E+02  0.41800000000E+01 0.  1.
         -5    1    3    3    0  502 -0.56923667966E+02 -0.52509670895E+02  0.45590612941E+02  0.89964136747E+02  0.41800000000E+01 0.  1.
        -11    1    1    2    0    0 -0.24827038118E+02  0.10251987558E+02 -0.30030945835E+02  0.40290728193E+02  0.00000000000E+00 0.  1.
         11    1    1    2    0    0  0.39700974672E+02  0.48980123248E+02  0.35427180255E+02  0.72320847369E+02  0.00000000000E+00 0. -1.
</event>
<event>
 7    1  0.2943257E-009  0.1495748E+03  0.7561462E-02  0.1200996E+00
          2   -1    0    0  501    0  0.00000000000E+00  0.00000000000E+00  0.15750138138E+04  0.15750138138E+04  0.00000000000E+00 0. -1.
         -2   -1    0    0    0  501 -0.00000000000E+00 -0.00000000000E+00 -0.19818503178E+02  0.19818503178E+02  0.00000000000E+00 0.  1.
         25    2    1    2    0    0 -0.11912696473E+03  0.74359967602E+00  0.11992631806E+04  0.12116398840E+04  0.12508895039E+03 0.  0.
          5    1    3    3  502    0 -0.52058945117E+02  0.59448736642E+02  0.70078043722E+03  0.70523398928E+03  0.41800000000E+01 0.  1.
         -5    1    3    3    0  502 -0.67068019616E+02 -0.58705136966E+02  0.49848274342E+03  0.50640589476E+03  0.41800000000E+01 0.  1.
        -11    1    1    2    0    0  0.65380058425E+02 -0.27285962351E+02  0.11632147938E+03  0.13619751226E+03  0.00000000000E+00 0. -1.
         11    1    1    2    0    0  0.53746906309E+02  0.26542362675E+02  0.23961065061E+03  0.24699492068E+03  0.00000000000E+00 0.  1.
</event>
<event>
 7    1  0.2943257E-009  0.1385120E+03  0.7561462E-02  0.1215345E+00
         -2   -1    0    0    0  501 -0.00000000000E+00  0.00000000000E+00  0.16997023276E+03  0.16997023276E+03  0.00000000000E+00 0.  1.
          2   -1    0    0  501    0  0.00000000000E+00 -0.00000000000E+00 -0.15133622361E+03  0.15133622361E+03  0.00000000000E+00 0. -1.
         25    2    1    2    0    0  0.12299669919E+02 -0.11427399124E+03  0.29936450480E+02  0.17249241293E+03  0.12509042528E+03 0.  0.
          5    1    3    3  502    0 -0.47004815339E+02 -0.67850068889E+02 -0.15991639551E+02  0.84180101264E+02  0.41800000000E+01 0. -1.
         -5    1    3    3    0  502  0.59304485258E+02 -0.46423922355E+02  0.45928090031E+02  0.88312311669E+02  0.41800000000E+01 0. -1.
        -11    1    1    2    0    0  0.93438589296E+01  0.56185427874E+02  0.38960514494E+02  0.69007475644E+02  0.00000000000E+00 0.  1.
         11    1    1    2    0    0 -0.21643528849E+02  0.58088563369E+02 -0.50262955822E+02  0.79806567795E+02  0.00000000000E+00 0. -1.
</event>
<event>
 7    1  0.2943257E-009  0.2283607E+03  0.7561462E-02  0.1127799E+00
         -1   -1    0    0    0  501 -0.00000000000E+00  0.00000000000E+00  0.45473310991E+03  0.45473310991E+03  0.00000000000E+00 0.  1.
          1   -1    0    0  501    0  0.00000000000E+00 -0.00000000000E+00 -0.16795411677E+03  0.16795411677E+03  0.00000000000E+00 0. -1.
         25    2    1    2    0    0  0.21386508621E+03  0.19372487642E+02 -0.57414928869E+01  0.24858596548E+03  0.12509376130E+03 0.  0.
          5    1    3    3  502    0  0.13979491628E+02 -0.15090903902E+02 -0.37754694538E+02  0.43197811593E+02  0.41800000000E+01 0. -1.
         -5    1    3    3    0  502  0.19988559458E+03  0.34463391544E+02  0.32013201651E+02  0.20538815389E+03  0.41800000000E+01 0. -1.
        -11    1    1    2    0    0 -0.19977359532E+03  0.10263002922E+02  0.25812703590E+03  0.32656451932E+03  0.00000000000E+00 0.  1.
         11    1    1    2    0    0 -0.14091490889E+02 -0.29635490563E+02  0.34393450127E+02  0.47536741874E+02  0.00000000000E+00 0. -1.
</event>
<event>
 6    1  0.2943257E-009  0.1012647E+03  0.7561462E-02  0.1277659E+00
         -3   -1    0    0    0  501 -0.00000000000E+00  0.00000000000E+00  0.38100457684E+02  0.38100457684E+02  0.00000000000E+00 0.  1.
          3   -1    0    0  501    0  0.00000000000E+00 -0.00000000000E+00 -0.39649825802E+03  0.39649825802E+03  0.00000000000E+00 0. -1.
          5    1    1    2  502    0  0.10751651567E+02  0.35924942279E+02 -0.13787565219E+03  0.14294532995E+03  0.41800000000E+01 0. -1.
         -5    1    1    2    0  502 -0.33202509011E+02 -0.79425819129E+02 -0.11858836059E+03  0.14659992844E+03  0.41800000000E+01 0. -1.
        -11    1    1    2    0    0 -0.17271041710E+02  0.33435452600E+02 -0.96673357639E+02  0.10373984986E+03  0.00000000000E+00 0. -1.
         11    1    1    2    0    0  0.39721899155E+02  0.10065424250E+02 -0.52604299146E+01  0.41313607452E+02  0.00000000000E+00 0.  1.
</event>
<event>
 7    1  0.2943257E-009  0.1015885E+03  0.7561462E-02  0.1276991E+00
          2   -1    0    0  501    0  0.00000000000E+00  0.00000000000E+00  0.41124220370E+03  0.41124220370E+03  0.00000000000E+00 0.  1.
         -2   -1    0    0    0  501 -0.00000000000E+00 -0.00000000000E+00 -0.41612758135E+02  0.41612758135E+02  0.00000000000E+00 0. -1.
         25    2    1    2    0    0 -0.64446160990E+02  0.25164887346E+02  0.16741640646E+03  0.22014106926E+03  0.12508900032E+03 0.  0.
          5    1    3    3  502    0  0.23489520095E+02 -0.19284913222E+02  0.89017999791E+02  0.94155945745E+02  0.41800000000E+01 0. -1.
         -5    1    3    3    0  502 -0.87935681085E+02  0.44449800568E+02  0.78398406665E+02  0.12598512351E+03  0.41800000000E+01 0. -1.
        -11    1    1    2    0    0  0.20870238796E+02 -0.21789991675E+02  0.18213332859E+03  0.18461560061E+03  0.00000000000E+00 0.  1.
         11    1    1    2    0    0  0.43575922194E+02 -0.33748956706E+01  0.20079710515E+02  0.48098291968E+02  0.00000000000E+00 0. -1.
</event>
<event>
 7    1  0.2943257E-009  0.1120210E+03  0.7561462E-02  0.1256872E+00
         -1   -1    0    0    0  501 -0.00000000000E+00  0.00000000000E+00  0.24064259743E+02  0.24064259743E+02  0.00000000000E+00 0.  1.
          1   -1    0    0  501    0  0.00000000000E+00 -0.00000000000E+00 -0.86429570721E+03  0.86429570721E+03  0.00000000000E+00 0. -1.
         25    2    1    2    0    0 -0.32822399327E+02  0.84548125051E+02 -0.56220658939E+03  0.58305214641E+03  0.12509141032E+03 0.  0.
          5    1    3    3  502    0  0.78532502690E+01  0.15796601703E+02 -0.32718573658E+01  0.18422367268E+02  0.41800000000E+01 0.  1.
         -5    1    3    3    0  502 -0.40675649596E+02  0.68751523348E+02 -0.55893473202E+03  0.56462977914E+03  0.41800000000E+01 0.  1.
        -11    1    1    2    0    0 -0.25454329830E+02 -0.54947258667E+02 -0.14302316607E+03  0.15531500306E+03  0.00000000000E+00 0.  1.
         11    1    1    2    0    0  0.58276729157E+02 -0.29600866383E+02 -0.13500169202E+03  0.14999281749E+03  0.00000000000E+00 0. -1.
</event>
<event>
 7    1  0.2943257E-009  0.8680392E+02  0.7561462E-02  0.1310781E+00
          1   -1    0    0  501    0  0.00000000000E+00  0.00000000000E+00  0.52427084056E+03  0.52427084056E+03  0.00000000000E+00 0. -1.
         -1   -1    0    0    0  501 -0.00000000000E+00 -0.00000000000E+00 -0.23671424285E+02  0.23671424285E+02  0.00000000000E+00 0.  1.
         25    2    1    2    0    0 -0.34657837293E+00  0.70438082383E+01  0.34706863249E+03  0.36898951942E+03  0.12508754707E+03 0.  0.
          5    1    3    3  502    0 -0.39104630047E+01  0.60510755959E+02  0.10776319857E+03  0.12372236125E+03  0.41800000000E+01 0.  1.
         -5    1    3    3    0  502  0.35638846318E+01 -0.53466947720E+02  0.23930543392E+03  0.24526715817E+03  0.41800000000E+01 0.  1.
        -11    1    1    2    0    0 -0.27112669155E+02  0.73282342739E+01  0.14372809765E+03  0.14644646087E+03  0.00000000000E+00 0. -1.
         11    1    1    2    0    0  0.27459247528E+02 -0.14372042512E+02  0.98026861445E+01  0.32506284568E+02  0.00000000000E+00 0.  1.
</event>
<event>
 7    1  0.2943257E-009  0.7896913E+02  0.7561462E-02  0.1332003E+00
         -1   -1    0    0    0  501 -0.00000000000E+00  0.00000000000E+00  0.85884661335E+02  0.85884661335E+02  0.00000000000E+00 0.  1.
          1   -1    0    0  501    0  0.00000000000E+00 -0.00000000000E+00 -0.22062679248E+03  0.22062679248E+03  0.00000000000E+00 0. -1.
         25    2    1    2    0    0 -0.48810988318E+02 -0.83230534149E+01  0.26416194998E+01  0.13455614575E+03  0.12508633981E+03 0.  0.
          5    1    3    3  502    0 -0.35847933888E+02 -0.35022098376E+02  0.54813067992E+02  0.74387946345E+02  0.41800000000E+01 0. -1.
         -5    1    3    3    0  502 -0.12963054430E+02  0.26699044961E+02 -0.52171448492E+02  0.60168199406E+02  0.41800000000E+01 0. -1.
        -11    1    1    2    0    0 -0.89980231568E+01 -0.13212623263E+02  0.50267859650E+01  0.16757279355E+02  0.00000000000E+00 0.  1.
         11    1    1    2    0    0  0.57809011475E+02  0.21535676678E+02 -0.14241053661E+03  0.15519802871E+03  0.00000000000E+00 0. -1.
</event>
<event>
 7    1  0.2943257E-009  0.5546365E+02  0.7561462E-02  0.1417919E+00
          1   -1    0    0  501    0  0.00000000000E+00  0.00000000000E+00  0.53111627762E+02  0.53111627762E+02  0.00000000000E+00 0. -1.
         -1   -1    0    0    0  501 -0.00000000000E+00 -0.00000000000E+00 -0.24486664686E+03  0.24486664686E+03  0.00000000000E+00 0.  1.
         25    2    1    2    0    0  0.28277367738E+02 -0.10757622800E+02 -0.14146060463E+03  0.19123895551E+03  0.12508356994E+03 0.  0.
          5    1    3    3  502    0  0.39419095110E+02 -0.26432944541E+02  0.77204196817E+00  0.47651170659E+02  0.41800000000E+01 0. -1.
         -5    1    3    3    0  502 -0.11141727372E+02  0.15675321741E+02 -0.14223264660E+03  0.14358778485E+03  0.41800000000E+01 0. -1.
        -11    1    1    2    0    0 -0.57362089783E+01  0.18810242834E+02  0.22633656343E+02  0.29983524282E+02  0.00000000000E+00 0. -1.
         11    1    1    2    0    0 -0.22541158760E+02 -0.80526200340E+01 -0.72928070810E+02  0.76755794828E+02  0.00000000000E+00 0.  1.
</event>
<event>
 6    1  0.2943257E-009  0.6600642E+02  0.7561462E-02  0.1374225E+00
         -1   -1    0    0    0  501 -0.00000000000E+00  0.00000000000E+00  0.80153070937E+02  0.80153070937E+02  0.00000000000E+00 0.  1.
          1   -1    0    0  501    0  0.00000000000E+00 -0.00000000000E+00 -0.17460274298E+03  0.17460274298E+03  0.00000000000E+00 0. -1.
          5    1    1    2  502    0 -0.15623043357E+02  0.10565122717E+01  0.37312354016E+02  0.40680214652E+02  0.41800000000E+01 0.  1.
         -5    1    1    2    0  502 -0.26775033946E+02  0.15525246492E+02 -0.10312405549E+03  0.10774961226E+03  0.41800000000E+01 0.  1.
        -11    1    1    2    0    0  0.25242669677E+01  0.26067048512E+02 -0.39050781192E+02  0.47019426343E+02  0.00000000000E+00 0. -1.
         11    1    1    2    0    0  0.39873810335E+02 -0.42648807276E+02  0.10412810623E+02  0.59306560664E+02  0.00000000000E+00 0.  1.
</event>
<event>
 7    1  0.2943257E-009  0.1216391E+03  0.7561462E-02  0.1240417E+00
         -3   -1    0    0    0  501 -0.00000000000E+00  0.00000000000E+00  0.26439601887E+03  0.26439601887E+03  0.00000000000E+00 0.  1.
          3   -1    0    0  501    0  0.00000000000E+00 -0.00000000000E+00 -0.63544739050E+02  0.63544739050E+02  0.00000000000E+00 0. -1.
         25    2    1    2    0    0  0.68508005767E+02  0.22386420598E+01  0.84711998272E+02  0.16590046778E+03  0.12509390148E+03 0.  0.
          5    1    3    3  502    0  0.20886879764E+02  0.58413349767E+02  0.64125979308E+02  0.89319621582E+02  0.41800000000E+01 0. -1.
         -5    1    3    3    0  502  0.47621126003E+02 -0.56174707708E+02  0.20586018964E+02  0.76580846199E+02  0.41800000000E+01 0. -1.
        -11    1    1    2    0    0 -0.59970802098E+02  0.34795885916E+02  0.97688075726E+02  0.11979236587E+03  0.00000000000E+00 0.  1.
         11    1    1    2    0    0 -0.85372036691E+01 -0.37034527975E+02  0.18451205820E+02  0.42247924269E+02  0.00000000000E+00 0. -1.
</event>
<event>
 7    1  0.2943257E-009  0.9790269E+02  0.7561462E-02  0.1284769E+00
          2   -1    0    0  501    0  0.00000000000E+00  0.00000000000E+00  0.79006076721E+02  0.79006076721E+02  0.00000000000E+00 0. -1.
         -2   -1    0    0    0  501 -0.00000000000E+00 -0.00000000000E+00 -0.21202153969E+03  0.21202153969E+03  0.00000000000E+00 0.  1.
         25    2    1    2    0    0 -0.55988460929E+02 -0.26878171144E+02 -0.10960886833E+03  0.17753313851E+03  0.12508703934E+03 0.  0.
          5    1    3    3  502    0 -0.11347053744E+02 -0.54254975753E+02 -0.11190371635E+03  0.12494907825E+03  0.41800000000E+01 0. -1.
         -5    1    3    3    0  502 -0.44641407185E+02  0.27376804609E+02  0.22948480207E+01  0.52584060261E+02  0.41800000000E+01 0. -1.
        -11    1    1    2    0    0 -0.53038022066E+01  0.25845629740E+02 -0.41855643302E+02  0.49477487514E+02  0.00000000000E+00 0.  1.
         11    1    1    2    0    0  0.61292263136E+02  0.10325414037E+01  0.18449048659E+02  0.64016990389E+02  0.00000000000E+00 0. -1.
</event>
<event>
 7    1  0.2943257E-009  0.1544131E+03  0.7561462E-02  0.1195153E+00
         -1   -1    0    0    0  501 -0.00000000000E+00  0.00000000000E+00  0.58879006254E+02  0.58879006254E+02  0.00000000000E+00 0.  1.
          1   -1    0    0  501    0  0.00000000000E+00 -0.00000000000E+00 -0.80811282882E+03  0.80811282882E+03  0.00000000000E+00 0. -1.
         25    2    1    2    0    0  0.46961273208E+02 -0.13644957816E+03 -0.63550587816E+03  0.66358020460E+03  0.12508844153E+03 0.  0.
          5    1    3    3  502    0 -0.10608347467E+02 -0.17799310736E+02 -0.33152561130E+03  0.33219881975E+03  0.41800000000E+01 0.  1.
         -5    1    3    3    0  502  0.57569620676E+02 -0.11865026742E+03 -0.30398026686E+03  0.33138138485E+03  0.41800000000E+01 0.  1.
        -11    1    1    2    0    0 -0.49098825938E+02  0.52932379722E+02 -0.14398932126E+02  0.73619703734E+02  0.00000000000E+00 0. -1.
         11    1    1    2    0    0  0.21375527295E+01  0.83517198435E+02 -0.99329012282E+02  0.12979192674E+03  0.00000000000E+00 0.  1.
</event>
<event>
 7    1  0.2943257E-009  0.1006533E+03  0.7561462E-02  0.1278928E+00
         -2   -1    0    0    0  501 -0.00000000000E+00  0.00000000000E+00  0.18232897263E+03  0.18232897263E+03  0.00000000000E+00 0.  1.
          2   -1    0    0  501    0  0.00000000000E+00 -0.00000000000E+00 -0.94104839949E+02  0.94104839949E+02  0.00000000000E+00 0. -1.
         25    2    1    2    0    0 -0.52918956470E+02 -0.30908272334E+02  0.83392542239E+02  0.16235116004E+03  0.12509134987E+03 0.  0.
          5    1    3    3  502    0  0.32809549998E+02  0.20307201074E+02  0.17073350801E+02  0.42400715726E+02  0.41800000000E+01 0. -1.
         -5    1    3    3    0  502 -0.85728506468E+02 -0.51215473407E+02  0.66319191438E+02  0.11995044431E+03  0.41800000000E+01 0. -1.
        -11    1    1    2    0    0  0.33205579761E+02  0.12221934914E+02  0.50073272471E+02  0.61313284338E+02  0.00000000000E+00 0.  1.
         11    1    1    2    0    0  0.19713376709E+02  0.18686337419E+02 -0.45241682031E+02  0.52769368202E+02  0.00000000000E+00 0. -1.
</event>
<event>
 7    1  0.2943257E-009  0.3418992E+03  0.7561462E-02  0.1065990E+00
          1   -1    0    0  501    0  0.00000000000E+00  0.00000000000E+00  0.91118966373E+03  0.91118966373E+03  0.00000000000E+00 0. -1.
         -1   -1    0    0    0  501 -0.00000000000E+00 -0.00000000000E+00 -0.15044974737E+03  0.15044974737E+03  0.00000000000E+00 0.  1.
         25    2    1    2    0    0  0.11056566441E+03  0.31005072166E+03  0.57053944165E+03  0.67046393334E+03  0.12510161982E+03 0.  0.
          5    1    3    3  502    0  0.13826527525E+03  0.24600740547E+03  0.45500191203E+03  0.53542613145E+03  0.41800000000E+01 0.  1.
         -5    1    3    3    0  502 -0.27699610837E+02  0.64043316180E+02  0.11553752962E+03  0.13503780189E+03  0.41800000000E+01 0.  1.
        -11    1    1    2    0    0 -0.68167543427E+02 -0.24260657297E+03  0.18249129765E+03  0.31113957791E+03  0.00000000000E+00 0. -1.
         11    1    1    2    0    0 -0.42398120985E+02 -0.67444148684E+02  0.77091770558E+01  0.80035899855E+02  0.00000000000E+00 0.  1.
</event>
<event>
 7    1  0.2943257E-009  0.8663135E+02  0.7561462E-02  0.1311221E+00
          2   -1    0    0  501    0  0.00000000000E+00  0.00000000000E+00  0.15254098194E+03  0.15254098194E+03  0.00000000000E+00 0. -1.
         -2   -1    0    0    0  501 -0.00000000000E+00 -0.00000000000E+00 -0.78062233316E+02  0.78062233316E+02  0.00000000000E+00 0.  1.
         25    2    1    2    0    0 -0.14214191075E+02 -0.71500291023E+01  0.42283711605E+02  0.13300232929E+03  0.12509412930E+03 0.  0.
          5    1    3    3  502    0 -0.21760814792E+02  0.57113760687E+02  0.20620840167E+02  0.64639045239E+02  0.41800000000E+01 0.  1.
         -5    1    3    3    0  502  0.75466237169E+01 -0.64263789789E+02  0.21662871439E+02  0.68363284053E+02  0.41800000000E+01 0.  1.
        -11    1    1    2    0    0 -0.22111159687E+00  0.24550838288E+02 -0.25642659011E+02  0.35501246628E+02  0.00000000000E+00 0.  1.
         11    1    1    2    0    0  0.14435302672E+02 -0.17400809186E+02  0.57837696030E+02  0.62099639335E+02  0.00000000000E+00 0. -1.
</event>
<event>
 7    1  0.2943257E-009  0.1160558E+03  0.7561462E-02  0.1249749E+00
          1   -1    0    0  501    0  0.00000000000E+00  0.00000000000E+00  0.10164137969E+03  0.10164137969E+03  0.00000000000E+00 0. -1.
         -1   -1    0    0    0  501 -0.00000000000E+00 -0.00000000000E+00 -0.17883882017E+03  0.17883882017E+03  0.00000000000E+00 0.  1.
         25    2    1    2    0    0  0.53164053970E+02 -0.54533953110E+02 -0.68439293685E+02  0.16165442418E+03  0.12509135566E+03 0.  0.
          5    1    3    3  502    0  0.32829256949E+02 -0.77220277050E+02  0.28016855061E+01  0.84059818826E+02  0.41800000000E+01 0.  1.
         -5    1    3    3    0  502  0.20334797021E+02  0.22686323940E+02 -0.71240979191E+02  0.77594605353E+02  0.41800000000E+01 0.  1.
        -11    1    1    2    0    0 -0.76800698195E+02  0.53668727363E+02 -0.13618290876E+02  0.94679128568E+02  0.00000000000E+00 0.  1.
         11    1    1    2    0    0  0.23636644225E+02  0.86522574656E+00  0.48601440812E+01  0.24146647103E+02  0.00000000000E+00 0. -1.
</event>
<event>
 7    1  0.2943257E-009  0.1681243E+03  0.7561462E-02  0.1179818E+00
          1   -1    0    0  501    0  0.00000000000E+00  0.00000000000E+00  0.96086494972E+02  0.96086494972E+02  0.00000000000E+00 0. -1.
         -1   -1    0    0    0  501 -0.00000000000E+00 -0.00000000000E+00 -0.53703525190E+03  0.53703525190E+03  0.00000000000E+00 0.  1.
         25    2    1    2    0    0 -0.14338409115E+03  0.32350456105E+02 -0.41561165020E+03  0.45824201943E+03  0.12508858855E+03 0.  0.
          5    1    3    3  502    0 -0.41668272269E+02 -0.30668854305E+02 -0.44753215381E+02  0.68535729552E+02  0.41800000000E+01 0.  1.
         -5    1    3    3    0  502 -0.10171581888E+03  0.63019310410E+02 -0.37085843482E+03  0.38970628988E+03  0.41800000000E+01 0.  1.
        -11    1    1    2    0    0  0.57071362144E+02 -0.50737209691E+02  0.15042175978E+02  0.77831047034E+02  0.00000000000E+00 0. -1.
         11    1    1    2    0    0  0.86312729009E+02  0.18386753586E+02 -0.40379282704E+02  0.97048680403E+02  0.00000000000E+00 0.  1.
</event>
<event>
 7    1  0.2943257E-009  0.1333453E+03  0.7561462E-02  0.1222575E+00
         -1   -1    0    0    0  501 -0.00000000000E+00  0.00000000000E+00  0.15777128863E+03  0.15777128863E+03  0.00000000000E+00 0. -1.
          1   -1    0    0  501    0  0.00000000000E+00 -0.00000000000E+00 -0.15680493772E+03  0.15680493772E+03  0.00000000000E+00 0.  1.
         25    2    1    2    0    0 -0.66016032233E+02  0.82851560281E+02 -0.35542929150E+02  0.16772994491E+03  0.12509011574E+03 0.  0.
          5    1    3    3  502    0 -0.85253588251E+02  0.51033071513E+02 -0.66107982135E+02  0.11941644108E+03  0.41800000000E+01 0.  1.
         -5    1    3    3    0  502  0.19237556018E+02  0.31818488768E+02  0.30565052985E+02  0.48313503837E+02  0.41800000000E+01 0.  1.
        -11    1    1    2    0    0 -0.16880467362E+02 -0.16994739032E+02  0.33178353199E+02  0.40921564659E+02  0.00000000000E+00 0. -1.
         11    1    1    2    0    0  0.82896499595E+02 -0.65856821249E+02  0.33309268645E+01  0.10592471678E+03  0.00000000000E+00 0.  1.
</event>
<event>
 7    1  0.2943257E-009  0.1436049E+03  0.7561462E-02  0.1208559E+00
          3   -1    0    0  501    0  0.00000000000E+00  0.00000000000E+00  0.27706991002E+03  0.27706991002E+03  0.00000000000E+00 0. -1.
         -3   -1    0    0    0  501 -0.00000000000E+00 -0.00000000000E+00 -0.98382454869E+02  0.98382454869E+02  0.00000000000E+00 0.  1.
         25    2    1    2    0    0 -0.83218134429E+01  0.12311237502E+03  0.85931074074E+02  0.19559716549E+03  0.12509273437E+03 0.  0.
          5    1    3    3  502    0 -0.36958140156E+02  0.62275647522E+02  0.10311323944E+03  0.12607130104E+03  0.41800000000E+01 0.  1.
         -5    1    3    3    0  502  0.28636326713E+02  0.60836727502E+02 -0.17182165363E+02  0.69525864449E+02  0.41800000000E+01 0.  1.
        -11    1    1    2    0    0  0.44600172923E+02 -0.67375800794E+02  0.24208874666E+02  0.84348939353E+02  0.00000000000E+00 0. -1.
         11    1    1    2    0    0 -0.36278359480E+02 -0.55736574231E+02  0.68547506414E+02  0.95506260052E+02  0.00000000000E+00 0.  1.
</event>
<event>
 6    1  0.2943257E-009  0.1032076E+03  0.7561462E-02  0.1273692E+00
         -2   -1    0    0    0  501 -0.00000000000E+00  0.00000000000E+00  0.17749832712E+02  0.17749832712E+02  0.00000000000E+00 0.  1.
          2   -1    0    0  501    0  0.00000000000E+00 -0.00000000000E+00 -0.67916578498E+03  0.67916578498E+03  0.00000000000E+00 0. -1.
          5    1    1    2  502    0 -0.15684603226E+02 -0.49972174083E+02 -0.85217816367E+02  0.10011380318E+03  0.41800000000E+01 0.  1.
         -5    1    1    2    0  502  0.97194210803E+01  0.60881852342E+02 -0.26377354886E+03  0.27091516120E+03  0.41800000000E+01 0.  1.
        -11    1    1    2    0    0  0.48511748597E+02 -0.16715812655E+01 -0.18337112703E+03  0.18968698997E+03  0.00000000000E+00 0. -1.
         11    1    1    2    0    0 -0.42546566451E+02 -0.92380969929E+01 -0.12905346001E+03  0.13619966334E+03  0.00000000000E+00 0.  1.
</event>
<event>
 7    1  0.2943257E-009  0.8308409E+02  0.7561462E-02  0.1320520E+00
         -3   -1    0    0    0  501 -0.00000000000E+00  0.00000000000E+00  0.50085130507E+02  0.50085130507E+02  0.00000000000E+00 0.  1.
          3   -1    0    0  501    0  0.00000000000E+00 -0.00000000000E+00 -0.23395824001E+03  0.23395824001E+03  0.00000000000E+00 0. -1.
         25    2    1    2    0    0  0.13875603420E+02 -0.16757246216E+01 -0.95778692479E+02  0.15816456053E+03  0.12508848808E+03 0.  0.
          5    1    3    3  502    0  0.22808885852E+02  0.56553243343E+02 -0.72136457677E+02  0.94549751626E+02  0.41800000000E+01 0.  1.
         -5    1    3    3    0  502 -0.89332824319E+01 -0.58228967964E+02 -0.23642234803E+02  0.63614808902E+02  0.41800000000E+01 0.  1.
        -11    1    1    2    0    0  0.11153042512E+02  0.14154141897E+02  0.12197685782E+02  0.21760368300E+02  0.00000000000E+00 0.  1.
         11    1    1    2    0    0 -0.25028645932E+02 -0.12478417275E+02 -0.10029210281E+03  0.10411844169E+03  0.00000000000E+00 0. -1.
</event>
<event>
 7    1  0.2943257E-009  0.9443602E+02  0.7561462E-02  0.1292451E+00
          1   -1    0    0  501    0  0.00000000000E+00  0.00000000000E+00  0.33273623654E+02  0.33273623654E+02  0.00000000000E+00 0. -1.
         -1   -1    0    0    0  501 -0.00000000000E+00 -0.00000000000E+00 -0.49101836379E+03  0.49101836379E+03  0.00000000000E+00 0.  1.
         25    2    1    2    0    0  0.43950175862E+02 -0.20123364260E+02 -0.15679978870E+03  0.20632635836E+03  0.12509126537E+03 0.  0.
          5    1    3    3  502    0  0.26441504801E+02  0.25847396970E+02  0.46461095108E+01  0.37500664526E+02  0.41800000000E+01 0.  1.
         -5    1    3    3    0  502  0.17508671061E+02 -0.45970761231E+02 -0.16144589821E+03  0.16882569383E+03  0.41800000000E+01 0.  1.
        -11    1    1    2    0    0 -0.70063028413E+01  0.52622468415E+02 -0.16917413751E+03  0.17730792781E+03  0.00000000000E+00 0. -1.
         11    1    1    2    0    0 -0.36943873021E+02 -0.32499104154E+02 -0.13177081393E+03  0.14065770127E+03  0.00000000000E+00 0.  1.
</event>
<event>
 7    1  0.2943257E-009  0.1104526E+03  0.7561462E-02  0.1259734E+00
          2   -1    0    0  501    0  0.00000000000E+00  0.00000000000E+00  0.12756037570E+03  0.12756037570E+03  0.00000000000E+00 0. -1.
         -2   -1    0    0    0  501 -0.00000000000E+00 -0.00000000000E+00 -0.19723927519E+03  0.19723927519E+03  0.00000000000E+00 0.  1.
         25    2    1    2    0    0 -0.41970094392E+02 -0.32424774461E+02  0.69495061982E+02  0.15261198520E+03  0.12509196443E+03 0.  0.
          5    1    3    3  502    0  0.36805825480E+02  0.87201218746E+01 -0.25327407558E+01  0.38139172651E+02  0.41800000000E+01 0. -1.
         -5    1    3    3    0  502 -0.78775919872E+02 -0.41144896336E+02  0.72027802738E+02  0.11447281255E+03  0.41800000000E+01 0. -1.
        -11    1    1    2    0    0 -0.21075214309E+02  0.21102835864E+02 -0.78438169811E+02  0.83916868525E+02  0.00000000000E+00 0.  1.
         11    1    1    2    0    0  0.63045308701E+02  0.11321938597E+02 -0.60735791657E+02  0.88270797159E+02  0.00000000000E+00 0. -1.
</event>
<event>
 7    1  0.2943257E-009  0.2211429E+03  0.7561462E-02  0.1133034E+00
         -1   -1    0    0    0  501 -0.00000000000E+00  0.00000000000E+00  0.53119763727E+02  0.53119763727E+02  0.00000000000E+00 0.  1.
          1   -1    0    0  501    0  0.00000000000E+00 -0.00000000000E+00 -0.95130031409E+03  0.95130031409E+03  0.00000000000E+00 0. -1.
         25    2    1    2    0    0 -0.41235447555E+02 -0.19186753174E+03 -0.48270342775E+03  0.53587685660E+03  0.12509154412E+03 0.  0.
          5    1    3    3  502    0 -0.57063717930E+02 -0.22629010635E+02 -0.10567130180E+03  0.12227933779E+03  0.41800000000E+01 0. -1.
         -5    1    3    3    0  502  0.15828270374E+02 -0.16923852111E+03 -0.37703212595E+03  0.41359751882E+03  0.41800000000E+01 0. -1.
        -11    1    1    2    0    0  0.42699857289E+02  0.38926044613E+02 -0.70299675488E+02  0.90997577635E+02  0.00000000000E+00 0.  1.
         11    1    1    2    0    0 -0.14644097333E+01  0.15294148713E+03 -0.34517744713E+03  0.37754564358E+03  0.00000000000E+00 0. -1.
</event>
<event>
 7    1  0.2943257E-009  0.1063737E+03  0.7561462E-02  0.1267436E+00
          2   -1    0    0  501    0  0.00000000000E+00  0.00000000000E+00  0.23657738682E+03  0.23657738682E+03  0.00000000000E+00 0.  1.
         -2   -1    0    0    0  501 -0.00000000000E+00 -0.00000000000E+00 -0.52185950324E+02  0.52185950324E+02  0.00000000000E+00 0. -1.
         25    2    1    2    0    0  0.17853699995E+02 -0.72826109950E+01  0.94557145504E+02  0.15798696684E+03  0.12508811654E+03 0.  0.
          5    1    3    3  502    0 -0.54126686496E+01  0.52771531976E+02  0.72188115440E+02  0.89681257684E+02  0.41800000000E+01 0.  1.
         -5    1    3    3    0  502  0.23266368644E+02 -0.60054142971E+02  0.22369030063E+02  0.68305709160E+02  0.41800000000E+01 0.  1.
        -11    1    1    2    0    0 -0.39235987966E+00  0.49400181054E+02  0.48675097222E+02  0.69352699471E+02  0.00000000000E+00 0.  1.
         11    1    1    2    0    0 -0.17461340115E+02 -0.42117570059E+02  0.41159193775E+02  0.61423670832E+02  0.00000000000E+00 0. -1.
</event>
<event>
 7    1  0.2943257E-009  0.8432333E+02  0.7561462E-02  0.1317212E+00
          2   -1    0    0  501    0  0.00000000000E+00  0.00000000000E+00  0.28714053243E+03  0.28714053243E+03  0.00000000000E+00 0. -1.
         -2   -1    0    0    0  501 -0.00000000000E+00 -0.00000000000E+00 -0.49077589547E+02  0.49077589547E+02  0.00000000000E+00 0.  1.
         25    2    1    2    0    0 -0.26659899357E+02 -0.40478179855E+02  0.14648149554E+03  0.19863010966E+03  0.12509140117E+03 0.  0.
          5    1    3    3  502    0 -0.30951626666E+02 -0.62906572057E+01 -0.13737062382E+02  0.34695170330E+02  0.41800000000E+01 0. -1.
         -5    1    3    3    0  502  0.42917273087E+01 -0.34187522649E+02  0.16021855793E+03  0.16393493933E+03  0.41800000000E+01 0. -1.
        -11    1    1    2    0    0  0.52698134387E+02 -0.14555058325E+01  0.54715173332E+02  0.75980010909E+02  0.00000000000E+00 0. -1.
         11    1    1    2    0    0 -0.26038235030E+02  0.41933685688E+02  0.36866274010E+02  0.61608001413E+02  0.00000000000E+00 0.  1.
</event>
<event>
 7    1  0.2943257E-009  0.1127174E+03  0.7561462E-02  0.1255619E+00
          1   -1    0    0  501    0  0.00000000000E+00  0.00000000000E+00  0.73260578334E+02  0.73260578334E+02  0.00000000000E+00 0. -1.
         -1   -1    0    0    0  501 -0.00000000000E+00 -0.00000000000E+00 -0.40875974456E+03  0.40875974456E+03  0.00000000000E+00 0.  1.
         25    2    1    2    0    0  0.75060594601E+02 -0.69626934207E+02 -0.56365341165E+02  0.17119153998E+03  0.12508992304E+03 0.  0.
          5    1    3    3  502    0  0.75980500722E+02 -0.28806753084E+02 -0.87642126632E+02  0.11958879661E+03  0.41800000000E+01 0. -1.
         -5    1    3    3    0  502 -0.91990612045E+00 -0.40820181124E+02  0.31276785467E+02  0.51602743371E+02  0.41800000000E+01 0. -1.
        -11    1    1    2    0    0 -0.24258388610E+02  0.15476504961E+02 -0.82226042220E+01  0.29926624333E+02  0.00000000000E+00 0. -1.
         11    1    1    2    0    0 -0.50802205991E+02  0.54150429246E+02 -0.27091122084E+03  0.28090215859E+03  0.00000000000E+00 0.  1.
</event>
<event>
 7    1  0.2943257E-009  0.1137230E+03  0.7561462E-02  0.1253827E+00
          2   -1    0    0  501    0  0.00000000000E+00  0.00000000000E+00  0.93157467365E+02  0.93157467365E+02  0.00000000000E+00 0. -1.
         -2   -1    0    0    0  501 -0.00000000000E+00 -0.00000000000E+00 -0.18578588967E+03  0.18578588967E+03  0.00000000000E+00 0.  1.
         25    2    1    2    0    0 -0.64464232885E+02 -0.24851955100E+02 -0.24160518970E+02  0.14494339469E+03  0.12510635473E+03 0.  0.
          5    1    3    3  502    0  0.43576745595E+01 -0.41595974301E+02  0.33313825232E+02  0.53632991313E+02  0.41800000000E+01 0. -1.
         -5    1    3    3    0  502 -0.68821907445E+02  0.16744019200E+02 -0.57474344202E+02  0.91310403376E+02  0.41800000000E+01 0. -1.
        -11    1    1    2    0    0  0.14971183429E+01 -0.30552626638E+02 -0.11839163777E+02  0.32800459704E+02  0.00000000000E+00 0.  1.
         11    1    1    2    0    0  0.62967114542E+02  0.55404581738E+02 -0.56628739561E+02  0.10119950265E+03  0.00000000000E+00 0. -1.
</event>
<event>
 7    1  0.2943257E-009  0.8218037E+02  0.7561462E-02  0.1322975E+00
         -2   -1    0    0    0  501 -0.00000000000E+00  0.00000000000E+00  0.37180319874E+02  0.37180319874E+02  0.00000000000E+00 0. -1.
          2   -1    0    0  501    0  0.00000000000E+00 -0.00000000000E+00 -0.44513154568E+03  0.44513154568E+03  0.00000000000E+00 0.  1.
         25    2    1    2    0    0  0.59753335519E+01  0.39803942591E+02 -0.32865520566E+03  0.35395048584E+03  0.12508654509E+03 0.  0.
          5    1    3    3  502    0  0.26667895905E+02  0.46392733405E+02 -0.32743168509E+03  0.33180181311E+03  0.41800000000E+01 0.  1.
         -5    1    3    3    0  502 -0.20692562353E+02 -0.65887908139E+01 -0.12235205747E+01  0.22148672730E+02  0.41800000000E+01 0.  1.
        -11    1    1    2    0    0 -0.32002794184E+01 -0.64068722112E+02 -0.81638627899E+02  0.10382633821E+03  0.00000000000E+00 0.  1.
         11    1    1    2    0    0 -0.27750541336E+01  0.24264779521E+02  0.23426077493E+01  0.24535041506E+02  0.00000000000E+00 0. -1.
</event>
<event>
 7    1  0.2943257E-009  0.2243135E+03  0.7561462E-02  0.1130707E+00
         -1   -1    0    0    0  501 -0.00000000000E+00  0.00000000000E+00  0.77956438604E+02  0.77956438604E+02  0.00000000000E+00 0.  1.
          1   -1    0    0  501    0  0.00000000000E+00 -0.00000000000E+00 -0.74264574627E+03  0.74264574627E+03  0.00000000000E+00 0. -1.
         25    2    1    2    0    0  0.79144651024E+02 -0.18699641323E+03 -0.22554143989E+03  0.32824991040E+03  0.12509008043E+03 0.  0.
          5    1    3    3  502    0  0.10760317650E+03 -0.12925936382E+03 -0.19289503292E+03  0.25595388814E+03  0.41800000000E+01 0. -1.
         -5    1    3    3    0  502 -0.28458525474E+02 -0.57737049413E+02 -0.32646406972E+02  0.72296022264E+02  0.41800000000E+01 0. -1.
        -11    1    1    2    0    0 -0.72481856967E+02  0.77229675141E+02 -0.27578849871E+03  0.29542738250E+03  0.00000000000E+00 0. -1.
         11    1    1    2    0    0 -0.66627940564E+01  0.10976673809E+03 -0.16335936907E+03  0.19692489197E+03  0.00000000000E+00 0.  1.
</event>
<event>
 7    1  0.2943257E-009  0.1490766E+03  0.7561462E-02  0.1201612E+00
          2   -1    0    0  501    0  0.00000000000E+00  0.00000000000E+00  0.71502163115E+03  0.71502163115E+03  0.00000000000E+00 0. -1.
         -2   -1    0    0    0  501 -0.00000000000E+00 -0.00000000000E+00 -0.68262076071E+02  0.68262076071E+02  0.00000000000E+00 0.  1.
         25    2    1    2    0    0  0.75938173566E+02  0.93659246686E+02  0.63293515817E+03  0.65634836882E+03  0.12509039176E+03 0.  0.
          5    1    3    3  502    0  0.10947992406E+03  0.85380757996E+02  0.51179927238E+03  0.53031282769E+03  0.41800000000E+01 0.  1.
         -5    1    3    3    0  502 -0.33541750490E+02  0.82784886904E+01  0.12113588579E+03  0.12603554112E+03  0.41800000000E+01 0.  1.
        -11    1    1    2    0    0 -0.33926682405E+02 -0.65836485234E+02  0.18470751870E+02  0.76332373484E+02  0.00000000000E+00 0.  1.
         11    1    1    2    0    0 -0.42011491161E+02 -0.27822761452E+02 -0.46463549579E+01  0.50602964921E+02  0.00000000000E+00 0. -1.
</event>
<event>
 7    1  0.2943257E-009  0.1109733E+03  0.7561462E-02  0.1258778E+00
         -2   -1    0    0    0  501 -0.00000000000E+00  0.00000000000E+00  0.37031444402E+02  0.37031444402E+02  0.00000000000E+00 0.  1.
          2   -1    0    0  501    0  0.00000000000E+00 -0.00000000000E+00 -0.36882236382E+03  0.36882236382E+03  0.00000000000E+00 0. -1.
         25    2    1    2    0    0  0.25050094506E+02  0.33277030046E+02 -0.22830416807E+03  0.26363838931E+03  0.12509012430E+03 0.  0.
          5    1    3    3  502    0 -0.11959180677E+02 -0.43436004926E+02 -0.97569680808E+02  0.10755009781E+03  0.41800000000E+01 0.  1.
         -5    1    3    3    0  502  0.37009275184E+02  0.76713034973E+02 -0.13073448726E+03  0.15608829150E+03  0.41800000000E+01 0.  1.
        -11    1    1    2    0    0 -0.50044388483E+02 -0.41604232410E+02 -0.48240776048E+02  0.81009415791E+02  0.00000000000E+00 0.  1.
         11    1    1    2    0    0  0.24994293977E+02  0.83272023639E+01 -0.55245975306E+02  0.61206003121E+02  0.00000000000E+00 0. -1.
</event>
<event>
 7    1  0.2943257E-009  0.1145196E+03  0.7561462E-02  0.1252422E+00
          2   -1    0    0  501    0  0.00000000000E+00  0.00000000000E+00  0.82681618748E+02  0.82681618748E+02  0.00000000000E+00 0. -1.
         -2   -1    0    0    0  501 -0.00000000000E+00 -0.00000000000E+00 -0.27700494771E+03  0.27700494771E+03  0.00000000000E+00 0.  1.
         25    2    1    2    0    0 -0.80620667305E+02  0.57697534332E+01 -0.24002708590E+02  0.15085370688E+03  0.12509088220E+03 0.  0.
          5    1    3    3  502    0  0.20116472402E+02  0.27581038197E+02 -0.32537734405E+02  0.47345144314E+02  0.41800000000E+01 0.  1.
         -5    1    3    3    0  502 -0.10073713971E+03 -0.21811284763E+02  0.85350258151E+01  0.10350856257E+03  0.41800000000E+01 0.  1.
        -11    1    1    2    0    0  0.56285474152E+02  0.16342058121E+02 -0.32241250082E+02  0.66892568130E+02  0.00000000000E+00 0. -1.
         11    1    1    2    0    0  0.24335193153E+02 -0.22111811554E+02 -0.13807937029E+03  0.14194029144E+03  0.00000000000E+00 0.  1.
</event>
<event>
 7    1  0.3330503E-009  0.2205697E+03  0.7561462E-02  0.1133459E+00
         -1   -1    0    0    0  501 -0.00000000000E+00  0.00000000000E+00  0.14133018838E+03  0.14133018838E+03  0.00000000000E+00 0.  1.
          1   -1    0    0  501    0  0.00000000000E+00 -0.00000000000E+00 -0.38646445130E+03  0.38646445130E+03  0.00000000000E+00 0. -1.
         25    2    1    2    0    0  0.11947679205E+03  0.16731492459E+03 -0.14933837371E+03  0.28322714582E+03  0.12508668369E+03 0.  0.
          5    1    3    3  502    0  0.35709317045E+02  0.12032835822E+03 -0.28440010673E+02  0.12876480778E+03  0.41800000000E+01 0. -1.
         -5    1    3    3    0  502  0.83767475003E+02  0.46986566376E+02 -0.12089836304E+03  0.15446233804E+03  0.41800000000E+01 0. -1.
        -11    1    1    2    0    0 -0.86444456685E+02 -0.55264457088E+02 -0.17873308641E+02  0.10414537662E+03  0.00000000000E+00 0.  1.
         11    1    1    2    0    0 -0.33032335363E+02 -0.11205046751E+03 -0.77922580565E+02  0.14042211724E+03  0.00000000000E+00 0. -1.
</event>
<event>
 7    1  0.2943257E-009  0.1007879E+03  0.7561462E-02  0.1278648E+00
         -1   -1    0    0    0  501 -0.00000000000E+00  0.00000000000E+00  0.46278391818E+02  0.46278391818E+02  0.00000000000E+00 0.  1.
          1   -1    0    0  501    0  0.00000000000E+00 -0.00000000000E+00 -0.54316738291E+03  0.54316738291E+03  0.00000000000E+00 0. -1.
         25    2    1    2    0    0  0.11718377928E+02  0.75952642408E+02 -0.42464153353E+03  0.44930458252E+03  0.12509217242E+03 0.  0.
          5    1    3    3  502    0  0.16427189297E+02  0.25263595649E+02 -0.10740162739E+02  0.32263374110E+02  0.41800000000E+01 0.  1.
         -5    1    3    3    0  502 -0.47088113681E+01  0.50689046759E+02 -0.41390137079E+03  0.41704120841E+03  0.41800000000E+01 0.  1.
        -11    1    1    2    0    0  0.92178438131E+01  0.19916096137E+02 -0.13859934144E+02  0.25956064886E+02  0.00000000000E+00 0. -1.
         11    1    1    2    0    0 -0.20936221742E+02 -0.95868738545E+02 -0.58387523412E+02  0.11418512732E+03  0.00000000000E+00 0.  1.
</event>
<event>
 7    1  0.2943257E-009  0.1350989E+03  0.7561462E-02  0.1220080E+00
          1   -1    0    0  501    0  0.00000000000E+00  0.00000000000E+00  0.11187751747E+03  0.11187751747E+03  0.00000000000E+00 0. -1.
         -1   -1    0    0    0  501 -0.00000000000E+00 -0.00000000000E+00 -0.20297824963E+03  0.20297824963E+03  0.00000000000E+00 0.  1.
         25    2    1    2    0    0 -0.10278893843E+03 -0.96001611751E+00 -0.53471703587E+02  0.17050805108E+03  0.12508910785E+03 0.  0.
          5    1    3    3  502    0 -0.72036794828E+02  0.54418240161E+02 -0.57131314139E+02  0.10692101817E+03  0.41800000000E+01 0.  1.
         -5    1    3    3    0  502 -0.30752143600E+02 -0.55378256278E+02  0.36596105526E+01  0.63587032906E+02  0.41800000000E+01 0.  1.
        -11    1    1    2    0    0  0.10121584413E+03  0.14903044556E+02 -0.59508566428E+02  0.11835547017E+03  0.00000000000E+00 0.  1.
         11    1    1    2    0    0  0.15730942950E+01 -0.13943028438E+02  0.21879537851E+02  0.25992245849E+02  0.00000000000E+00 0. -1.
</event>
<event>
 7    1  0.2943257E-009  0.2027716E+03  0.7561462E-02  0.1147421E+00
         -1   -1    0    0    0  501 -0.00000000000E+00  0.00000000000E+00  0.39523260510E+03  0.39523260510E+03  0.00000000000E+00 0.  1.
          1   -1    0    0  501    0  0.00000000000E+00 -0.00000000000E+00 -0.15453267260E+03  0.15453267260E+03  0.00000000000E+00 0. -1.
         25    2    1    2    0    0  0.14265333934E+03  0.13608661045E+03  0.23621719953E+03  0.33213832691E+03  0.12509101521E+03 0.  0.
          5    1    3    3  502    0  0.68031812448E+02  0.48343854698E+02  0.19072177217E+03  0.20822517276E+03  0.41800000000E+01 0.  1.
         -5    1    3    3    0  502  0.74621526891E+02  0.87742755749E+02  0.45495427361E+02  0.12391315416E+03  0.41800000000E+01 0.  1.
        -11    1    1    2    0    0 -0.69351467243E+02 -0.25184602251E+02  0.34332270486E+02  0.81379327818E+02  0.00000000000E+00 0.  1.
         11    1    1    2    0    0 -0.73301872096E+02 -0.11090200820E+03 -0.29849537512E+02  0.13624762297E+03  0.00000000000E+00 0. -1.
</event>
<event>
 7    1  0.2943257E-009  0.1395198E+03  0.7561462E-02  0.1213977E+00
          2   -1    0    0  501    0  0.00000000000E+00  0.00000000000E+00  0.30255762437E+02  0.30255762437E+02  0.00000000000E+00 0.  1.
         -2   -1    0    0    0  501 -0.00000000000E+00 -0.00000000000E+00 -0.95487855946E+03  0.95487855946E+03  0.00000000000E+00 0. -1.
         25    2    1    2    0    0 -0.60852188617E+02 -0.62775357747E+02 -0.76485485310E+03  0.77993256452E+03  0.12509246376E+03 0.  0.
          5    1    3    3  502    0 -0.26430127460E+02 -0.97603250641E+02 -0.44800713025E+03  0.45929599097E+03  0.41800000000E+01 0. -1.
         -5    1    3    3    0  502 -0.34422061157E+02  0.34827892894E+02 -0.31684772286E+03  0.32063657355E+03  0.41800000000E+01 0. -1.
        -11    1    1    2    0    0 -0.21865529040E+02  0.35307428858E+02 -0.55022813979E+02  0.68936390614E+02  0.00000000000E+00 0.  1.
         11    1    1    2    0    0  0.82717717657E+02  0.27467928889E+02 -0.10474512994E+03  0.13626536676E+03  0.00000000000E+00 0. -1.
</event>
<event>
 7    1  0.3999397E-009  0.1206603E+03  0.7561462E-02  0.1242012E+00
          3   -1    0    0  501    0  0.00000000000E+00  0.00000000000E+00  0.38967703377E+03  0.38967703377E+03  0.00000000000E+00 0. -1.
         -3   -1    0    0    0  501 -0.00000000000E+00 -0.00000000000E+00 -0.50599007505E+02  0.50599007505E+02  0.00000000000E+00 0.  1.
         25    2    1    2    0    0  0.37612620443E+02  0.77940249698E+02  0.21974901315E+03  0.26724759048E+03  0.12506899735E+03 0.  0.
          5    1    3    3  502    0  0.82213153309E+02  0.58670812597E+02  0.12567074316E+03  0.16128197331E+03  0.41800000000E+01 0.  1.
         -5    1    3    3    0  502 -0.44600532866E+02  0.19269437101E+02  0.94078269998E+02  0.10596561718E+03  0.41800000000E+01 0.  1.
        -11    1    1    2    0    0 -0.30137234004E+02 -0.28542748545E+02 -0.22657944029E+01  0.41570123793E+02  0.00000000000E+00 0.  1.
         11    1    1    2    0    0 -0.74753864389E+01 -0.49397501153E+02  0.12159480752E+03  0.13145832700E+03  0.00000000000E+00 0. -1.
</event>
<event>
 7    1  0.2943257E-009  0.1177904E+03  0.7561462E-02  0.1246787E+00
         -4   -1    0    0    0  501 -0.00000000000E+00  0.00000000000E+00  0.28235824436E+02  0.28235824436E+02  0.00000000000E+00 0.  1.
          4   -1    0    0  501    0  0.00000000000E+00 -0.00000000000E+00 -0.73354631090E+03  0.73354631090E+03  0.00000000000E+00 0. -1.
         25    2    1    2    0    0  0.17422420305E+02  0.91382845511E+02 -0.37534678605E+03  0.40643152136E+03  0.12508799532E+03 0.  0.
          5    1    3    3  502    0 -0.24197621629E+02 -0.58605265419E+01 -0.11951534433E+02  0.27931742501E+02  0.41800000000E+01 0.  1.
         -5    1    3    3    0  502  0.41620041934E+02  0.97243372053E+02 -0.36339525162E+03  0.37849977886E+03  0.41800000000E+01 0.  1.
        -11    1    1    2    0    0  0.14404730392E+02 -0.51360402653E+02 -0.58728546410E+02  0.79337439975E+02  0.00000000000E+00 0.  1.
         11    1    1    2    0    0 -0.31827150697E+02 -0.40022442858E+02 -0.27123515400E+03  0.27601317400E+03  0.00000000000E+00 0. -1.
</event>
<event>
 7    1  0.2943257E-009  0.1028879E+03  0.7561462E-02  0.1274338E+00
          3   -1    0    0  501    0  0.00000000000E+00  0.00000000000E+00  0.88545937351E+03  0.88545937351E+03  0.00000000000E+00 0. -1.
         -3   -1    0    0    0  501 -0.00000000000E+00 -0.00000000000E+00 -0.13588476531E+02  0.13588476531E+02  0.00000000000E+00 0.  1.
         25    2    1    2    0    0 -0.23261859772E+02 -0.25440753595E+02  0.57797855866E+03  0.59236306775E+03  0.12508574539E+03 0.  0.
          5    1    3    3  502    0  0.29600313007E+02 -0.56627575396E+02  0.21970435485E+03  0.22884566146E+03  0.41800000000E+01 0.  1.
         -5    1    3    3    0  502 -0.52862172780E+02  0.31186821802E+02  0.35827420381E+03  0.36351740629E+03  0.41800000000E+01 0.  1.
        -11    1    1    2    0    0 -0.23346945210E+02  0.24159746432E+02  0.65862004545E+02  0.73936302592E+02  0.00000000000E+00 0.  1.
         11    1    1    2    0    0  0.46608804982E+02  0.12810071625E+01  0.22803033377E+03  0.23274847970E+03  0.00000000000E+00 0. -1.
</event>
<event>
 7    1  0.2943257E-009  0.1210192E+03  0.7561462E-02  0.1241425E+00
          2   -1    0    0  501    0  0.00000000000E+00  0.00000000000E+00  0.14645741724E+04  0.14645741724E+04  0.00000000000E+00 0. -1.
         -2   -1    0    0    0  501 -0.00000000000E+00 -0.00000000000E+00 -0.10996521656E+02  0.10996521656E+02  0.00000000000E+00 0.  1.
         25    2    1    2    0    0 -0.54735901400E+02  0.36923945327E+02  0.82672238308E+03  0.83873490142E+03  0.12508772732E+03 0.  0.
          5    1    3    3  502    0  0.14212729814E+02  0.56209216951E+02  0.21136477140E+03  0.21921226414E+03  0.41800000000E+01 0.  1.
         -5    1    3    3    0  502 -0.68948631214E+02 -0.19285271623E+02  0.61535761168E+03  0.61952263728E+03  0.41800000000E+01 0.  1.
        -11    1    1    2    0    0 -0.23866582233E+02 -0.21434015500E+02  0.16666175260E+03  0.16972086067E+03  0.00000000000E+00 0.  1.
         11    1    1    2    0    0  0.78602483634E+02 -0.15489929827E+02  0.46019351508E+03  0.46711493198E+03  0.00000000000E+00 0. -1.
</event>
<event>
 7    1  0.2943257E-009  0.1239054E+03  0.7561462E-02  0.1236790E+00
         -1   -1    0    0    0  501 -0.00000000000E+00  0.00000000000E+00  0.29565243850E+03  0.29565243850E+03  0.00000000000E+00 0.  1.
          1   -1    0    0  501    0  0.00000000000E+00 -0.00000000000E+00 -0.57567691284E+02  0.57567691284E+02  0.00000000000E+00 0. -1.
         25    2    1    2    0    0  0.23239085840E+02  0.66564321999E+02  0.15183339987E+03  0.20897854706E+03  0.12509111775E+03 0.  0.
          5    1    3    3  502    0  0.60010151327E+02  0.31047239252E+01  0.10735863130E+03  0.12310241950E+03  0.41800000000E+01 0. -1.
         -5    1    3    3    0  502 -0.36771065487E+02  0.63459598074E+02  0.44474768573E+02  0.85876127558E+02  0.41800000000E+01 0. -1.
        -11    1    1    2    0    0 -0.51633084374E+02 -0.12621189450E+02  0.28698234567E+02  0.60405781945E+02  0.00000000000E+00 0.  1.
         11    1    1    2    0    0  0.28393998534E+02 -0.53943132549E+02  0.57553112779E+02  0.83835800780E+02  0.00000000000E+00 0. -1.
</event>
<event>
 7    1  0.2943257E-009  0.9658508E+02  0.7561462E-02  0.1287645E+00
          1   -1    0    0  501    0  0.00000000000E+00  0.00000000000E+00  0.31756526556E+03  0.31756526556E+03  0.00000000000E+00 0. -1.
         -1   -1    0    0    0  501 -0.00000000000E+00 -0.00000000000E+00 -0.55806305992E+02  0.55806305992E+02  0.00000000000E+00 0.  1.
         25    2    1    2    0    0 -0.57945872643E+02  0.12741454281E+02  0.77956997686E+02  0.15888526870E+03  0.12508863381E+03 0.  0.
          5    1    3    3  502    0 -0.65482016848E+02 -0.23182023779E+01  0.10671696640E+03  0.12529665562E+03  0.41800000000E+01 0.  1.
         -5    1    3    3    0  502  0.75361442045E+01  0.15059656659E+02 -0.28759968713E+02  0.33588613079E+02  0.41800000000E+01 0.  1.
        -11    1    1    2    0    0  0.18235077892E+02  0.40106885826E+02  0.82419218818E+02  0.93455914671E+02  0.00000000000E+00 0.  1.
         11    1    1    2    0    0  0.39710794751E+02 -0.52848340106E+02  0.10138274307E+03  0.12103038818E+03  0.00000000000E+00 0. -1.
</event>
<event>
 7    1  0.2943257E-009  0.1758653E+03  0.7561462E-02  0.1171866E+00
         -1   -1    0    0    0  501 -0.00000000000E+00  0.00000000000E+00  0.58369359435E+03  0.58369359435E+03  0.00000000000E+00 0.  1.
          1   -1    0    0  501    0  0.00000000000E+00 -0.00000000000E+00 -0.59071880770E+02  0.59071880770E+02  0.00000000000E+00 0. -1.
         25    2    1    2    0    0 -0.13595763821E+03  0.56327205069E+02  0.22048247490E+03  0.29311560786E+03  0.12508798670E+03 0.  0.
          5    1    3    3  502    0 -0.15129392080E+03  0.20411400073E+02  0.16171267487E+03  0.22242962334E+03  0.41800000000E+01 0. -1.
         -5    1    3    3    0  502  0.15336282597E+02  0.35915804996E+02  0.58769800025E+02  0.70685984519E+02  0.41800000000E+01 0. -1.
        -11    1    1    2    0    0  0.46436449625E+02  0.10997349482E+02  0.38346085631E+02  0.61218525240E+02  0.00000000000E+00 0. -1.
         11    1    1    2    0    0  0.89521188582E+02 -0.67324554551E+02  0.26579315305E+03  0.28843134202E+03  0.00000000000E+00 0.  1.
</event>
<event>
 7    1  0.2943257E-009  0.1538988E+03  0.7561462E-02  0.1195762E+00
          2   -1    0    0  501    0  0.00000000000E+00  0.00000000000E+00  0.31581192507E+03  0.31581192507E+03  0.00000000000E+00 0.  1.
         -2   -1    0    0    0  501 -0.00000000000E+00 -0.00000000000E+00 -0.85228409279E+02  0.85228409279E+02  0.00000000000E+00 0. -1.
         25    2    1    2    0    0 -0.62088016682E+02 -0.10127624599E+03  0.15518084731E+03  0.23203487387E+03  0.12508911824E+03 0.  0.
          5    1    3    3  502    0 -0.34104632802E+01 -0.11089152013E+03  0.11676367228E+03  0.16112041479E+03  0.41800000000E+01 0.  1.
         -5    1    3    3    0  502 -0.58677553402E+02  0.96152741344E+01  0.38417175029E+02  0.70914459084E+02  0.41800000000E+01 0.  1.
        -11    1    1    2    0    0 -0.15206451386E+02  0.17382604092E+02  0.45582521305E+02  0.51099484707E+02  0.00000000000E+00 0.  1.
         11    1    1    2    0    0  0.77294468068E+02  0.83893641901E+02  0.29820147174E+02  0.11790597577E+03  0.00000000000E+00 0. -1.
</event>
<event>
 7    1  0.2943257E-009  0.1662671E+03  0.7561462E-02  0.1181798E+00
         -1   -1    0    0    0  501 -0.00000000000E+00  0.00000000000E+00  0.61928991048E+02  0.61928991048E+02  0.00000000000E+00 0.  1.
          1   -1    0    0  501    0  0.00000000000E+00 -0.00000000000E+00 -0.54460286757E+03  0.54460286757E+03  0.00000000000E+00 0. -1.
         25    2    1    2    0    0 -0.11847025053E+03 -0.74480869609E+02 -0.33581453605E+03  0.38470976932E+03  0.12509038246E+03 0.  0.
          5    1    3    3  502    0  0.18128314909E+02 -0.46554897591E+01 -0.46793444037E+01  0.19740264699E+02  0.41800000000E+01 0.  1.
         -5    1    3    3    0  502 -0.13659856544E+03 -0.69825379850E+02 -0.33113519165E+03  0.36496950462E+03  0.41800000000E+01 0.  1.
        -11    1    1    2    0    0  0.10391333719E+03  0.23051662397E+02 -0.67150052357E+02  0.12585106403E+03  0.00000000000E+00 0.  1.
         11    1    1    2    0    0  0.14556913341E+02  0.51429207212E+02 -0.79709288116E+02  0.95971025276E+02  0.00000000000E+00 0. -1.
</event>
<event>
 7    1  0.2943257E-009  0.9174724E+02  0.7561462E-02  0.1298675E+00
         -2   -1    0    0    0  501 -0.00000000000E+00  0.00000000000E+00  0.13689836467E+03  0.13689836467E+03  0.00000000000E+00 0. -1.
          2   -1    0    0  501    0  0.00000000000E+00 -0.00000000000E+00 -0.10821073442E+03  0.10821073442E+03  0.00000000000E+00 0.  1.
         25    2    1    2    0    0 -0.37485079329E+02  0.14756852485E+02  0.57387922039E+02  0.14340614254E+03  0.12509617202E+03 0.  0.
          5    1    3    3  502    0 -0.76441619508E+02  0.29081957154E+02  0.13757012453E+02  0.83041009245E+02  0.41800000000E+01 0.  1.
         -5    1    3    3    0  502  0.38956540179E+02 -0.14325104669E+02  0.43630909585E+02  0.60365133295E+02  0.41800000000E+01 0.  1.
        -11    1    1    2    0    0  0.15391063909E+02  0.15877979985E+02 -0.52563322465E+02  0.57025415081E+02  0.00000000000E+00 0.  1.
         11    1    1    2    0    0  0.22094015420E+02 -0.30634832470E+02  0.23863030677E+02  0.44677541460E+02  0.00000000000E+00 0. -1.
</event>
<event>
 7    1  0.2943257E-009  0.3791045E+03  0.7561462E-02  0.1051265E+00
         -2   -1    0    0    0  501 -0.00000000000E+00  0.00000000000E+00  0.11431373318E+03  0.11431373318E+03  0.00000000000E+00 0.  1.
          2   -1    0    0  501    0  0.00000000000E+00 -0.00000000000E+00 -0.13355287748E+04  0.13355287748E+04  0.00000000000E+00 0. -1.
         25    2    1    2    0    0 -0.32855197170E+03  0.16691102029E+03 -0.48759854377E+03  0.62386337796E+03  0.12508991832E+03 0.  0.
          5    1    3    3  502    0 -0.33237119113E+03  0.14580605776E+03 -0.47749118014E+03  0.59978772469E+03  0.41800000000E+01 0.  1.
         -5    1    3    3    0  502  0.38192194328E+01  0.21104962536E+02 -0.10107363628E+02  0.24075653267E+02  0.41800000000E+01 0.  1.
        -11    1    1    2    0    0  0.21307666709E+03 -0.13957340337E+03 -0.42704548727E+03  0.49724264619E+03  0.00000000000E+00 0. -1.
         11    1    1    2    0    0  0.11547530461E+03 -0.27337616917E+02 -0.30657101054E+03  0.32873648379E+03  0.00000000000E+00 0.  1.
</event>
<event>
 7    1  0.2943257E-009  0.1084644E+03  0.7561462E-02  0.1263440E+00
         -3   -1    0    0    0  501 -0.00000000000E+00  0.00000000000E+00  0.30419521202E+03  0.30419521202E+03  0.00000000000E+00 0.  1.
          3   -1    0    0  501    0  0.00000000000E+00 -0.00000000000E+00 -0.51701564756E+02  0.51701564756E+02  0.00000000000E+00 0. -1.
         25    2    1    2    0    0 -0.31995736698E+02 -0.39551038995E+02  0.87115802113E+02  0.16070053702E+03  0.12508991873E+03 0.  0.
          5    1    3    3  502    0 -0.29510708460E+01 -0.80591094888E+02  0.34528675232E+02  0.87825595401E+02  0.41800000000E+01 0. -1.
         -5    1    3    3    0  502 -0.29044665852E+02  0.41040055893E+02  0.52587126880E+02  0.72874941617E+02  0.41800000000E+01 0. -1.
        -11    1    1    2    0    0  0.38605285392E+01 -0.19730566858E+02  0.33457414098E+01  0.20381190709E+02  0.00000000000E+00 0. -1.
         11    1    1    2    0    0  0.28135208159E+02  0.59281605853E+02  0.16203210374E+03  0.17481504904E+03  0.00000000000E+00 0.  1.
</event>
<event>
 7    1  0.2943257E-009  0.1053881E+03  0.7561462E-02  0.1269357E+00
          1   -1    0    0  501    0  0.00000000000E+00  0.00000000000E+00  0.74222220704E+02  0.74222220704E+02  0.00000000000E+00 0. -1.
         -1   -1    0    0    0  501 -0.00000000000E+00 -0.00000000000E+00 -0.17046989110E+03  0.17046989110E+03  0.00000000000E+00 0.  1.
         25    2    1    2    0    0 -0.19330940436E+02  0.21835363336E+02 -0.46750386391E+02  0.13669038251E+03  0.12509274037E+03 0.  0.
          5    1    3    3  502    0  0.33916978158E+02  0.55154427963E+02 -0.30386055572E+02  0.71646054354E+02  0.41800000000E+01 0. -1.
         -5    1    3    3    0  502 -0.53247918594E+02 -0.33319064627E+02 -0.16364330820E+02  0.65044328157E+02  0.41800000000E+01 0. -1.
        -11    1    1    2    0    0 -0.29759628973E+02 -0.14772446064E+01 -0.45916121587E+02  0.54736715191E+02  0.00000000000E+00 0.  1.
         11    1    1    2    0    0  0.49090569409E+02 -0.20358118730E+02 -0.35811624193E+01  0.53265014103E+02  0.00000000000E+00 0. -1.
</event>
<event>
 7    1  0.2943257E-009  0.8208360E+02  0.7561462E-02  0.1323240E+00
          1   -1    0    0  501    0  0.00000000000E+00  0.00000000000E+00  0.72046772466E+03  0.72046772466E+03  0.00000000000E+00 0. -1.
         -1   -1    0    0    0  501 -0.00000000000E+00 -0.00000000000E+00 -0.16770571651E+02  0.16770571651E+02  0.00000000000E+00 0.  1.
         25    2    1    2    0    0 -0.21350188577E+01 -0.13685950968E+02  0.36965914172E+03  0.39049289907E+03  0.12507981294E+03 0.  0.
          5    1    3    3  502    0  0.29631155241E+02  0.97639203577E+01  0.33866141282E+03  0.34012110261E+03  0.41800000000E+01 0. -1.
         -5    1    3    3    0  502 -0.31766174099E+02 -0.23449871325E+02  0.30997728899E+02  0.50371796463E+02  0.41800000000E+01 0. -1.
        -11    1    1    2    0    0 -0.12158446470E+02  0.51313612328E+02  0.18542707862E+03  0.19277996814E+03  0.00000000000E+00 0.  1.
         11    1    1    2    0    0  0.14293465328E+02 -0.37627661360E+02  0.14861093266E+03  0.15396542910E+03  0.00000000000E+00 0. -1.
</event>
<event>
 7    1  0.2943257E-009  0.1657157E+03  0.7561462E-02  0.1182391E+00
         -2   -1    0    0    0  501 -0.00000000000E+00  0.00000000000E+00  0.49703957256E+02  0.49703957256E+02  0.00000000000E+00 0.  1.
          2   -1    0    0  501    0  0.00000000000E+00 -0.00000000000E+00 -0.73725846407E+03  0.73725846407E+03  0.00000000000E+00 0. -1.
         25    2    1    2    0    0 -0.87141794902E+02  0.13039317483E+03 -0.34472280048E+03  0.39884660172E+03  0.12509488430E+03 0.  0.
          5    1    3    3  502    0  0.11997128886E+02  0.32044189524E+01 -0.12804101233E+03  0.12870964471E+03  0.41800000000E+01 0.  1.
         -5    1    3    3    0  502 -0.99138923788E+02  0.12718875588E+03 -0.21668178814E+03  0.27013695702E+03  0.41800000000E+01 0.  1.
        -11    1    1    2    0    0  0.16505101155E+02 -0.30316879315E+02 -0.18569153475E+03  0.18887264919E+03  0.00000000000E+00 0. -1.
         11    1    1    2    0    0  0.70636693747E+02 -0.10007629552E+03 -0.15714017159E+03  0.19924317041E+03  0.00000000000E+00 0.  1.
</event>
<event>
 7    1  0.2943257E-009  0.1562122E+03  0.7561462E-02  0.1193041E+00
         -1   -1    0    0    0  501 -0.00000000000E+00  0.00000000000E+00  0.42327374471E+02  0.42327374471E+02  0.00000000000E+00 0.  1.
          1   -1    0    0  501    0  0.00000000000E+00 -0.00000000000E+00 -0.66921747621E+03  0.66921747621E+03  0.00000000000E+00 0. -1.
         25    2    1    2    0    0 -0.11326484066E+03 -0.47361173707E+01 -0.20711522319E+03  0.26719979039E+03  0.12509059664E+03 0.  0.
          5    1    3    3  502    0  0.22532314562E+02  0.17780842087E+02 -0.21643278640E+02  0.36190709514E+02  0.41800000000E+01 0.  1.
         -5    1    3    3    0  502 -0.13579715522E+03 -0.22516959457E+02 -0.18547194456E+03  0.23100908088E+03  0.41800000000E+01 0.  1.
        -11    1    1    2    0    0  0.67404800110E+02  0.47927272344E+02 -0.24039502904E+03  0.25422470473E+03  0.00000000000E+00 0.  1.
         11    1    1    2    0    0  0.45860040553E+02 -0.43191154973E+02 -0.17937984951E+03  0.19012035555E+03  0.00000000000E+00 0. -1.
</event>
<event>
 7    1  0.2943257E-009  0.1284980E+03  0.7561462E-02  0.1229702E+00
         -1   -1    0    0    0  501 -0.00000000000E+00  0.00000000000E+00  0.10529607926E+03  0.10529607926E+03  0.00000000000E+00 0.  1.
          1   -1    0    0  501    0  0.00000000000E+00 -0.00000000000E+00 -0.22283325974E+03  0.22283325974E+03  0.00000000000E+00 0. -1.
         25    2    1    2    0    0 -0.87283565794E+02 -0.40925759690E+02 -0.94153455773E+01  0.15820649903E+03  0.12508920392E+03 0.  0.
          5    1    3    3  502    0 -0.86283928278E+02 -0.73798099289E+02  0.18193923557E+02  0.11506331732E+03  0.41800000000E+01 0.  1.
         -5    1    3    3    0  502 -0.99963751529E+00  0.32872339599E+02 -0.27609269135E+02  0.43143181709E+02  0.41800000000E+01 0.  1.
        -11    1    1    2    0    0  0.82121007964E+02  0.14609700677E+02 -0.32210553239E+02  0.89413774347E+02  0.00000000000E+00 0.  1.
         11    1    1    2    0    0  0.51625578294E+01  0.26316059013E+02 -0.75911281662E+02  0.80509065631E+02  0.00000000000E+00 0. -1.
</event>
<event>
 7    1  0.2943257E-009  0.1562124E+03  0.7561462E-02  0.1193041E+00
         -1   -1    0    0    0  501 -0.00000000000E+00  0.00000000000E+00  0.13282158639E+03  0.13282158639E+03  0.00000000000E+00 0.  1.
          1   -1    0    0  501    0  0.00000000000E+00 -0.00000000000E+00 -0.25659039284E+03  0.25659039284E+03  0.00000000000E+00 0. -1.
         25    2    1    2    0    0 -0.13282057115E+03  0.21317080726E+02 -0.13427460262E+03  0.22753697790E+03  0.12509070849E+03 0.  0.
          5    1    3    3  502    0 -0.10764162638E+03  0.44472911735E+02 -0.14975352137E+03  0.18975813335E+03  0.41800000000E+01 0.  1.
         -5    1    3    3    0  502 -0.25178944770E+02 -0.23155831009E+02  0.15478918757E+02  0.37778844547E+02  0.41800000000E+01 0.  1.
        -11    1    1    2    0    0  0.13735674346E+03  0.22957791324E+01  0.67772006014E+01  0.13754299700E+03  0.00000000000E+00 0.  1.
         11    1    1    2    0    0 -0.45361723107E+01 -0.23612859859E+02  0.37285955611E+01  0.24332004332E+02  0.00000000000E+00 0. -1.
</event>
<event>
 7    1  0.2943257E-009  0.9546339E+02  0.7561462E-02  0.1290136E+00
          2   -1    0    0  501    0  0.00000000000E+00  0.00000000000E+00  0.13946529227E+03  0.13946529227E+03  0.00000000000E+00 0. -1.
         -2   -1    0    0    0  501 -0.00000000000E+00 -0.00000000000E+00 -0.89959342267E+02  0.89959342267E+02  0.00000000000E+00 0.  1.
         25    2    1    2    0    0  0.18035519697E+02 -0.57542202617E+01  0.78414947535E+01  0.12676001070E+03  0.12509284653E+03 0.  0.
          5    1    3    3  502    0 -0.52486121186E+02  0.11273559467E+02  0.29068047550E+01  0.53924094560E+02  0.41800000000E+01 0. -1.
         -5    1    3    3    0  502  0.70521640883E+02 -0.17027779728E+02  0.49346899985E+01  0.72835916145E+02  0.41800000000E+01 0. -1.
        -11    1    1    2    0    0 -0.19044976224E+02  0.32488512521E+02 -0.14578818363E+02  0.40382626339E+02  0.00000000000E+00 0.  1.
         11    1    1    2    0    0  0.10094565270E+01 -0.26734292260E+02  0.56243273612E+02  0.62281997492E+02  0.00000000000E+00 0. -1.
</event>
<event>
 7    1  0.2943257E-009  0.1185187E+03  0.7561462E-02  0.1245561E+00
         -2   -1    0    0    0  501 -0.00000000000E+00  0.00000000000E+00  0.11303821359E+03  0.11303821359E+03  0.00000000000E+00 0.  1.
          2   -1    0    0  501    0  0.00000000000E+00 -0.00000000000E+00 -0.14076364833E+03  0.14076364833E+03  0.00000000000E+00 0. -1.
         25    2    1    2    0    0  0.36193135150E+02  0.50023146313E+02 -0.30751218201E+02  0.14284790405E+03  0.12509047954E+03 0.  0.
          5    1    3    3  502    0 -0.32747695610E+02 -0.10622999258E+02  0.17709775536E+02  0.38940573064E+02  0.41800000000E+01 0. -1.
         -5    1    3    3    0  502  0.68940830760E+02  0.60646145571E+02 -0.48460993738E+02  0.10390733099E+03  0.41800000000E+01 0. -1.
        -11    1    1    2    0    0 -0.56621876920E+02 -0.23075319483E+00  0.66518368326E+01  0.57011727971E+02  0.00000000000E+00 0.  1.
         11    1    1    2    0    0  0.20428741770E+02 -0.49792393118E+02 -0.36260533702E+01  0.53942229892E+02  0.00000000000E+00 0. -1.
</event>
<event>
 7    1  0.2943257E-009  0.1110225E+03  0.7561462E-02  0.1258688E+00
          2   -1    0    0  501    0  0.00000000000E+00  0.00000000000E+00  0.18999737573E+03  0.18999737573E+03  0.00000000000E+00 0. -1.
         -2   -1    0    0    0  501 -0.00000000000E+00 -0.00000000000E+00 -0.82540840175E+02  0.82540840175E+02  0.00000000000E+00 0.  1.
         25    2    1    2    0    0 -0.49612957991E+01 -0.50104003423E+02  0.98211524535E+02  0.16681495431E+03  0.12508676915E+03 0.  0.
          5    1    3    3  502    0  0.11421893875E+02 -0.90360886934E+02  0.66596647905E+02  0.11290764128E+03  0.41800000000E+01 0.  1.
         -5    1    3    3    0  502 -0.16383189674E+02  0.40256883511E+02  0.31614876630E+02  0.53907313031E+02  0.41800000000E+01 0.  1.
        -11    1    1    2    0    0 -0.33110548232E+02  0.20118646734E+02 -0.25243513362E+02  0.46241791893E+02  0.00000000000E+00 0.  1.
         11    1    1    2    0    0  0.38071844031E+02  0.29985356690E+02  0.34488524383E+02  0.59481469702E+02  0.00000000000E+00 0. -1.
</event>
<event>
 7    1  0.2943257E-009  0.1835084E+03  0.7561462E-02  0.1164450E+00
          2   -1    0    0  501    0  0.00000000000E+00  0.00000000000E+00  0.47994853205E+02  0.47994853205E+02  0.00000000000E+00 0. -1.
         -2   -1    0    0    0  501 -0.00000000000E+00 -0.00000000000E+00 -0.83359831197E+03  0.83359831197E+03  0.00000000000E+00 0.  1.
         25    2    1    2    0    0 -0.71231223668E+02  0.15204338044E+03 -0.40968716537E+03  0.46008909601E+03  0.12508927225E+03 0.  0.
          5    1    3    3  502    0 -0.97890820009E+02  0.13403639162E+03 -0.38515396848E+03  0.41941556809E+03  0.41800000000E+01 0. -1.
         -5    1    3    3    0  502  0.26659596341E+02  0.18006988823E+02 -0.24533196895E+02  0.40673527919E+02  0.41800000000E+01 0. -1.
        -11    1    1    2    0    0  0.37788777039E+02 -0.63453168603E+02 -0.71861919761E+02  0.10304577520E+03  0.00000000000E+00 0. -1.
         11    1    1    2    0    0  0.33442446629E+02 -0.88590211838E+02 -0.30405437363E+03  0.31845829396E+03  0.00000000000E+00 0.  1.
</event>
<event>
 7    1  0.2943257E-009  0.1079866E+03  0.7561462E-02  0.1264344E+00
         -1   -1    0    0    0  501 -0.00000000000E+00  0.00000000000E+00  0.20274761601E+03  0.20274761601E+03  0.00000000000E+00 0.  1.
          1   -1    0    0  501    0  0.00000000000E+00 -0.00000000000E+00 -0.69480665570E+02  0.69480665570E+02  0.00000000000E+00 0. -1.
         25    2    1    2    0    0 -0.31136338616E+01  0.27205551845E+02  0.12867662668E+03  0.18153641340E+03  0.12509179976E+03 0.  0.
          5    1    3    3  502    0  0.41672522081E+02 -0.31024686440E+02  0.70829216505E+02  0.87939641664E+02  0.41800000000E+01 0.  1.
         -5    1    3    3    0  502 -0.44786155942E+02  0.58230238285E+02  0.57847410180E+02  0.93596771736E+02  0.41800000000E+01 0.  1.
        -11    1    1    2    0    0  0.44593511231E+02 -0.13822581907E+02 -0.13339468232E+01  0.46705721584E+02  0.00000000000E+00 0.  1.
         11    1    1    2    0    0 -0.41479877370E+02 -0.13382969938E+02  0.59242705827E+01  0.43986146602E+02  0.00000000000E+00 0. -1.
</event>
<event>
 7    1  0.2943257E-009  0.1344730E+03  0.7561462E-02  0.1220966E+00
          2   -1    0    0  501    0  0.00000000000E+00  0.00000000000E+00  0.15283068013E+03  0.15283068013E+03  0.00000000000E+00 0. -1.
         -2   -1    0    0    0  501 -0.00000000000E+00 -0.00000000000E+00 -0.17213686098E+03  0.17213686098E+03  0.00000000000E+00 0.  1.
         25    2    1    2    0    0 -0.11290621326E+03 -0.40463554944E+02 -0.10450058367E+02  0.17362077935E+03  0.12509939660E+03 0.  0.
          5    1    3    3  502    0 -0.93373457673E+02 -0.18713091572E+02 -0.62353466717E+02  0.11390438800E+03  0.41800000000E+01 0.  1.
         -5    1    3    3    0  502 -0.19532755590E+02 -0.21750463373E+02  0.51903408349E+02  0.59716391352E+02  0.41800000000E+01 0.  1.
        -11    1    1    2    0    0  0.24914187850E+02 -0.24326672297E+02  0.17456049540E+02  0.38951475028E+02  0.00000000000E+00 0. -1.
         11    1    1    2    0    0  0.87992025413E+02  0.64790227241E+02 -0.26312172018E+02  0.11239528673E+03  0.00000000000E+00 0.  1.
</event>
<event>
 7    1  0.2943257E-009  0.1008966E+03  0.7561462E-02  0.1278422E+00
          1   -1    0    0  501    0  0.00000000000E+00  0.00000000000E+00  0.27973884237E+02  0.27973884237E+02  0.00000000000E+00 0. -1.
         -1   -1    0    0    0  501 -0.00000000000E+00 -0.00000000000E+00 -0.63015115879E+03  0.63015115879E+03  0.00000000000E+00 0.  1.
         25    2    1    2    0    0  0.19726439109E+02  0.27433835712E+02 -0.50142760849E+03  0.51789928318E+03  0.12509305824E+03 0.  0.
          5    1    3    3  502    0  0.70050328685E+02  0.34348567721E+02 -0.28135616777E+03  0.29200280512E+03  0.41800000000E+01 0. -1.
         -5    1    3    3    0  502 -0.50323889576E+02 -0.69147320090E+01 -0.22007144072E+03  0.22589647806E+03  0.41800000000E+01 0. -1.
        -11    1    1    2    0    0  0.17286801178E+02 -0.31016268975E+02 -0.96466005184E+02  0.10279364082E+03  0.00000000000E+00 0.  1.
         11    1    1    2    0    0 -0.37013240287E+02  0.35824332633E+01 -0.42836608789E+01  0.37432119031E+02  0.00000000000E+00 0. -1.
</event>
<event>
 7    1  0.2943257E-009  0.9307305E+02  0.7561462E-02  0.1295576E+00
         -1   -1    0    0    0  501 -0.00000000000E+00  0.00000000000E+00  0.16283030937E+03  0.16283030937E+03  0.00000000000E+00 0.  1.
          1   -1    0    0  501    0  0.00000000000E+00 -0.00000000000E+00 -0.10216672622E+03  0.10216672622E+03  0.00000000000E+00 0. -1.
         25    2    1    2    0    0  0.59747229916E+02  0.79182070345E+01  0.58486255161E+02  0.15066878475E+03  0.12509201081E+03 0.  0.
          5    1    3    3  502    0  0.31533265832E+02  0.41331130199E+02 -0.23847547387E+02  0.57347947600E+02  0.41800000000E+01 0.  1.
         -5    1    3    3    0  502  0.28213964084E+02 -0.33412923164E+02  0.82333802548E+02  0.93320837146E+02  0.41800000000E+01 0.  1.
        -11    1    1    2    0    0 -0.24246721603E+02 -0.36953945229E+02 -0.34123286284E+02  0.55838125356E+02  0.00000000000E+00 0. -1.
         11    1    1    2    0    0 -0.35500508313E+02  0.29035738195E+02  0.36300614269E+02  0.58490125485E+02  0.00000000000E+00 0.  1.
</event>
<event>
 7    1  0.2943257E-009  0.1566238E+03  0.7561462E-02  0.1192562E+00
         -2   -1    0    0    0  501 -0.00000000000E+00  0.00000000000E+00  0.55771022515E+03  0.55771022515E+03  0.00000000000E+00 0.  1.
          2   -1    0    0  501    0  0.00000000000E+00 -0.00000000000E+00 -0.58147992150E+02  0.58147992150E+02  0.00000000000E+00 0. -1.
         25    2    1    2    0    0 -0.40720165386E+02  0.12154155600E+03  0.15302130728E+03  0.23556871963E+03  0.12508644804E+03 0.  0.
          5    1    3    3  502    0  0.84922824003E+01  0.10985225500E+03  0.14801468072E+03  0.18456829331E+03  0.41800000000E+01 0. -1.
         -5    1    3    3    0  502 -0.49212447786E+02  0.11689301002E+02  0.50066265598E+01  0.51000426317E+02  0.41800000000E+01 0. -1.
        -11    1    1    2    0    0 -0.17363046987E+02 -0.77285673379E+02  0.13528459707E+03  0.15676885187E+03  0.00000000000E+00 0.  1.
         11    1    1    2    0    0  0.58083212373E+02 -0.44255882619E+02  0.21125632865E+03  0.22352064581E+03  0.00000000000E+00 0. -1.
</event>
<event>
 7    1  0.2943257E-009  0.9801609E+02  0.7561462E-02  0.1284524E+00
         -1   -1    0    0    0  501 -0.00000000000E+00  0.00000000000E+00  0.27808512382E+03  0.27808512382E+03  0.00000000000E+00 0.  1.
          1   -1    0    0  501    0  0.00000000000E+00 -0.00000000000E+00 -0.55561048329E+02  0.55561048329E+02  0.00000000000E+00 0. -1.
         25    2    1    2    0    0  0.50736339936E+02 -0.29611210020E+02  0.14798185810E+03  0.20247463890E+03  0.12508536734E+03 0.  0.
          5    1    3    3  502    0  0.46948291648E+01  0.40432468916E+02  0.94444263502E+02  0.10292724261E+03  0.41800000000E+01 0.  1.
         -5    1    3    3    0  502  0.46041510771E+02 -0.70043678936E+02  0.53537594597E+02  0.99547396291E+02  0.41800000000E+01 0.  1.
        -11    1    1    2    0    0 -0.27451255055E+02  0.37614971500E+02  0.90536688488E+02  0.10181036022E+03  0.00000000000E+00 0.  1.
         11    1    1    2    0    0 -0.23285084881E+02 -0.80037614801E+01 -0.15994471098E+02  0.29361173026E+02  0.00000000000E+00 0. -1.
</event>
<event>
 7    1  0.2943257E-009  0.1147690E+03  0.7561462E-02  0.1251985E+00
          2   -1    0    0  501    0  0.00000000000E+00  0.00000000000E+00  0.66455475486E+03  0.66455475486E+03  0.00000000000E+00 0. -1.
         -2   -1    0    0    0  501 -0.00000000000E+00 -0.00000000000E+00 -0.23030790904E+02  0.23030790904E+02  0.00000000000E+00 0.  1.
         25    2    1    2    0    0 -0.36265953720E+02  0.47142893821E+02  0.32755256484E+03  0.35563394365E+03  0.12508855785E+03 0.  0.
          5    1    3    3  502    0 -0.61015082485E+02  0.67640104081E+02  0.15312016305E+03  0.17821694842E+03  0.41800000000E+01 0.  1.
         -5    1    3    3    0  502  0.24749128765E+02 -0.20497210260E+02  0.17443240179E+03  0.17741699523E+03  0.41800000000E+01 0.  1.
        -11    1    1    2    0    0 -0.29283833110E+02 -0.13102305459E+02  0.12518784324E+03  0.12923315900E+03  0.00000000000E+00 0. -1.
         11    1    1    2    0    0  0.65549786830E+02 -0.34040588362E+02  0.18878355587E+03  0.20271844311E+03  0.00000000000E+00 0.  1.
</event>
<event>
 7    1  0.2943257E-009  0.9166165E+02  0.7561462E-02  0.1298877E+00
          3   -1    0    0  501    0  0.00000000000E+00  0.00000000000E+00  0.41564741273E+03  0.41564741273E+03  0.00000000000E+00 0. -1.
         -3   -1    0    0    0  501 -0.00000000000E+00 -0.00000000000E+00 -0.31603036791E+02  0.31603036791E+02  0.00000000000E+00 0.  1.
         25    2    1    2    0    0 -0.21420426494E+02  0.29586625021E+02  0.20447809830E+03  0.24246945659E+03  0.12508373853E+03 0.  0.
          5    1    3    3  502    0  0.41098152465E+02  0.16841149259E+01  0.20553446346E+02  0.46171538157E+02  0.41800000000E+01 0.  1.
         -5    1    3    3    0  502 -0.62518578959E+02  0.27902510095E+02  0.18392465195E+03  0.19629791843E+03  0.41800000000E+01 0.  1.
        -11    1    1    2    0    0 -0.22779156228E+02 -0.12645314342E+02  0.86823670022E+01  0.27462291055E+02  0.00000000000E+00 0.  1.
         11    1    1    2    0    0  0.44199582722E+02 -0.16941310678E+02  0.17088391063E+03  0.17731870187E+03  0.00000000000E+00 0. -1.
</event>
<event>
 7    1  0.2943257E-009  0.7782053E+02  0.7561462E-02  0.1335353E+00
          1   -1    0    0  501    0  0.00000000000E+00  0.00000000000E+00  0.79666882987E+03  0.79666882987E+03  0.00000000000E+00 0. -1.
         -1   -1    0    0    0  501 -0.00000000000E+00 -0.00000000000E+00 -0.26811215721E+02  0.26811215721E+02  0.00000000000E+00 0.  1.
         25    2    1    2    0    0  0.54994312620E+02  0.24997241933E+02  0.64027024758E+03  0.65516614169E+03  0.12508975483E+03 0.  0.
          5    1    3    3  502    0  0.22138765805E+02 -0.63727914056E+01  0.57532027797E+03  0.57579651967E+03  0.41800000000E+01 0. -1.
         -5    1    3    3    0  502  0.32855546815E+02  0.31370033338E+02  0.64949969611E+02  0.79369622027E+02  0.41800000000E+01 0. -1.
        -11    1    1    2    0    0  0.13613044069E+02 -0.69687056198E-01  0.77384208453E+02  0.78572485916E+02  0.00000000000E+00 0. -1.
         11    1    1    2    0    0 -0.68607356689E+02 -0.24927554876E+02  0.52203158121E+02  0.89741417984E+02  0.00000000000E+00 0.  1.
</event>
<event>
 7    1  0.2943257E-009  0.1085090E+03  0.7561462E-02  0.1263356E+00
          1   -1    0    0  501    0  0.00000000000E+00  0.00000000000E+00  0.21026684757E+03  0.21026684757E+03  0.00000000000E+00 0. -1.
         -1   -1    0    0    0  501 -0.00000000000E+00 -0.00000000000E+00 -0.80382010638E+02  0.80382010638E+02  0.00000000000E+00 0.  1.
         25    2    1    2    0    0 -0.26663788771E+02  0.78163908546E+02  0.66003076833E+02  0.16379208920E+03  0.12510350955E+03 0.  0.
          5    1    3    3  502    0 -0.46317041173E+02  0.27884400175E+02  0.89598150412E+02  0.10472874024E+03  0.41800000000E+01 0.  1.
         -5    1    3    3    0  502  0.19653252401E+02  0.50279508371E+02 -0.23595073579E+02  0.59063348950E+02  0.41800000000E+01 0.  1.
        -11    1    1    2    0    0  0.10610110479E+02  0.12601728813E+02  0.16096897363E+02  0.23032327676E+02  0.00000000000E+00 0.  1.
         11    1    1    2    0    0  0.16053678293E+02 -0.90765637359E+02  0.47784862735E+02  0.10382444134E+03  0.00000000000E+00 0. -1.
</event>
<event>
 7    1  0.2943257E-009  0.1009715E+03  0.7561462E-02  0.1278266E+00
          2   -1    0    0  501    0  0.00000000000E+00  0.00000000000E+00  0.11133382587E+03  0.11133382587E+03  0.00000000000E+00 0.  1.
         -2   -1    0    0    0  501 -0.00000000000E+00 -0.00000000000E+00 -0.15185250650E+03  0.15185250650E+03  0.00000000000E+00 0. -1.
         25    2    1    2    0    0  0.45351250099E+02  0.16617627378E+02 -0.74230047112E+02  0.15326443338E+03  0.12508798991E+03 0.  0.
          5    1    3    3  502    0  0.39688215063E+02  0.69820193309E+02 -0.44083503722E+02  0.91710640108E+02  0.41800000000E+01 0.  1.
         -5    1    3    3    0  502  0.56630350360E+01 -0.53202565932E+02 -0.30146543390E+02  0.61553793270E+02  0.41800000000E+01 0.  1.
        -11    1    1    2    0    0  0.69183952386E+01  0.75752827853E+01  0.49216533822E+02  0.50274410025E+02  0.00000000000E+00 0.  1.
         11    1    1    2    0    0 -0.52269645337E+02 -0.24192910163E+02 -0.15505167342E+02  0.59647488968E+02  0.00000000000E+00 0. -1.
</event>
<event>
 7    1  0.4645598E-009  0.8973750E+02  0.7561462E-02  0.1303489E+00
         -1   -1    0    0    0  501 -0.00000000000E+00  0.00000000000E+00  0.38662934164E+02  0.38662934164E+02  0.00000000000E+00 0.  1.
          1   -1    0    0  501    0  0.00000000000E+00 -0.00000000000E+00 -0.36085344606E+03  0.36085344606E+03  0.00000000000E+00 0. -1.
         25    2    1    2    0    0 -0.55788646097E+00  0.47588437016E+02 -0.18126723532E+03  0.22532224535E+03  0.12508930040E+03 0.  0.
          5    1    3    3  502    0 -0.13057990969E+02  0.86157168200E+02 -0.15159824507E+03  0.17490874497E+03  0.41800000000E+01 0. -1.
         -5    1    3    3    0  502  0.12500104508E+02 -0.38568731184E+02 -0.29668990248E+02  0.50413500377E+02  0.41800000000E+01 0. -1.
        -11    1    1    2    0    0  0.10048429402E+02 -0.22105570491E+02  0.58057122727E+01  0.24966647255E+02  0.00000000000E+00 0.  1.
         11    1    1    2    0    0 -0.94905429410E+01 -0.25482866525E+02 -0.14672898886E+03  0.14922748762E+03  0.00000000000E+00 0. -1.
</event>
<event>
 7    1  0.2943257E-009  0.1198774E+03  0.7561462E-02  0.1243299E+00
         -2   -1    0    0    0  501 -0.00000000000E+00  0.00000000000E+00  0.13142051563E+02  0.13142051563E+02  0.00000000000E+00 0.  1.
          2   -1    0    0  501    0  0.00000000000E+00 -0.00000000000E+00 -0.13338092850E+04  0.13338092850E+04  0.00000000000E+00 0. -1.
         25    2    1    2    0    0 -0.22347681577E+02  0.67092415580E+02 -0.83293452648E+03  0.84523829701E+03  0.12508813786E+03 0.  0.
          5    1    3    3  502    0  0.36184944482E+02  0.42896764651E+01 -0.87658789262E+02  0.95022561879E+02  0.41800000000E+01 0. -1.
         -5    1    3    3    0  502 -0.58532626059E+02  0.62802739115E+02 -0.74527573721E+03  0.75021573513E+03  0.41800000000E+01 0. -1.
        -11    1    1    2    0    0  0.14847156437E+02  0.22643342287E+02 -0.94571612818E+02  0.98371484462E+02  0.00000000000E+00 0.  1.
         11    1    1    2    0    0  0.75005251406E+01 -0.89735757867E+02 -0.39316109416E+03  0.40334155511E+03  0.00000000000E+00 0. -1.
</event>
<event>
 7    1  0.2943257E-009  0.7652326E+02  0.7561462E-02  0.1339218E+00
         -2   -1    0    0    0  501 -0.00000000000E+00  0.00000000000E+00  0.33990025936E+02  0.33990025936E+02  0.00000000000E+00 0.  1.
          2   -1    0    0  501    0  0.00000000000E+00 -0.00000000000E+00 -0.38851043145E+03  0.38851043145E+03  0.00000000000E+00 0. -1.
         25    2    1    2    0    0  0.33477792359E+02 -0.39160578755E+01 -0.14446462425E+03  0.19403994201E+03  0.12508146683E+03 0.  0.
          5    1    3    3  502    0  0.42077710749E+02 -0.27654730134E+02 -0.33637745952E+01  0.50636994581E+02  0.41800000000E+01 0.  1.
         -5    1    3    3    0  502 -0.85999183895E+01  0.23738672258E+02 -0.14110084966E+03  0.14340294743E+03  0.41800000000E+01 0.  1.
        -11    1    1    2    0    0 -0.46548768429E+02  0.24456668537E+02 -0.77289931307E+02  0.93480746465E+02  0.00000000000E+00 0. -1.
         11    1    1    2    0    0  0.13070976069E+02 -0.20540610661E+02 -0.13276584996E+03  0.13497976892E+03  0.00000000000E+00 0.  1.
</event>
<event>
 7    1  0.2943257E-009  0.1063014E+03  0.7561462E-02  0.1267577E+00
         -1   -1    0    0    0  501 -0.00000000000E+00  0.00000000000E+00  0.36560951490E+03  0.36560951490E+03  0.00000000000E+00 0.  1.
          1   -1    0    0  501    0  0.00000000000E+00 -0.00000000000E+00 -0.35904937693E+02  0.35904937693E+02  0.00000000000E+00 0. -1.
         25    2    1    2    0    0 -0.17549873322E+02 -0.24464038544E+02  0.14402803190E+03  0.19312004309E+03  0.12507913429E+03 0.  0.
          5    1    3    3  502    0 -0.60474935107E+02  0.20283996864E+02  0.92228485405E+02  0.11221508020E+03  0.41800000000E+01 0. -1.
         -5    1    3    3    0  502  0.42925061786E+02 -0.44748035409E+02  0.51799546492E+02  0.80904962883E+02  0.41800000000E+01 0. -1.
        -11    1    1    2    0    0 -0.29157657880E+02  0.27022465554E+02  0.12856629809E+03  0.13457219498E+03  0.00000000000E+00 0. -1.
         11    1    1    2    0    0  0.46707531202E+02 -0.25584270095E+01  0.57110247218E+02  0.73822214523E+02  0.00000000000E+00 0.  1.
</event>
<event>
 7    1  0.2943257E-009  0.1282959E+03  0.7561462E-02  0.1230006E+00
         -1   -1    0    0    0  501 -0.00000000000E+00  0.00000000000E+00  0.30761394835E+03  0.30761394835E+03  0.00000000000E+00 0.  1.
          1   -1    0    0  501    0  0.00000000000E+00 -0.00000000000E+00 -0.71008538461E+02  0.71008538461E+02  0.00000000000E+00 0. -1.
         25    2    1    2    0    0  0.47538488106E+02  0.81257002090E+02  0.86574101024E+02  0.17890105413E+03  0.12509158229E+03 0.  0.
          5    1    3    3  502    0  0.42121519845E+02  0.98635317285E+02  0.19265694804E+02  0.10904947339E+03  0.41800000000E+01 0. -1.
         -5    1    3    3    0  502  0.54169682610E+01 -0.17378315196E+02  0.67308406220E+02  0.69851580741E+02  0.41800000000E+01 0. -1.
        -11    1    1    2    0    0  0.44668751329E+01  0.17988688871E+02  0.31978198795E+02  0.36961481287E+02  0.00000000000E+00 0.  1.
         11    1    1    2    0    0 -0.52005363239E+02 -0.99245690961E+02  0.11805311007E+03  0.16275995139E+03  0.00000000000E+00 0. -1.
</event>
<event>
 7    1  0.2943257E-009  0.9674028E+02  0.7561462E-02  0.1287304E+00
          1   -1    0    0  501    0  0.00000000000E+00  0.00000000000E+00  0.18809057224E+03  0.18809057224E+03  0.00000000000E+00 0. -1.
         -1   -1    0    0    0  501 -0.00000000000E+00 -0.00000000000E+00 -0.63094957594E+02  0.63094957594E+02  0.00000000000E+00 0.  1.
         25    2    1    2    0    0  0.61619526149E+01 -0.16632902208E+02  0.36783881997E+02  0.13158612661E+03  0.12508889498E+03 0.  0.
          5    1    3    3  502    0  0.59541197440E+02 -0.17535523402E+01 -0.79581553077E+01  0.60241462253E+02  0.41800000000E+01 0. -1.
         -5    1    3    3    0  502 -0.53379244826E+02 -0.14879349868E+02  0.44742037305E+02  0.71344664361E+02  0.41800000000E+01 0. -1.
        -11    1    1    2    0    0 -0.38702887613E+02 -0.51392702216E+01  0.59007047193E+02  0.70754202889E+02  0.00000000000E+00 0.  1.
         11    1    1    2    0    0  0.32540934998E+02  0.21772172429E+02  0.29204685456E+02  0.48845200331E+02  0.00000000000E+00 0. -1.
</event>
<event>
 7    1  0.2943257E-009  0.1219423E+03  0.7561462E-02  0.1239927E+00
          1   -1    0    0  501    0  0.00000000000E+00  0.00000000000E+00  0.65503337949E+02  0.65503337949E+02  0.00000000000E+00 0. -1.
         -1   -1    0    0    0  501 -0.00000000000E+00 -0.00000000000E+00 -0.27938107529E+03  0.27938107529E+03  0.00000000000E+00 0.  1.
         25    2    1    2    0    0 -0.43625743883E+02 -0.34356289696E+02 -0.19134462007E+03  0.23525373495E+03  0.12509195021E+03 0.  0.
          5    1    3    3  502    0 -0.63879780143E+02 -0.70465470151E+02 -0.13601061231E+03  0.16601917918E+03  0.41800000000E+01 0. -1.
         -5    1    3    3    0  502  0.20254036260E+02  0.36109180455E+02 -0.55334007765E+02  0.69234555774E+02  0.41800000000E+01 0. -1.
        -11    1    1    2    0    0  0.45115366685E+01 -0.30770872845E+02 -0.33776119697E+01  0.31282724328E+02  0.00000000000E+00 0.  1.
         11    1    1    2    0    0  0.39114207214E+02  0.65127162541E+02 -0.19155505302E+02  0.78347953962E+02  0.00000000000E+00 0. -1.
</event>
<event>
 7    1  0.2943257E-009  0.6047190E+02  0.7561462E-02  0.1395862E+00
          2   -1    0    0  501    0  0.00000000000E+00  0.00000000000E+00  0.59171251852E+02  0.59171251852E+02  0.00000000000E+00 0. -1.
         -2   -1    0    0    0  501 -0.00000000000E+00 -0.00000000000E+00 -0.20250543933E+03  0.20250543933E+03  0.00000000000E+00 0.  1.
         25    2    1    2    0    0  0.18348387178E+02 -0.42217571364E+01 -0.89388666279E+02  0.15490982426E+03  0.12510888636E+03 0.  0.
          5    1    3    3  502    0  0.84585872123E+01  0.13565156614E+02 -0.11822184677E+03  0.11937101250E+03  0.41800000000E+01 0. -1.
         -5    1    3    3    0  502  0.98897999656E+01 -0.17786913750E+02  0.28833180488E+02  0.35538811758E+02  0.41800000000E+01 0. -1.
        -11    1    1    2    0    0 -0.46585307450E+02 -0.15618176154E+02 -0.52961260216E+02  0.72242739291E+02  0.00000000000E+00 0. -1.
         11    1    1    2    0    0  0.28236920272E+02  0.19839933290E+02 -0.98426098508E+00  0.34524127637E+02  0.00000000000E+00 0.  1.
</event>
<event>
 7    1  0.2943257E-009  0.1194913E+03  0.7561462E-02  0.1243939E+00
          1   -1    0    0  501    0  0.00000000000E+00  0.00000000000E+00  0.35067979585E+03  0.35067979585E+03  0.00000000000E+00 0. -1.
         -1   -1    0    0    0  501 -0.00000000000E+00 -0.00000000000E+00 -0.78075795216E+02  0.78075795216E+02  0.00000000000E+00 0.  1.
         25    2    1    2    0    0  0.21086072017E+02 -0.11200923361E+03  0.82831789467E+02  0.18841118459E+03  0.12508788224E+03 0.  0.
          5    1    3    3  502    0  0.52475069849E+01 -0.10224017729E+03  0.11311607216E+03  0.15262145447E+03  0.41800000000E+01 0. -1.
         -5    1    3    3    0  502  0.15838565032E+02 -0.97690563133E+01 -0.30284282695E+02  0.35789730118E+02  0.41800000000E+01 0. -1.
        -11    1    1    2    0    0  0.37272633697E+01  0.56783977799E+02  0.20359916060E+02  0.60438719451E+02  0.00000000000E+00 0.  1.
         11    1    1    2    0    0 -0.24813335387E+02  0.55225255808E+02  0.16941229511E+03  0.17990568703E+03  0.00000000000E+00 0. -1.
</event>
<event>
 7    1  0.2943257E-009  0.1462351E+03  0.7561462E-02  0.1205177E+00
         -2   -1    0    0    0  501 -0.00000000000E+00  0.00000000000E+00  0.17462782487E+03  0.17462782487E+03  0.00000000000E+00 0.  1.
          2   -1    0    0  501    0  0.00000000000E+00 -0.00000000000E+00 -0.17986114715E+03  0.17986114715E+03  0.00000000000E+00 0. -1.
         25    2    1    2    0    0  0.13193060334E+03  0.23909382196E+02  0.37497747534E+02  0.18716523460E+03  0.12508957318E+03 0.  0.
          5    1    3    3  502    0  0.15256890729E+02 -0.37118553096E+01 -0.40791695539E+02  0.43908830655E+02  0.41800000000E+01 0.  1.
         -5    1    3    3    0  502  0.11667371261E+03  0.27621237506E+02  0.78289443072E+02  0.14325640395E+03  0.41800000000E+01 0.  1.
        -11    1    1    2    0    0 -0.51479614822E+02  0.29833398947E+02  0.44823146069E+01  0.59668028116E+02  0.00000000000E+00 0.  1.
         11    1    1    2    0    0 -0.80450988514E+02 -0.53742781143E+02 -0.47213384418E+02  0.10765570931E+03  0.00000000000E+00 0. -1.
</event>
<event>
 7    1  0.2943257E-009  0.1074196E+03  0.7561462E-02  0.1265424E+00
          4   -1    0    0  501    0  0.00000000000E+00  0.00000000000E+00  0.33457919196E+02  0.33457919196E+02  0.00000000000E+00 0. -1.
         -4   -1    0    0    0  501 -0.00000000000E+00 -0.00000000000E+00 -0.36705636526E+03  0.36705636526E+03  0.00000000000E+00 0.  1.
         25    2    1    2    0    0 -0.13047625818E+02  0.12008590653E+02 -0.16736899850E+03  0.20970116664E+03  0.12509097027E+03 0.  0.
          5    1    3    3  502    0  0.54465240171E+02 -0.11587530140E+01 -0.52657909348E+02  0.75882362327E+02  0.41800000000E+01 0. -1.
         -5    1    3    3    0  502 -0.67512865989E+02  0.13167343667E+02 -0.11471108915E+03  0.13381880431E+03  0.41800000000E+01 0. -1.
        -11    1    1    2    0    0 -0.19680922939E+02  0.31319420808E+02 -0.47071977684E+02  0.59866651238E+02  0.00000000000E+00 0. -1.
         11    1    1    2    0    0  0.32728548756E+02 -0.43328011461E+02 -0.11915746988E+03  0.13094646657E+03  0.00000000000E+00 0.  1.
</event>
<event>
 7    1  0.2943257E-009  0.1219801E+03  0.7561462E-02  0.1239866E+00
          2   -1    0    0  501    0  0.00000000000E+00  0.00000000000E+00  0.29516830288E+03  0.29516830288E+03  0.00000000000E+00 0. -1.
         -2   -1    0    0    0  501 -0.00000000000E+00 -0.00000000000E+00 -0.68492879875E+02  0.68492879875E+02  0.00000000000E+00 0.  1.
         25    2    1    2    0    0  0.88617401218E+02  0.16312715321E+02  0.14233140370E+03  0.20981939318E+03  0.12508717278E+03 0.  0.
          5    1    3    3  502    0  0.90257735644E+02 -0.27336223757E+02  0.13590326680E+03  0.16547174472E+03  0.41800000000E+01 0.  1.
         -5    1    3    3    0  502 -0.16403344267E+01  0.43648939078E+02  0.64281368963E+01  0.44347648457E+02  0.41800000000E+01 0.  1.
        -11    1    1    2    0    0 -0.56836129399E+02  0.17312132454E+02  0.20696465958E+01  0.59450306746E+02  0.00000000000E+00 0.  1.
         11    1    1    2    0    0 -0.31781271818E+02 -0.33624847775E+02  0.82274372708E+02  0.94391482830E+02  0.00000000000E+00 0. -1.
</event>
<event>
 7    1  0.2943257E-009  0.1045962E+03  0.7561462E-02  0.1270917E+00
         -2   -1    0    0    0  501 -0.00000000000E+00  0.00000000000E+00  0.16829133831E+03  0.16829133831E+03  0.00000000000E+00 0.  1.
          2   -1    0    0  501    0  0.00000000000E+00 -0.00000000000E+00 -0.10372331190E+03  0.10372331190E+03  0.00000000000E+00 0. -1.
         25    2    1    2    0    0 -0.17735118737E+02  0.73387100570E+02  0.42808952179E+02  0.15225032318E+03  0.12508938226E+03 0.  0.
          5    1    3    3  502    0  0.27814930337E+02 -0.16661675144E+02 -0.14898503662E+02  0.35926585972E+02  0.41800000000E+01 0.  1.
         -5    1    3    3    0  502 -0.45550049073E+02  0.90048775714E+02  0.57707455841E+02  0.11632373721E+03  0.41800000000E+01 0.  1.
        -11    1    1    2    0    0  0.10647077677E+02 -0.44658094602E+02  0.57360843475E+02  0.73470892473E+02  0.00000000000E+00 0.  1.
         11    1    1    2    0    0  0.70880410599E+01 -0.28729005967E+02 -0.35601769241E+02  0.46293434556E+02  0.00000000000E+00 0. -1.
</event>
<event>
 7    1  0.2943257E-009  0.9885641E+02  0.7561462E-02  0.1282719E+00
          1   -1    0    0  501    0  0.00000000000E+00  0.00000000000E+00  0.84566889751E+03  0.84566889751E+03  0.00000000000E+00 0. -1.
         -1   -1    0    0    0  501 -0.00000000000E+00 -0.00000000000E+00 -0.15154479596E+02  0.15154479596E+02  0.00000000000E+00 0.  1.
         25    2    1    2    0    0 -0.12409589524E+02  0.25426142587E+00  0.35723809720E+03  0.37870675518E+03  0.12508271569E+03 0.  0.
          5    1    3    3  502    0 -0.59387668225E+02 -0.12396026036E+00  0.29314792993E+03  0.29913223118E+03  0.41800000000E+01 0.  1.
         -5    1    3    3    0  502  0.46978078702E+02  0.37822168624E+00  0.64090167268E+02  0.79574524005E+02  0.41800000000E+01 0.  1.
        -11    1    1    2    0    0 -0.23383212281E+02 -0.34367231828E+02  0.18322583294E+03  0.18788184345E+03  0.00000000000E+00 0.  1.
         11    1    1    2    0    0  0.35792801805E+02  0.34112970402E+02  0.29005048776E+03  0.29423477847E+03  0.00000000000E+00 0. -1.
</event>
<event>
 7    1  0.2943257E-009  0.3113935E+02  0.7561462E-02  0.1585826E+00
         -2   -1    0    0    0  501 -0.00000000000E+00  0.00000000000E+00  0.79637374983E+02  0.79637374983E+02  0.00000000000E+00 0.  1.
          2   -1    0    0  501    0  0.00000000000E+00 -0.00000000000E+00 -0.17414935005E+03  0.17414935005E+03  0.00000000000E+00 0. -1.
         25    2    1    2    0    0  0.24635898905E+02 -0.90324454364E+01 -0.95785181966E+02  0.15971908790E+03  0.12508746288E+03 0.  0.
          5    1    3    3  502    0  0.19910096301E+02 -0.77718264965E+00 -0.12606907413E+03  0.12770238760E+03  0.41800000000E+01 0. -1.
         -5    1    3    3    0  502  0.47258026033E+01 -0.82552627867E+01  0.30283892160E+02  0.32016700303E+02  0.41800000000E+01 0. -1.
        -11    1    1    2    0    0 -0.17125166814E+02 -0.29602086990E+01  0.44930410159E+02  0.48174432337E+02  0.00000000000E+00 0.  1.
         11    1    1    2    0    0 -0.75107320905E+01  0.11992654135E+02 -0.43657203256E+02  0.45893204790E+02  0.00000000000E+00 0. -1.
</event>
<event>
 7    1  0.2943257E-009  0.1113222E+03  0.7561462E-02  0.1258141E+00
         -1   -1    0    0    0  501 -0.00000000000E+00  0.00000000000E+00  0.36281543674E+02  0.36281543674E+02  0.00000000000E+00 0.  1.
          1   -1    0    0  501    0  0.00000000000E+00 -0.00000000000E+00 -0.38635853511E+03  0.38635853511E+03  0.00000000000E+00 0. -1.
         25    2    1    2    0    0  0.12293967181E+02  0.28249920551E+02 -0.15192135036E+03  0.19917675841E+03  0.12506832035E+03 0.  0.
          5    1    3    3  502    0  0.67516893346E+02  0.85159298146E+01 -0.64711386247E+02  0.94000467327E+02  0.41800000000E+01 0. -1.
         -5    1    3    3    0  502 -0.55222926165E+02  0.19733990736E+02 -0.87209964117E+02  0.10517629108E+03  0.41800000000E+01 0. -1.
        -11    1    1    2    0    0 -0.35969490242E+02 -0.51284088618E+02 -0.16574205774E+03  0.17718434377E+03  0.00000000000E+00 0. -1.
         11    1    1    2    0    0  0.23675523060E+02  0.23034168067E+02 -0.32413583325E+02  0.46278976595E+02  0.00000000000E+00 0.  1.
</event>
<event>
 7    1  0.2943257E-009  0.1125344E+03  0.7561462E-02  0.1255947E+00
          2   -1    0    0  501    0  0.00000000000E+00  0.00000000000E+00  0.63486227088E+03  0.63486227088E+03  0.00000000000E+00 0. -1.
         -2   -1    0    0    0  501 -0.00000000000E+00 -0.00000000000E+00 -0.24261610142E+02  0.24261610142E+02  0.00000000000E+00 0.  1.
         25    2    1    2    0    0 -0.35992667217E+02 -0.13908913091E+02  0.31532972551E+03  0.34142388147E+03  0.12509396906E+03 0.  0.
          5    1    3    3  502    0 -0.39467190565E+01  0.51711461041E+02  0.18265891333E+03  0.18992472933E+03  0.41800000000E+01 0. -1.
         -5    1    3    3    0  502 -0.32045948160E+02 -0.65620374132E+02  0.13267081218E+03  0.15149915214E+03  0.41800000000E+01 0. -1.
        -11    1    1    2    0    0  0.61716065167E+02  0.30944172559E+02  0.10995018214E+03  0.12982856799E+03  0.00000000000E+00 0.  1.
         11    1    1    2    0    0 -0.25723397951E+02 -0.17035259468E+02  0.18532075310E+03  0.18787143156E+03  0.00000000000E+00 0. -1.
</event>
<event>
 7    1  0.2943257E-009  0.1142038E+03  0.7561462E-02  0.1252977E+00
          2   -1    0    0  501    0  0.00000000000E+00  0.00000000000E+00  0.53716934034E+03  0.53716934034E+03  0.00000000000E+00 0. -1.
         -2   -1    0    0    0  501 -0.00000000000E+00 -0.00000000000E+00 -0.34872912450E+02  0.34872912450E+02  0.00000000000E+00 0.  1.
         25    2    1    2    0    0 -0.20091731974E+02  0.80000422589E+02  0.27354843026E+03  0.31189756416E+03  0.12509037343E+03 0.  0.
          5    1    3    3  502    0 -0.31629177079E+02  0.91969169060E+02  0.10773317880E+03  0.14519863331E+03  0.41800000000E+01 0. -1.
         -5    1    3    3    0  502  0.11537445105E+02 -0.11968746471E+02  0.16581525145E+03  0.16669893085E+03  0.41800000000E+01 0. -1.
        -11    1    1    2    0    0 -0.37670277321E+01 -0.88509378323E+02  0.12410839003E+03  0.15248276305E+03  0.00000000000E+00 0.  1.
         11    1    1    2    0    0  0.23858759706E+02  0.85089557340E+01  0.10463960759E+03  0.10766192558E+03  0.00000000000E+00 0. -1.
</event>
<event>
 7    1  0.2943257E-009  0.8906273E+02  0.7561462E-02  0.1305137E+00
          1   -1    0    0  501    0  0.00000000000E+00  0.00000000000E+00  0.11514282616E+03  0.11514282616E+03  0.00000000000E+00 0. -1.
         -1   -1    0    0    0  501 -0.00000000000E+00 -0.00000000000E+00 -0.11913026466E+03  0.11913026466E+03  0.00000000000E+00 0.  1.
         25    2    1    2    0    0 -0.13299720670E+02  0.25092523939E+02 -0.34449972151E+02  0.13279885203E+03  0.12506884981E+03 0.  0.
          5    1    3    3  502    0  0.26342797518E+02 -0.30852461055E+02 -0.47784932955E+02  0.62822683417E+02  0.41800000000E+01 0.  1.
         -5    1    3    3    0  502 -0.39642518188E+02  0.55944984994E+02  0.13334960804E+02  0.69976168614E+02  0.41800000000E+01 0.  1.
        -11    1    1    2    0    0  0.37447797692E+02 -0.61334441313E+01  0.51708524365E+02  0.64138351872E+02  0.00000000000E+00 0. -1.
         11    1    1    2    0    0 -0.24148077022E+02 -0.18959079808E+02 -0.21245990711E+02  0.37335886923E+02  0.00000000000E+00 0.  1.
</event>
<event>
 7    1  0.2943257E-009  0.1197787E+03  0.7561462E-02  0.1243463E+00
          2   -1    0    0  501    0  0.00000000000E+00  0.00000000000E+00  0.41744143124E+03  0.41744143124E+03  0.00000000000E+00 0. -1.
         -2   -1    0    0    0  501 -0.00000000000E+00 -0.00000000000E+00 -0.53828336675E+02  0.53828336675E+02  0.00000000000E+00 0.  1.
         25    2    1    2    0    0 -0.69014353538E+02 -0.20022287155E+02  0.31278178473E+03  0.34444724533E+03  0.12509031529E+03 0.  0.
          5    1    3    3  502    0 -0.10576647673E+03 -0.14542908263E+02  0.23451385934E+03  0.25770577487E+03  0.41800000000E+01 0. -1.
         -5    1    3    3    0  502  0.36752123191E+02 -0.54793788927E+01  0.78267925393E+02  0.86741470459E+02  0.41800000000E+01 0. -1.
        -11    1    1    2    0    0  0.50609895575E+02  0.42628506142E+02 -0.23100109783E+01  0.66210929738E+02  0.00000000000E+00 0.  1.
         11    1    1    2    0    0  0.18404457963E+02 -0.22606218987E+02  0.53141320808E+02  0.60611592843E+02  0.00000000000E+00 0. -1.
</event>
<event>
 7    1  0.2943257E-009  0.1648111E+03  0.7561462E-02  0.1183370E+00
         -2   -1    0    0    0  501 -0.00000000000E+00  0.00000000000E+00  0.23633964765E+02  0.23633964765E+02  0.00000000000E+00 0. -1.
          2   -1    0    0  501    0  0.00000000000E+00 -0.00000000000E+00 -0.15176809785E+04  0.15176809785E+04  0.00000000000E+00 0.  1.
         25    2    1    2    0    0  0.47932668316E+02  0.14457707939E+03 -0.67363029429E+03  0.70187633994E+03  0.12511015388E+03 0.  0.
          5    1    3    3  502    0  0.36288833254E+02  0.12867466069E+03 -0.66756726522E+03  0.68083593744E+03  0.41800000000E+01 0. -1.
         -5    1    3    3    0  502  0.11643835062E+02  0.15902418702E+02 -0.60630290657E+01  0.21040402490E+02  0.41800000000E+01 0. -1.
        -11    1    1    2    0    0  0.24180552097E+02 -0.59264019472E+02 -0.36141874511E+03  0.36704282097E+03  0.00000000000E+00 0.  1.
         11    1    1    2    0    0 -0.72113220413E+02 -0.85313059916E+02 -0.45899797431E+03  0.47239578234E+03  0.00000000000E+00 0. -1.
</event>
<event>
 7    1  0.2943257E-009  0.3801133E+03  0.7561462E-02  0.1050892E+00
          1   -1    0    0  501    0  0.00000000000E+00  0.00000000000E+00  0.39747960239E+03  0.39747960239E+03  0.00000000000E+00 0. -1.
         -1   -1    0    0    0  501 -0.00000000000E+00 -0.00000000000E+00 -0.37637333675E+03  0.37637333675E+03  0.00000000000E+00 0.  1.
         25    2    1    2    0    0  0.29859774359E+03 -0.21869234897E+03  0.35850589369E+02  0.39232933097E+03  0.12510029261E+03 0.  0.
          5    1    3    3  502    0  0.15401838538E+03 -0.39275183437E+02  0.29930595113E+02  0.16179467232E+03  0.41800000000E+01 0. -1.
         -5    1    3    3    0  502  0.14457935821E+03 -0.17941716553E+03  0.59199942553E+01  0.23053465865E+03  0.41800000000E+01 0. -1.
        -11    1    1    2    0    0 -0.22579938024E+03  0.15340997454E+03 -0.50105544925E+02  0.27754377319E+03  0.00000000000E+00 0. -1.
         11    1    1    2    0    0 -0.72798363346E+02  0.65282374430E+02  0.35361221195E+02  0.10397983498E+03  0.00000000000E+00 0.  1.
</event>
<event>
 7    1  0.2943257E-009  0.1110317E+03  0.7561462E-02  0.1258671E+00
          1   -1    0    0  501    0  0.00000000000E+00  0.00000000000E+00  0.25471012993E+03  0.25471012993E+03  0.00000000000E+00 0. -1.
         -1   -1    0    0    0  501 -0.00000000000E+00 -0.00000000000E+00 -0.56251084317E+02  0.56251084317E+02  0.00000000000E+00 0.  1.
         25    2    1    2    0    0 -0.31529621370E+02  0.22040672544E+02  0.67660030533E+02  0.14732776634E+03  0.12509069803E+03 0.  0.
          5    1    3    3  502    0 -0.33329497341E+01  0.68786058265E+02  0.13474308789E+02  0.70296939926E+02  0.41800000000E+01 0.  1.
         -5    1    3    3    0  502 -0.28196671636E+02 -0.46745385721E+02  0.54185721743E+02  0.77030826417E+02  0.41800000000E+01 0.  1.
        -11    1    1    2    0    0  0.24070911896E+02  0.34069720806E+02  0.56265163978E+02  0.70042296884E+02  0.00000000000E+00 0.  1.
         11    1    1    2    0    0  0.74587094744E+01 -0.56110393351E+02  0.74533851100E+02  0.93591151017E+02  0.00000000000E+00 0. -1.
</event>
<event>
 7    1  0.2943257E-009  0.9853730E+02  0.7561462E-02  0.1283402E+00
          2   -1    0    0  501    0  0.00000000000E+00  0.00000000000E+00  0.15115327988E+03  0.15115327988E+03  0.00000000000E+00 0. -1.
         -2   -1    0    0    0  501 -0.00000000000E+00 -0.00000000000E+00 -0.90032802681E+02  0.90032802681E+02  0.00000000000E+00 0.  1.
         25    2    1    2    0    0  0.18293136200E+02 -0.39847593526E+02  0.35784832900E+02  0.13729961347E+03  0.12509260590E+03 0.  0.
          5    1    3    3  502    0 -0.43306101427E+02 -0.53080286817E+01 -0.19050187436E+02  0.47790957625E+02  0.41800000000E+01 0.  1.
         -5    1    3    3    0  502  0.61599237628E+02 -0.34539564845E+02  0.54835020336E+02  0.89508655846E+02  0.41800000000E+01 0.  1.
        -11    1    1    2    0    0 -0.26233393589E+01  0.58261405464E+02 -0.11868433216E+02  0.59515821284E+02  0.00000000000E+00 0.  1.
         11    1    1    2    0    0 -0.15669796841E+02 -0.18413811938E+02  0.37204077515E+02  0.44370647808E+02  0.00000000000E+00 0. -1.
</event>
<event>
 7    1  0.2943257E-009  0.2105822E+03  0.7561462E-02  0.1141106E+00
          2   -1    0    0  501    0  0.00000000000E+00  0.00000000000E+00  0.84095440640E+03  0.84095440640E+03  0.00000000000E+00 0. -1.
         -2   -1    0    0    0  501 -0.00000000000E+00 -0.00000000000E+00 -0.56074352346E+02  0.56074352346E+02  0.00000000000E+00 0.  1.
         25    2    1    2    0    0  0.38999611481E+02 -0.18244069478E+03  0.35597810073E+03  0.42092159385E+03  0.12509597580E+03 0.  0.
          5    1    3    3  502    0 -0.22314511861E+02 -0.14440922448E+03  0.28119356625E+03  0.31692152917E+03  0.41800000000E+01 0.  1.
         -5    1    3    3    0  502  0.61314123342E+02 -0.38031470293E+02  0.74784534486E+02  0.10400006467E+03  0.41800000000E+01 0.  1.
        -11    1    1    2    0    0  0.23558071270E+02  0.72316143488E+02  0.20805310003E+03  0.22151907313E+03  0.00000000000E+00 0. -1.
         11    1    1    2    0    0 -0.62557682751E+02  0.11012455129E+03  0.22084885329E+03  0.25458809176E+03  0.00000000000E+00 0.  1.
</event>
<event>
 7    1  0.3224301E-009  0.2880964E+03  0.7561462E-02  0.1091347E+00
         -2   -1    0    0    0  501 -0.00000000000E+00  0.00000000000E+00  0.62885188466E+02  0.62885188466E+02  0.00000000000E+00 0.  1.
          2   -1    0    0  501    0  0.00000000000E+00 -0.00000000000E+00 -0.16019523332E+04  0.16019523332E+04  0.00000000000E+00 0. -1.
         25    2    1    2    0    0 -0.15776024156E+03 -0.22150214246E+03 -0.46382955687E+03  0.55202940527E+03  0.12508842283E+03 0.  0.
          5    1    3    3  502    0 -0.12054913946E+03 -0.70598271092E+02 -0.26529658773E+03  0.29985990523E+03  0.41800000000E+01 0. -1.
         -5    1    3    3    0  502 -0.37211102098E+02 -0.15090387137E+03 -0.19853296914E+03  0.25216950004E+03  0.41800000000E+01 0. -1.
        -11    1    1    2    0    0  0.50621896501E+02  0.13190364152E+03 -0.65161839249E+03  0.66675908429E+03  0.00000000000E+00 0.  1.
         11    1    1    2    0    0  0.10713834506E+03  0.89598500944E+02 -0.42361919539E+03  0.44604903212E+03  0.00000000000E+00 0. -1.
</event>
<event>
 7    1  0.2943257E-009  0.1438562E+03  0.7561462E-02  0.1208232E+00
         -1   -1    0    0    0  501 -0.00000000000E+00  0.00000000000E+00  0.46414566118E+02  0.46414566118E+02  0.00000000000E+00 0.  1.
          1   -1    0    0  501    0  0.00000000000E+00 -0.00000000000E+00 -0.67322920541E+03  0.67322920541E+03  0.00000000000E+00 0. -1.
         25    2    1    2    0    0 -0.13451500817E+03  0.21132507629E+02 -0.27721681116E+03  0.33322278174E+03  0.12508953424E+03 0.  0.
          5    1    3    3  502    0 -0.84136204747E+02 -0.29056386129E+01 -0.47434026560E+02  0.96720230359E+02  0.41800000000E+01 0.  1.
         -5    1    3    3    0  502 -0.50378803418E+02  0.24038146242E+02 -0.22978278460E+03  0.23650255138E+03  0.41800000000E+01 0.  1.
        -11    1    1    2    0    0  0.74848434602E+02  0.16842384492E+02 -0.94615598102E+02  0.12181159831E+03  0.00000000000E+00 0.  1.
         11    1    1    2    0    0  0.59666573563E+02 -0.37974892122E+02 -0.25498223003E+03  0.26460939148E+03  0.00000000000E+00 0. -1.
</event>
<event>
 7    1  0.2943257E-009  0.2660242E+03  0.7561462E-02  0.1103577E+00
          2   -1    0    0  501    0  0.00000000000E+00  0.00000000000E+00  0.56947882602E+03  0.56947882602E+03  0.00000000000E+00 0. -1.
         -2   -1    0    0    0  501 -0.00000000000E+00 -0.00000000000E+00 -0.13472016378E+03  0.13472016378E+03  0.00000000000E+00 0.  1.
         25    2    1    2    0    0  0.17422629361E+03  0.18531310962E+03  0.21976596383E+03  0.35866538856E+03  0.12509209453E+03 0.  0.
          5    1    3    3  502    0  0.15189917148E+01  0.69467067804E+02  0.25740823032E+02  0.74216192408E+02  0.41800000000E+01 0. -1.
         -5    1    3    3    0  502  0.17270730190E+03  0.11584604182E+03  0.19402514080E+03  0.28444919616E+03  0.41800000000E+01 0. -1.
        -11    1    1    2    0    0 -0.13383023846E+03 -0.14624852851E+03  0.11067319427E+03  0.22704123138E+03  0.00000000000E+00 0.  1.
         11    1    1    2    0    0 -0.40396055154E+02 -0.39064581108E+02  0.10431950414E+03  0.11849236986E+03  0.00000000000E+00 0. -1.
</event>
<event>
 7    1  0.2943257E-009  0.8293197E+02  0.7561462E-02  0.1320931E+00
          2   -1    0    0  501    0  0.00000000000E+00  0.00000000000E+00  0.90257500526E+03  0.90257500526E+03  0.00000000000E+00 0. -1.
         -2   -1    0    0    0  501 -0.00000000000E+00 -0.00000000000E+00 -0.20638179909E+02  0.20638179909E+02  0.00000000000E+00 0.  1.
         25    2    1    2    0    0 -0.55589759367E+02  0.74845029961E+01  0.69148918070E+03  0.70494880961E+03  0.12509715428E+03 0.  0.
          5    1    3    3  502    0 -0.28725432816E+02 -0.64415689023E+01  0.28275219347E+02  0.41031752698E+02  0.41800000000E+01 0.  1.
         -5    1    3    3    0  502 -0.26864326551E+02  0.13926071898E+02  0.66321396135E+03  0.66391705691E+03  0.41800000000E+01 0.  1.
        -11    1    1    2    0    0  0.14679836032E+02  0.40175320785E+02  0.92456947789E+02  0.10187168979E+03  0.00000000000E+00 0. -1.
         11    1    1    2    0    0  0.40909923335E+02 -0.47659823781E+02  0.97990696865E+02  0.11639268578E+03  0.00000000000E+00 0.  1.
</event>
<event>
 7    1  0.2943257E-009  0.8580995E+02  0.7561462E-02  0.1313328E+00
          1   -1    0    0  501    0  0.00000000000E+00  0.00000000000E+00  0.24564237903E+03  0.24564237903E+03  0.00000000000E+00 0. -1.
         -1   -1    0    0    0  501 -0.00000000000E+00 -0.00000000000E+00 -0.49175328361E+02  0.49175328361E+02  0.00000000000E+00 0.  1.
         25    2    1    2    0    0 -0.10015774950E+02  0.54677263133E+01  0.13776938052E+03  0.18643946194E+03  0.12509619890E+03 0.  0.
          5    1    3    3  502    0 -0.81704039836E+01 -0.43769668895E+02  0.12859124683E+03  0.13614595322E+03  0.41800000000E+01 0.  1.
         -5    1    3    3    0  502 -0.18453709664E+01  0.49237395208E+02  0.91781336877E+01  0.50293508715E+02  0.41800000000E+01 0.  1.
        -11    1    1    2    0    0 -0.33049544080E+02 -0.89605577899E+01 -0.15049413451E+01  0.34275775823E+02  0.00000000000E+00 0.  1.
         11    1    1    2    0    0  0.43065319030E+02  0.34928314767E+01  0.60202611490E+02  0.74102469629E+02  0.00000000000E+00 0. -1.
</event>
<event>
 7    1  0.2943257E-009  0.9260907E+02  0.7561462E-02  0.1296654E+00
         -1   -1    0    0    0  501 -0.00000000000E+00  0.00000000000E+00  0.14036557350E+03  0.14036557350E+03  0.00000000000E+00 0.  1.
          1   -1    0    0  501    0  0.00000000000E+00 -0.00000000000E+00 -0.92386864764E+02  0.92386864764E+02  0.00000000000E+00 0. -1.
         25    2    1    2    0    0  0.11895191756E+02  0.33640077682E+02  0.32426345712E+02  0.13405996722E+03  0.12508979376E+03 0.  0.
          5    1    3    3  502    0 -0.25018668481E+02  0.66851030903E+02  0.42560092078E+02  0.83209542380E+02  0.41800000000E+01 0. -1.
         -5    1    3    3    0  502  0.36913860238E+02 -0.33210953221E+02 -0.10133746366E+02  0.50850424845E+02  0.41800000000E+01 0. -1.
        -11    1    1    2    0    0 -0.38780192280E-01  0.14402322374E+02  0.40708697273E+02  0.43181320352E+02  0.00000000000E+00 0.  1.
         11    1    1    2    0    0 -0.11856411564E+02 -0.48042400057E+02 -0.25156334246E+02  0.55511150691E+02  0.00000000000E+00 0. -1.
</event>
<event>
 7    1  0.2943257E-009  0.1045169E+03  0.7561462E-02  0.1271074E+00
         -2   -1    0    0    0  501 -0.00000000000E+00  0.00000000000E+00  0.30528143561E+02  0.30528143561E+02  0.00000000000E+00 0.  1.
          2   -1    0    0  501    0  0.00000000000E+00 -0.00000000000E+00 -0.41765416962E+03  0.41765416962E+03  0.00000000000E+00 0. -1.
         25    2    1    2    0    0 -0.29988238048E+01 -0.25549995170E+02 -0.21421055668E+03  0.24939294844E+03  0.12509550329E+03 0.  0.
          5    1    3    3  502    0  0.21427802650E+02 -0.65658566918E+02 -0.17461577135E+03  0.18782528621E+03  0.41800000000E+01 0.  1.
         -5    1    3    3    0  502 -0.24426626455E+02  0.40108571747E+02 -0.39594785333E+02  0.61567662236E+02  0.41800000000E+01 0.  1.
        -11    1    1    2    0    0 -0.42192283282E+02  0.21409803875E+02 -0.55621669291E+02  0.73022863305E+02  0.00000000000E+00 0.  1.
         11    1    1    2    0    0  0.45191107087E+02  0.41401912954E+01 -0.11729380009E+03  0.12576650144E+03  0.00000000000E+00 0. -1.
</event>
<event>
 7    1  0.2943257E-009  0.1012264E+03  0.7561462E-02  0.1277738E+00
         -2   -1    0    0    0  501 -0.00000000000E+00  0.00000000000E+00  0.69948777352E+01  0.69948777352E+01  0.00000000000E+00 0.  1.
          2   -1    0    0  501    0  0.00000000000E+00 -0.00000000000E+00 -0.27374404989E+04  0.27374404989E+04  0.00000000000E+00 0. -1.
         25    2    1    2    0    0  0.30608109366E+02  0.46412654090E+02 -0.21464026436E+04  0.21507633458E+04  0.12509064848E+03 0.  0.
          5    1    3    3  502    0  0.64468162784E+01  0.64885016359E+02 -0.52235083590E+03  0.52642140435E+03  0.41800000000E+01 0. -1.
         -5    1    3    3    0  502  0.24161293088E+02 -0.18472362269E+02 -0.16240518077E+04  0.16243419414E+04  0.41800000000E+01 0. -1.
        -11    1    1    2    0    0 -0.62684681268E+02 -0.23284250864E+02 -0.35605969372E+03  0.36228446157E+03  0.00000000000E+00 0.  1.
         11    1    1    2    0    0  0.32076571901E+02 -0.23128403226E+02 -0.22798328389E+03  0.23138756932E+03  0.00000000000E+00 0. -1.
</event>
<event>
 7    1  0.2943257E-009  0.1350872E+03  0.7561462E-02  0.1220097E+00
          2   -1    0    0  501    0  0.00000000000E+00  0.00000000000E+00  0.91583282436E+03  0.91583282436E+03  0.00000000000E+00 0. -1.
         -2   -1    0    0    0  501 -0.00000000000E+00 -0.00000000000E+00 -0.28267544797E+02  0.28267544797E+02  0.00000000000E+00 0.  1.
         25    2    1    2    0    0 -0.80011373455E+02 -0.86908866062E+02  0.49252680257E+03  0.52171446220E+03  0.12509339687E+03 0.  0.
          5    1    3    3  502    0 -0.17167937518E+02 -0.59676050716E+01  0.27495589554E-01  0.18650028014E+02  0.41800000000E+01 0. -1.
         -5    1    3    3    0  502 -0.62843435937E+02 -0.80941260991E+02  0.49249930698E+03  0.50306443419E+03  0.41800000000E+01 0. -1.
        -11    1    1    2    0    0  0.67846518209E+02  0.70794299086E+01  0.16301373220E+03  0.17671090868E+03  0.00000000000E+00 0. -1.
         11    1    1    2    0    0  0.12164855246E+02  0.79829436154E+02  0.23202474480E+03  0.24567499828E+03  0.00000000000E+00 0.  1.
</event>
<event>
 7    1  0.2943257E-009  0.1037996E+03  0.7561462E-02  0.1272503E+00
         -1   -1    0    0    0  501 -0.00000000000E+00  0.00000000000E+00  0.26488544987E+03  0.26488544987E+03  0.00000000000E+00 0.  1.
          1   -1    0    0  501    0  0.00000000000E+00 -0.00000000000E+00 -0.50922849746E+02  0.50922849746E+02  0.00000000000E+00 0. -1.
         25    2    1    2    0    0 -0.16140999893E+02  0.21217171950E+02  0.17453624286E+03  0.21638505855E+03  0.12509553640E+03 0.  0.
          5    1    3    3  502    0  0.24342196952E+02  0.58729801373E+02  0.13202561537E+03  0.14659456892E+03  0.41800000000E+01 0. -1.
         -5    1    3    3    0  502 -0.40483196845E+02 -0.37512629424E+02  0.42510627489E+02  0.69790489629E+02  0.41800000000E+01 0. -1.
        -11    1    1    2    0    0  0.49547510950E+01  0.32902885947E+02  0.33857187628E+01  0.33445665692E+02  0.00000000000E+00 0. -1.
         11    1    1    2    0    0  0.11186248798E+02 -0.54120057897E+02  0.36040638496E+02  0.65977575373E+02  0.00000000000E+00 0.  1.
</event>
<event>
 7    1  0.2943257E-009  0.1083864E+03  0.7561462E-02  0.1263587E+00
         -1   -1    0    0    0  501 -0.00000000000E+00  0.00000000000E+00  0.53697044107E+02  0.53697044107E+02  0.00000000000E+00 0.  1.
          1   -1    0    0  501    0  0.00000000000E+00 -0.00000000000E+00 -0.60812017708E+03  0.60812017708E+03  0.00000000000E+00 0. -1.
         25    2    1    2    0    0  0.12849822667E+02  0.79815226851E+02 -0.73482390496E+02  0.16608240914E+03  0.12509243196E+03 0.  0.
          5    1    3    3  502    0 -0.21470937242E+02  0.38543161051E+02  0.27135507543E+02  0.51965224713E+02  0.41800000000E+01 0.  1.
         -5    1    3    3    0  502  0.34320759910E+02  0.41272065800E+02 -0.10061789804E+03  0.11411718443E+03  0.41800000000E+01 0.  1.
        -11    1    1    2    0    0 -0.48180989971E+02 -0.27469406278E+02 -0.18519908273E+03  0.19332531216E+03  0.00000000000E+00 0. -1.
         11    1    1    2    0    0  0.35331167304E+02 -0.52345820573E+02 -0.29574165974E+03  0.30240949989E+03  0.00000000000E+00 0.  1.
</event>
<event>
 7    1  0.2943257E-009  0.1232022E+03  0.7561462E-02  0.1237906E+00
          2   -1    0    0  501    0  0.00000000000E+00  0.00000000000E+00  0.16419001298E+04  0.16419001298E+04  0.00000000000E+00 0. -1.
         -2   -1    0    0    0  501 -0.00000000000E+00 -0.00000000000E+00 -0.16894218209E+02  0.16894218209E+02  0.00000000000E+00 0.  1.
         25    2    1    2    0    0  0.58987944120E+02 -0.25932783456E+02  0.14095061726E+04  0.14165124545E+04  0.12509115189E+03 0.  0.
          5    1    3    3  502    0  0.85155915669E+02  0.16633676952E+02  0.10397053301E+04  0.10433277793E+04  0.41800000000E+01 0.  1.
         -5    1    3    3    0  502 -0.26167971549E+02 -0.42566460408E+02  0.36980084252E+03  0.37318467521E+03  0.41800000000E+01 0.  1.
        -11    1    1    2    0    0 -0.82631086221E+02  0.19719557470E+02  0.15024916965E+03  0.17260234743E+03  0.00000000000E+00 0. -1.
         11    1    1    2    0    0  0.23643142101E+02  0.62132259860E+01  0.65250569280E+02  0.69679546044E+02  0.00000000000E+00 0.  1.
</event>
<event>
 7    1  0.2943257E-009  0.1017681E+03  0.7561462E-02  0.1276621E+00
          1   -1    0    0  501    0  0.00000000000E+00  0.00000000000E+00  0.17330348018E+03  0.17330348018E+03  0.00000000000E+00 0. -1.
         -1   -1    0    0    0  501 -0.00000000000E+00 -0.00000000000E+00 -0.20862636522E+03  0.20862636522E+03  0.00000000000E+00 0.  1.
         25    2    1    2    0    0 -0.64316523802E+02  0.26535623513E+01 -0.15773893739E+03  0.21135826553E+03  0.12508831846E+03 0.  0.
          5    1    3    3  502    0 -0.57994991602E+02  0.58690109965E+02 -0.10853580193E+03  0.13640176230E+03  0.41800000000E+01 0. -1.
         -5    1    3    3    0  502 -0.63215321999E+01 -0.56036547614E+02 -0.49203135454E+02  0.74956503229E+02  0.41800000000E+01 0. -1.
        -11    1    1    2    0    0  0.15850778935E+02 -0.42829663460E+00 -0.16825334868E+02  0.23119743171E+02  0.00000000000E+00 0.  1.
         11    1    1    2    0    0  0.48465744867E+02 -0.22252657167E+01  0.13924138721E+03  0.14745183670E+03  0.00000000000E+00 0. -1.
</event>
<event>
 7    1  0.2943257E-009  0.1874524E+03  0.7561462E-02  0.1160779E+00
          1   -1    0    0  501    0  0.00000000000E+00  0.00000000000E+00  0.52914803513E+03  0.52914803513E+03  0.00000000000E+00 0. -1.
         -1   -1    0    0    0  501 -0.00000000000E+00 -0.00000000000E+00 -0.86582254539E+02  0.86582254539E+02  0.00000000000E+00 0.  1.
         25    2    1    2    0    0  0.18232908070E+03 -0.24106201863E+02  0.23774054885E+03  0.32557316437E+03  0.12510920891E+03 0.  0.
          5    1    3    3  502    0  0.60150463968E+02  0.10155323199E+02  0.17211800749E+03  0.18265620659E+03  0.41800000000E+01 0. -1.
         -5    1    3    3    0  502  0.12217861673E+03 -0.34261525062E+02  0.65622541356E+02  0.14291695778E+03  0.41800000000E+01 0. -1.
        -11    1    1    2    0    0 -0.17272393365E+03  0.30312712438E+02  0.14017340356E+03  0.22450167228E+03  0.00000000000E+00 0.  1.
         11    1    1    2    0    0 -0.96051470474E+01 -0.62065105751E+01  0.64651828185E+02  0.65655453018E+02  0.00000000000E+00 0. -1.
</event>
<event>
 7    1  0.2943257E-009  0.1476583E+03  0.7561462E-02  0.1203380E+00
         -2   -1    0    0    0  501 -0.00000000000E+00  0.00000000000E+00  0.40630792523E+02  0.40630792523E+02  0.00000000000E+00 0.  1.
          2   -1    0    0  501    0  0.00000000000E+00 -0.00000000000E+00 -0.64851529222E+03  0.64851529222E+03  0.00000000000E+00 0. -1.
         25    2    1    2    0    0  0.38661465712E+02 -0.11384699623E+03 -0.33534627433E+03  0.37756267981E+03  0.12506240841E+03 0.  0.
          5    1    3    3  502    0  0.45674173521E+02  0.11026957701E+02 -0.73265174963E+02  0.87137719647E+02  0.41800000000E+01 0. -1.
         -5    1    3    3    0  502 -0.70127078089E+01 -0.12487395393E+03 -0.26208109937E+03  0.29042496017E+03  0.41800000000E+01 0. -1.
        -11    1    1    2    0    0 -0.33132135451E+02  0.57315697020E+02 -0.52966517237E+02  0.84783721743E+02  0.00000000000E+00 0.  1.
         11    1    1    2    0    0 -0.55293302611E+01  0.56531299209E+02 -0.21957170813E+03  0.22679968319E+03  0.00000000000E+00 0. -1.
</event>
<event>
 6    1  0.2943257E-009  0.1246926E+03  0.7561462E-02  0.1235550E+00
         -1   -1    0    0    0  501 -0.00000000000E+00  0.00000000000E+00  0.16174414079E+04  0.16174414079E+04  0.00000000000E+00 0.  1.
          1   -1    0    0  501    0  0.00000000000E+00 -0.00000000000E+00 -0.13404963653E+02  0.13404963653E+02  0.00000000000E+00 0. -1.
          5    1    1    2  502    0  0.14491875487E+02 -0.31062324822E+02  0.18399674235E+03  0.18720885683E+03  0.41800000000E+01 0.  1.
         -5    1    1    2    0  502  0.88264758493E+01  0.11426282927E+03  0.97661687560E+03  0.98332695221E+03  0.41800000000E+01 0.  1.
        -11    1    1    2    0    0 -0.57674673863E+00 -0.76451158794E+02  0.42025317249E+03  0.42715084140E+03  0.00000000000E+00 0.  1.
         11    1    1    2    0    0 -0.22741604597E+02 -0.67493456589E+01  0.23169653755E+02  0.33159721072E+02  0.00000000000E+00 0. -1.
</event>
<event>
 7    1  0.2943257E-009  0.2113710E+03  0.7561462E-02  0.1140485E+00
          2   -1    0    0  501    0  0.00000000000E+00  0.00000000000E+00  0.31569393221E+04  0.31569393221E+04  0.00000000000E+00 0. -1.
         -2   -1    0    0    0  501 -0.00000000000E+00 -0.00000000000E+00 -0.16260496052E+02  0.16260496052E+02  0.00000000000E+00 0.  1.
         25    2    1    2    0    0  0.16040344561E+03  0.88856362109E+02  0.21728297498E+04  0.21841385726E+04  0.12508982509E+03 0.  0.
          5    1    3    3  502    0  0.15489727623E+03  0.11443917216E+03  0.20046252812E+04  0.20138593497E+04  0.41800000000E+01 0.  1.
         -5    1    3    3    0  502  0.55061693840E+01 -0.25582810047E+02  0.16820446864E+03  0.17027922287E+03  0.41800000000E+01 0.  1.
        -11    1    1    2    0    0 -0.14604852737E+03 -0.38203751497E+02  0.70177391482E+03  0.71782750469E+03  0.00000000000E+00 0. -1.
         11    1    1    2    0    0 -0.14354918242E+02 -0.50652610612E+02  0.26607516141E+03  0.27123374082E+03  0.00000000000E+00 0.  1.
</event>
<event>
 7    1  0.2943257E-009  0.1601310E+03  0.7561462E-02  0.1188549E+00
          2   -1    0    0  501    0  0.00000000000E+00  0.00000000000E+00  0.18614909755E+03  0.18614909755E+03  0.00000000000E+00 0. -1.
         -2   -1    0    0    0  501 -0.00000000000E+00 -0.00000000000E+00 -0.16928952454E+03  0.16928952454E+03  0.00000000000E+00 0.  1.
         25    2    1    2    0    0 -0.32057530869E+02  0.13566900546E+03  0.27696622872E+02  0.18933554077E+03  0.12508828783E+03 0.  0.
          5    1    3    3  502    0  0.12124712179E+02  0.91817383555E+02 -0.36666913477E+02  0.99696416747E+02  0.41800000000E+01 0.  1.
         -5    1    3    3    0  502 -0.44182243048E+02  0.43851621901E+02  0.64363536349E+02  0.89639124022E+02  0.41800000000E+01 0.  1.
        -11    1    1    2    0    0  0.61704311929E+02 -0.10916232074E+03 -0.22338075807E+01  0.12541460950E+03  0.00000000000E+00 0. -1.
         11    1    1    2    0    0 -0.29646781060E+02 -0.26506684714E+02 -0.86032422820E+01  0.40688471826E+02  0.00000000000E+00 0.  1.
</event>
<event>
 7    1  0.2943257E-009  0.4968062E+02  0.7561462E-02  0.1447072E+00
          1   -1    0    0  501    0  0.00000000000E+00  0.00000000000E+00  0.11083875514E+03  0.11083875514E+03  0.00000000000E+00 0. -1.
         -1   -1    0    0    0  501 -0.00000000000E+00 -0.00000000000E+00 -0.11530457764E+03  0.11530457764E+03  0.00000000000E+00 0.  1.
         25    2    1    2    0    0 -0.29993760831E+02 -0.67137621609E+01  0.52770997136E+00  0.12881183405E+03  0.12509000688E+03 0.  0.
          5    1    3    3  502    0  0.51620339926E+01 -0.94261237144E+01 -0.58664265188E+02  0.59786844818E+02  0.41800000000E+01 0. -1.
         -5    1    3    3    0  502 -0.35155794824E+02  0.27123615536E+01  0.59191975160E+02  0.69024989230E+02  0.41800000000E+01 0. -1.
        -11    1    1    2    0    0  0.17303072105E+02  0.24793077900E+02  0.38260157795E+02  0.48764051211E+02  0.00000000000E+00 0. -1.
         11    1    1    2    0    0  0.12690688726E+02 -0.18079315739E+02 -0.43253690264E+02  0.48567447528E+02  0.00000000000E+00 0.  1.
</event>
<event>
 7    1  0.2943257E-009  0.9843138E+02  0.7561462E-02  0.1283630E+00
         -1   -1    0    0    0  501 -0.00000000000E+00  0.00000000000E+00  0.31325817588E+02  0.31325817588E+02  0.00000000000E+00 0.  1.
          1   -1    0    0  501    0  0.00000000000E+00 -0.00000000000E+00 -0.55259040956E+03  0.55259040956E+03  0.00000000000E+00 0. -1.
         25    2    1    2    0    0 -0.31999733861E+02 -0.67721521564E+02 -0.29407551980E+03  0.32823498332E+03  0.12509038924E+03 0.  0.
          5    1    3    3  502    0  0.23981555997E+02 -0.79571688855E+01 -0.20719607454E+03  0.20877288442E+03  0.41800000000E+01 0.  1.
         -5    1    3    3    0  502 -0.55981289858E+02 -0.59764352679E+02 -0.86879445266E+02  0.11946209891E+03  0.41800000000E+01 0.  1.
        -11    1    1    2    0    0  0.27414878208E+02  0.69088445275E+01 -0.16913687856E+03  0.17148350174E+03  0.00000000000E+00 0. -1.
         11    1    1    2    0    0  0.45848556538E+01  0.60812677037E+02 -0.58052193615E+02  0.84197742091E+02  0.00000000000E+00 0.  1.
</event>
<event>
 7    1  0.2943257E-009  0.1745590E+03  0.7561462E-02  0.1173175E+00
          1   -1    0    0  501    0  0.00000000000E+00  0.00000000000E+00  0.25821451655E+04  0.25821451655E+04  0.00000000000E+00 0. -1.
         -1   -1    0    0    0  501 -0.00000000000E+00 -0.00000000000E+00 -0.13370204131E+02  0.13370204131E+02  0.00000000000E+00 0.  1.
         25    2    1    2    0    0  0.31450593327E+02 -0.13376755402E+03  0.17895983534E+04  0.17992201450E+04  0.12509182830E+03 0.  0.
          5    1    3    3  502    0 -0.47150094730E+02 -0.64839528711E+02  0.68953294399E+03  0.69419049919E+03  0.41800000000E+01 0.  1.
         -5    1    3    3    0  502  0.78600688057E+02 -0.68928025305E+02  0.11000654094E+04  0.11050296459E+04  0.41800000000E+01 0.  1.
        -11    1    1    2    0    0 -0.29347253432E+02  0.14746387067E+03  0.71064550812E+03  0.72637723852E+03  0.00000000000E+00 0. -1.
         11    1    1    2    0    0 -0.21033398946E+01 -0.13696316655E+02  0.68531099888E+02  0.69917986101E+02  0.00000000000E+00 0.  1.
</event>
<event>
 7    1  0.2943257E-009  0.2175974E+03  0.7561462E-02  0.1135687E+00
         -2   -1    0    0    0  501 -0.00000000000E+00  0.00000000000E+00  0.10699802759E+03  0.10699802759E+03  0.00000000000E+00 0.  1.
          2   -1    0    0  501    0  0.00000000000E+00 -0.00000000000E+00 -0.44392727184E+03  0.44392727184E+03  0.00000000000E+00 0. -1.
         25    2    1    2    0    0  0.15113790208E+03 -0.11303262413E+03 -0.17541498179E+03  0.28642238028E+03  0.12509326331E+03 0.  0.
          5    1    3    3  502    0 -0.16389840684E+02  0.87854837622E+01 -0.18119570945E+02  0.26298343176E+02  0.41800000000E+01 0. -1.
         -5    1    3    3    0  502  0.16752774276E+03 -0.12181810790E+03 -0.15729541084E+03  0.26012403710E+03  0.41800000000E+01 0. -1.
        -11    1    1    2    0    0 -0.49710330284E+02 -0.87437470440E+01 -0.47090114916E+02  0.69029334142E+02  0.00000000000E+00 0.  1.
         11    1    1    2    0    0 -0.10142757179E+03  0.12177637118E+03 -0.11442414755E+03  0.19547358502E+03  0.00000000000E+00 0. -1.
</event>
<event>
 7    1  0.3531432E-009  0.1215761E+03  0.7561462E-02  0.1240519E+00
          1   -1    0    0  501    0  0.00000000000E+00  0.00000000000E+00  0.26662116104E+03  0.26662116104E+03  0.00000000000E+00 0. -1.
         -1   -1    0    0    0  501 -0.00000000000E+00 -0.00000000000E+00 -0.76623222766E+02  0.76623222766E+02  0.00000000000E+00 0.  1.
         25    2    1    2    0    0 -0.82746556291E+02  0.57580817908E+01  0.15427020995E+03  0.21523582196E+03  0.12508802218E+03 0.  0.
          5    1    3    3  502    0 -0.10635759405E+03  0.32580915470E+02  0.13301919732E+03  0.17345037654E+03  0.41800000000E+01 0.  1.
         -5    1    3    3    0  502  0.23611037764E+02 -0.26822833680E+02  0.21251012626E+02  0.41785445415E+02  0.41800000000E+01 0.  1.
        -11    1    1    2    0    0  0.30666904273E+02 -0.25780637101E+02 -0.23654618200E+02  0.46525705037E+02  0.00000000000E+00 0.  1.
         11    1    1    2    0    0  0.52079652018E+02  0.20022555311E+02  0.59382346525E+02  0.81482856813E+02  0.00000000000E+00 0. -1.
</event>
<event>
 7    1  0.2943257E-009  0.1152155E+03  0.7561462E-02  0.1251205E+00
         -2   -1    0    0    0  501 -0.00000000000E+00  0.00000000000E+00  0.79871835141E+02  0.79871835141E+02  0.00000000000E+00 0.  1.
          2   -1    0    0  501    0  0.00000000000E+00 -0.00000000000E+00 -0.22501865265E+03  0.22501865265E+03  0.00000000000E+00 0. -1.
         25    2    1    2    0    0 -0.47721719866E+02  0.56941636262E+02 -0.10836889158E+03  0.18141456222E+03  0.12509082395E+03 0.  0.
          5    1    3    3  502    0 -0.47685576126E+02  0.79016106599E+02 -0.25909210356E+02  0.95949043006E+02  0.41800000000E+01 0. -1.
         -5    1    3    3    0  502 -0.36143739971E-01 -0.22074470337E+02 -0.82459681219E+02  0.85465519210E+02  0.41800000000E+01 0. -1.
        -11    1    1    2    0    0 -0.14259005797E+02  0.14949148638E+02  0.23799259581E+01  0.20795680775E+02  0.00000000000E+00 0.  1.
         11    1    1    2    0    0  0.61980725663E+02 -0.71890784900E+02 -0.39157851888E+02  0.10268024480E+03  0.00000000000E+00 0. -1.
</event>
<event>
 7    1  0.2943257E-009  0.8329520E+02  0.7561462E-02  0.1319952E+00
         -1   -1    0    0    0  501 -0.00000000000E+00  0.00000000000E+00  0.56945757242E+02  0.56945757242E+02  0.00000000000E+00 0.  1.
          1   -1    0    0  501    0  0.00000000000E+00 -0.00000000000E+00 -0.27846067944E+03  0.27846067944E+03  0.00000000000E+00 0. -1.
         25    2    1    2    0    0  0.33426692141E+02  0.40176952065E+02 -0.78236208661E+02  0.15650734380E+03  0.12506843365E+03 0.  0.
          5    1    3    3  502    0 -0.94427028338E+01 -0.23724424917E+01 -0.93475284131E+02  0.94073876627E+02  0.41800000000E+01 0.  1.
         -5    1    3    3    0  502  0.42869394975E+02  0.42549394557E+02  0.15239075470E+02  0.62433467178E+02  0.41800000000E+01 0.  1.
        -11    1    1    2    0    0  0.24994375246E+01  0.22805093590E+02 -0.61035991040E+01  0.23739701001E+02  0.00000000000E+00 0.  1.
         11    1    1    2    0    0 -0.35926129666E+02 -0.62982045655E+02 -0.13717511443E+03  0.15515939188E+03  0.00000000000E+00 0. -1.
</event>
<event>
 7    1  0.2943257E-009  0.1094483E+03  0.7561462E-02  0.1261595E+00
          1   -1    0    0  501    0  0.00000000000E+00  0.00000000000E+00  0.96684145753E+03  0.96684145753E+03  0.00000000000E+00 0. -1.
         -1   -1    0    0    0  501 -0.00000000000E+00 -0.00000000000E+00 -0.14417203928E+02  0.14417203928E+02  0.00000000000E+00 0.  1.
         25    2    1    2    0    0  0.45084269625E+01  0.44224462609E+02  0.56766447450E+03  0.58298230175E+03  0.12509708047E+03 0.  0.
          5    1    3    3  502    0 -0.58155880331E+02  0.38109499118E+02  0.29545246989E+03  0.30355242496E+03  0.41800000000E+01 0. -1.
         -5    1    3    3    0  502  0.62664307293E+02  0.61149634908E+01  0.27221200461E+03  0.27942987679E+03  0.41800000000E+01 0. -1.
        -11    1    1    2    0    0  0.20853025658E+02 -0.54821753533E+02  0.34493997124E+03  0.34989120751E+03  0.00000000000E+00 0. -1.
         11    1    1    2    0    0 -0.25361452620E+02  0.10597290923E+02  0.39819807874E+02  0.48385152196E+02  0.00000000000E+00 0.  1.
</event>
<event>
 7    1  0.2943257E-009  0.1081179E+03  0.7561462E-02  0.1264095E+00
         -4   -1    0    0    0  501 -0.00000000000E+00  0.00000000000E+00  0.59480379352E+02  0.59480379352E+02  0.00000000000E+00 0.  1.
          4   -1    0    0  501    0  0.00000000000E+00 -0.00000000000E+00 -0.31397927406E+03  0.31397927406E+03  0.00000000000E+00 0. -1.
         25    2    1    2    0    0 -0.74301378786E+02 -0.83156057699E+01 -0.90187230955E+02  0.17137886181E+03  0.12508850251E+03 0.  0.
          5    1    3    3  502    0  0.67368637053E+01 -0.16241876044E+02  0.24635079433E+02  0.30553942604E+02  0.41800000000E+01 0. -1.
         -5    1    3    3    0  502 -0.81038242491E+02  0.79262702740E+01 -0.11482231039E+03  0.14082491921E+03  0.41800000000E+01 0. -1.
        -11    1    1    2    0    0 -0.18665628173E+02  0.14235820883E+02 -0.23282669460E+02  0.33062773152E+02  0.00000000000E+00 0.  1.
         11    1    1    2    0    0  0.92967006958E+02 -0.59202151130E+01 -0.14102899429E+03  0.16901801845E+03  0.00000000000E+00 0. -1.
</event>
<event>
 7    1  0.2943257E-009  0.1133705E+03  0.7561462E-02  0.1254453E+00
          2   -1    0    0  501    0  0.00000000000E+00  0.00000000000E+00  0.18447580506E+03  0.18447580506E+03  0.00000000000E+00 0. -1.
         -2   -1    0    0    0  501 -0.00000000000E+00 -0.00000000000E+00 -0.12383724647E+03  0.12383724647E+03  0.00000000000E+00 0.  1.
         25    2    1    2    0    0  0.17330952489E+02 -0.92831171407E+02  0.80502663759E+02  0.17620418930E+03  0.12509695902E+03 0.  0.
          5    1    3    3  502    0 -0.17906192230E+01  0.91713905865E+01  0.71191963594E+02  0.71924187884E+02  0.41800000000E+01 0. -1.
         -5    1    3    3    0  502  0.19121571712E+02 -0.10200256199E+03  0.93107001656E+01  0.10428000142E+03  0.41800000000E+01 0. -1.
        -11    1    1    2    0    0  0.16544945586E+02  0.69660741143E+02  0.20570133944E+02  0.74494862182E+02  0.00000000000E+00 0.  1.
         11    1    1    2    0    0 -0.33875898076E+02  0.23170430265E+02 -0.40434239113E+02  0.57614000050E+02  0.00000000000E+00 0. -1.
</event>
<event>
 7    1  0.2943257E-009  0.8510935E+02  0.7561462E-02  0.1315147E+00
          1   -1    0    0  501    0  0.00000000000E+00  0.00000000000E+00  0.12352963165E+03  0.12352963165E+03  0.00000000000E+00 0. -1.
         -1   -1    0    0    0  501 -0.00000000000E+00 -0.00000000000E+00 -0.10576864155E+03  0.10576864155E+03  0.00000000000E+00 0.  1.
         25    2    1    2    0    0 -0.35355979814E+00  0.24845669930E+02  0.42155689521E+01  0.12760163323E+03  0.12508786297E+03 0.  0.
          5    1    3    3  502    0  0.43503685910E+02 -0.31538428789E+02 -0.95492676784E+01  0.54734852621E+02  0.41800000000E+01 0. -1.
         -5    1    3    3    0  502 -0.43857245708E+02  0.56384098719E+02  0.13764836631E+02  0.72866780613E+02  0.41800000000E+01 0. -1.
        -11    1    1    2    0    0 -0.55671775510E+01 -0.33678102465E+02 -0.36827138856E+02  0.50214004101E+02  0.00000000000E+00 0.  1.
         11    1    1    2    0    0  0.59207373491E+01  0.88324325346E+01  0.50372560001E+02  0.51482635871E+02  0.00000000000E+00 0. -1.
</event>
<event>
 7    1  0.2943257E-009  0.1091217E+03  0.7561462E-02  0.1262205E+00
         -2   -1    0    0    0  501 -0.00000000000E+00  0.00000000000E+00  0.55335804740E+03  0.55335804740E+03  0.00000000000E+00 0.  1.
          2   -1    0    0  501    0  0.00000000000E+00 -0.00000000000E+00 -0.56727204212E+02  0.56727204212E+02  0.00000000000E+00 0. -1.
         25    2    1    2    0    0 -0.53269577232E+02 -0.71088768701E+02  0.44862290837E+03  0.47412927307E+03  0.12507914602E+03 0.  0.
          5    1    3    3  502    0 -0.46953271565E+02 -0.45564675983E+01  0.35974799387E+03  0.36285184663E+03  0.41800000000E+01 0.  1.
         -5    1    3    3    0  502 -0.63163056667E+01 -0.66532301103E+02  0.88874914503E+02  0.11127742644E+03  0.41800000000E+01 0.  1.
        -11    1    1    2    0    0 -0.14443041586E+00  0.44058386537E+02  0.60460388800E+02  0.74810566756E+02  0.00000000000E+00 0.  1.
         11    1    1    2    0    0  0.53414007648E+02  0.27030382164E+02 -0.12452453982E+02  0.61145411791E+02  0.00000000000E+00 0. -1.
</event>
<event>
 7    1  0.2943257E-009  0.1018087E+03  0.7561462E-02  0.1276538E+00
          2   -1    0    0  501    0  0.00000000000E+00  0.00000000000E+00  0.66853598067E+03  0.66853598067E+03  0.00000000000E+00 0. -1.
         -2   -1    0    0    0  501 -0.00000000000E+00 -0.00000000000E+00 -0.21692388690E+02  0.21692388690E+02  0.00000000000E+00 0.  1.
         25    2    1    2    0    0  0.44207639744E+02 -0.28313653677E+02  0.35555152044E+03  0.38055189485E+03  0.12508749976E+03 0.  0.
          5    1    3    3  502    0  0.69430079774E+02 -0.20826096210E+02  0.99802431609E+02  0.12341904235E+03  0.41800000000E+01 0. -1.
         -5    1    3    3    0  502 -0.25222440030E+02 -0.74875574671E+01  0.25574908883E+03  0.25713285250E+03  0.41800000000E+01 0. -1.
        -11    1    1    2    0    0  0.48146432844E+01 -0.28744664384E+02  0.98744661567E+02  0.10295603289E+03  0.00000000000E+00 0.  1.
         11    1    1    2    0    0 -0.49022283028E+02  0.57058318061E+02  0.19254740998E+03  0.20672044162E+03  0.00000000000E+00 0. -1.
</event>
<event>
 7    1  0.3202896E-009  0.7801218E+02  0.7561462E-02  0.1334789E+00
         -4   -1    0    0    0  501 -0.00000000000E+00  0.00000000000E+00  0.34731808520E+03  0.34731808520E+03  0.00000000000E+00 0.  1.
          4   -1    0    0  501    0  0.00000000000E+00 -0.00000000000E+00 -0.40875682941E+02  0.40875682941E+02  0.00000000000E+00 0. -1.
         25    2    1    2    0    0  0.31705160502E+02  0.94865135040E+00  0.11087567123E+03  0.17013724808E+03  0.12508857490E+03 0.  0.
          5    1    3    3  502    0 -0.32186301705E+02  0.86676633575E+01 -0.83237225557E+01  0.34609870885E+02  0.41800000000E+01 0. -1.
         -5    1    3    3    0  502  0.63891462206E+02 -0.77190120071E+01  0.11919939379E+03  0.13552737719E+03  0.41800000000E+01 0. -1.
        -11    1    1    2    0    0 -0.42545429412E+02  0.87005717472E+01  0.19854733717E+03  0.20324088814E+03  0.00000000000E+00 0.  1.
         11    1    1    2    0    0  0.10840268910E+02 -0.96492230976E+01 -0.29806061447E+01  0.14815631928E+02  0.00000000000E+00 0. -1.
</event>
<event>
 7    1  0.2943257E-009  0.1028974E+03  0.7561462E-02  0.1274318E+00
          2   -1    0    0  501    0  0.00000000000E+00  0.00000000000E+00  0.40806375659E+03  0.40806375659E+03  0.00000000000E+00 0. -1.
         -2   -1    0    0    0  501 -0.00000000000E+00 -0.00000000000E+00 -0.30620448957E+02  0.30620448957E+02  0.00000000000E+00 0.  1.
         25    2    1    2    0    0 -0.15672462446E+02  0.24469319122E+02  0.22003529988E+03  0.25476966949E+03  0.12509067768E+03 0.  0.
          5    1    3    3  502    0 -0.58909809839E+02 -0.38992856745E+01  0.51587636616E+02  0.78513226757E+02  0.41800000000E+01 0.  1.
         -5    1    3    3    0  502  0.43237347393E+02  0.28368604797E+02  0.16844766326E+03  0.17625644273E+03  0.41800000000E+01 0.  1.
        -11    1    1    2    0    0  0.29074914604E+02  0.28124656310E+02  0.59076475023E+02  0.71598721028E+02  0.00000000000E+00 0.  1.
         11    1    1    2    0    0 -0.13402452157E+02 -0.52593975433E+02  0.98331532734E+02  0.11231581503E+03  0.00000000000E+00 0. -1.
</event>
<event>
 7    1  0.2943257E-009  0.1509402E+03  0.7561462E-02  0.1199322E+00
         -2   -1    0    0    0  501 -0.00000000000E+00  0.00000000000E+00  0.17724757312E+02  0.17724757312E+02  0.00000000000E+00 0. -1.
          2   -1    0    0  501    0  0.00000000000E+00 -0.00000000000E+00 -0.17481373394E+04  0.17481373394E+04  0.00000000000E+00 0.  1.
         25    2    1    2    0    0 -0.99161122518E+02  0.71440808702E+02 -0.12278293543E+04  0.12402210531E+04  0.12508645002E+03 0.  0.
          5    1    3    3  502    0 -0.92497666228E+02  0.10254196183E+03 -0.86360358043E+03  0.87458520953E+03  0.41800000000E+01 0.  1.
         -5    1    3    3    0  502 -0.66634562896E+01 -0.31101153126E+02 -0.36422577387E+03  0.36563584361E+03  0.41800000000E+01 0.  1.
        -11    1    1    2    0    0 -0.44516685430E+00 -0.19125899721E+02 -0.12602137480E+02  0.22908777417E+02  0.00000000000E+00 0. -1.
         11    1    1    2    0    0  0.99606289372E+02 -0.52314908980E+02 -0.48998109034E+03  0.50273226619E+03  0.00000000000E+00 0.  1.
</event>
<event>
 7    1  0.2943257E-009  0.1039668E+03  0.7561462E-02  0.1272169E+00
          2   -1    0    0  501    0  0.00000000000E+00  0.00000000000E+00  0.37338810334E+03  0.37338810334E+03  0.00000000000E+00 0.  1.
         -2   -1    0    0    0  501 -0.00000000000E+00 -0.00000000000E+00 -0.71839469986E+02  0.71839469986E+02  0.00000000000E+00 0. -1.
         25    2    1    2    0    0  0.85244446264E+02 -0.15504781386E+02  0.41696021818E+02  0.15775637135E+03  0.12506598499E+03 0.  0.
          5    1    3    3  502    0  0.47173349453E+02 -0.19833611901E+02 -0.41530773832E+02  0.66037675873E+02  0.41800000000E+01 0.  1.
         -5    1    3    3    0  502  0.38071096811E+02  0.43288305144E+01  0.83226795650E+02  0.91718695478E+02  0.41800000000E+01 0.  1.
        -11    1    1    2    0    0 -0.98988785518E+02  0.23433018370E+01  0.18056601469E+03  0.20593289291E+03  0.00000000000E+00 0.  1.
         11    1    1    2    0    0  0.13744339253E+02  0.13161479549E+02  0.79286596856E+02  0.81538309073E+02  0.00000000000E+00 0. -1.
</event>
<event>
 7    1  0.2943257E-009  0.1411621E+03  0.7561462E-02  0.1211774E+00
         -2   -1    0    0    0  501 -0.00000000000E+00  0.00000000000E+00  0.12798190809E+03  0.12798190809E+03  0.00000000000E+00 0. -1.
          2   -1    0    0  501    0  0.00000000000E+00 -0.00000000000E+00 -0.18750919481E+03  0.18750919481E+03  0.00000000000E+00 0.  1.
         25    2    1    2    0    0 -0.99637293294E+02  0.18727866281E+02 -0.56435564391E+02  0.17062180264E+03  0.12509397835E+03 0.  0.
          5    1    3    3  502    0  0.19538099500E+02 -0.24662553618E+02  0.91572916218E-03  0.31740373090E+02  0.41800000000E+01 0. -1.
         -5    1    3    3    0  502 -0.11917539279E+03  0.43390419899E+02 -0.56436480121E+02  0.13888142955E+03  0.41800000000E+01 0. -1.
        -11    1    1    2    0    0  0.47604529029E+02 -0.44903156674E+02 -0.39253878188E+02  0.76310887926E+02  0.00000000000E+00 0.  1.
         11    1    1    2    0    0  0.52032764265E+02  0.26175290392E+02  0.36162155864E+02  0.68558412328E+02  0.00000000000E+00 0. -1.
</event>
<event>
 7    1  0.2943257E-009  0.1193179E+03  0.7561462E-02  0.1244227E+00
         -1   -1    0    0    0  501 -0.00000000000E+00  0.00000000000E+00  0.40002180545E+03  0.40002180545E+03  0.00000000000E+00 0.  1.
          1   -1    0    0  501    0  0.00000000000E+00 -0.00000000000E+00 -0.11641499554E+03  0.11641499554E+03  0.00000000000E+00 0. -1.
         25    2    1    2    0    0 -0.82388352112E+02  0.68626738657E+02  0.33103045804E+03  0.36976703591E+03  0.12509607056E+03 0.  0.
          5    1    3    3  502    0 -0.25025410680E+02  0.37033830623E+02  0.15510502479E+02  0.47495514288E+02  0.41800000000E+01 0.  1.
         -5    1    3    3    0  502 -0.57362941432E+02  0.31592908033E+02  0.31551995556E+03  0.32227152162E+03  0.41800000000E+01 0.  1.
        -11    1    1    2    0    0 -0.11387932697E+02  0.84215810113E+00  0.11264182707E+02  0.16039827101E+02  0.00000000000E+00 0.  1.
         11    1    1    2    0    0  0.93776284809E+02 -0.69468896758E+02 -0.58687830839E+02  0.13062993798E+03  0.00000000000E+00 0. -1.
</event>
<event>
 7    1  0.2943257E-009  0.8618601E+02  0.7561462E-02  0.1312360E+00
          1   -1    0    0  501    0  0.00000000000E+00  0.00000000000E+00  0.30426253718E+03  0.30426253718E+03  0.00000000000E+00 0. -1.
         -1   -1    0    0    0  501 -0.00000000000E+00 -0.00000000000E+00 -0.46447900821E+02  0.46447900821E+02  0.00000000000E+00 0.  1.
         25    2    1    2    0    0 -0.29500156102E+02  0.13753101603E+02  0.98337174803E+02  0.16241718599E+03  0.12509890224E+03 0.  0.
          5    1    3    3  502    0 -0.77378947753E+02  0.17887012686E+02  0.72886422953E+02  0.10787654902E+03  0.41800000000E+01 0.  1.
         -5    1    3    3    0  502  0.47878791652E+02 -0.41339110827E+01  0.25450751850E+02  0.54540636965E+02  0.41800000000E+01 0.  1.
        -11    1    1    2    0    0 -0.14464451092E+01 -0.13580400665E+02 -0.94155789188E+01  0.16588327585E+02  0.00000000000E+00 0.  1.
         11    1    1    2    0    0  0.30946601211E+02 -0.17270093760E+00  0.16889304048E+03  0.17170492443E+03  0.00000000000E+00 0. -1.
</event>
<event>
 7    1  0.2943257E-009  0.8531168E+02  0.7561462E-02  0.1314619E+00
         -1   -1    0    0    0  501 -0.00000000000E+00  0.00000000000E+00  0.19116659680E+03  0.19116659680E+03  0.00000000000E+00 0.  1.
          1   -1    0    0  501    0  0.00000000000E+00 -0.00000000000E+00 -0.79285605887E+02  0.79285605887E+02  0.00000000000E+00 0. -1.
         25    2    1    2    0    0 -0.28310009899E+02  0.50407903816E+02  0.68037809792E+02  0.15368449861E+03  0.12508944050E+03 0.  0.
          5    1    3    3  502    0  0.94241510183E+01 -0.84767780489E+01 -0.30202425099E+02  0.33020134318E+02  0.41800000000E+01 0. -1.
         -5    1    3    3    0  502 -0.37734160917E+02  0.58884681864E+02  0.98240234891E+02  0.12066436429E+03  0.41800000000E+01 0. -1.
        -11    1    1    2    0    0  0.46698704632E+02 -0.50557466456E+02  0.60740108621E+02  0.91794265748E+02  0.00000000000E+00 0.  1.
         11    1    1    2    0    0 -0.18388694734E+02  0.14956264080E+00 -0.16896927501E+02  0.24973438329E+02  0.00000000000E+00 0. -1.
</event>
<event>
 7    1  0.2943257E-009  0.1072865E+03  0.7561462E-02  0.1265679E+00
         -1   -1    0    0    0  501 -0.00000000000E+00  0.00000000000E+00  0.21284039996E+03  0.21284039996E+03  0.00000000000E+00 0.  1.
          1   -1    0    0  501    0  0.00000000000E+00 -0.00000000000E+00 -0.10662099044E+03  0.10662099044E+03  0.00000000000E+00 0. -1.
         25    2    1    2    0    0 -0.25609363061E+02  0.24579160787E+02 -0.84222525668E+01  0.13030112988E+03  0.12508986965E+03 0.  0.
          5    1    3    3  502    0 -0.40634668381E+02  0.42095430640E+02 -0.53561643426E+02  0.79432509728E+02  0.41800000000E+01 0. -1.
         -5    1    3    3    0  502  0.15025305320E+02 -0.17516269852E+02  0.45139390859E+02  0.50868620157E+02  0.41800000000E+01 0. -1.
        -11    1    1    2    0    0 -0.90293619010E+01  0.49694852559E+02  0.29068262592E+01  0.50592068411E+02  0.00000000000E+00 0.  1.
         11    1    1    2    0    0  0.34638724962E+02 -0.74274013346E+02  0.11173483583E+03  0.13856819211E+03  0.00000000000E+00 0. -1.
</event>
<event>
 7    1  0.2943257E-009  0.1530977E+03  0.7561462E-02  0.1196717E+00
         -2   -1    0    0    0  501 -0.00000000000E+00  0.00000000000E+00  0.89427158086E+02  0.89427158086E+02  0.00000000000E+00 0.  1.
          2   -1    0    0  501    0  0.00000000000E+00 -0.00000000000E+00 -0.31788833777E+03  0.31788833777E+03  0.00000000000E+00 0. -1.
         25    2    1    2    0    0 -0.53796408293E+02 -0.10516103946E+03 -0.60388046791E+02  0.18234024377E+03  0.12509336728E+03 0.  0.
          5    1    3    3  502    0 -0.59616220816E+02 -0.79465323664E+01 -0.59719855610E+02  0.84859735535E+02  0.41800000000E+01 0. -1.
         -5    1    3    3    0  502  0.58198125224E+01 -0.97214507089E+02 -0.66819118150E+00  0.97480508235E+02  0.41800000000E+01 0. -1.
        -11    1    1    2    0    0 -0.94814618886E+01 -0.11986663965E+02 -0.98387716457E+01  0.18176348920E+02  0.00000000000E+00 0.  1.
         11    1    1    2    0    0  0.63277870182E+02  0.11714770342E+03 -0.15823436124E+03  0.20679890316E+03  0.00000000000E+00 0. -1.
</event>
<event>
 7    1  0.2943257E-009  0.9856920E+02  0.7561462E-02  0.1283334E+00
         -2   -1    0    0    0  501 -0.00000000000E+00  0.00000000000E+00  0.63201695276E+02  0.63201695276E+02  0.00000000000E+00 0.  1.
          2   -1    0    0  501    0  0.00000000000E+00 -0.00000000000E+00 -0.24648869585E+03  0.24648869585E+03  0.00000000000E+00 0. -1.
         25    2    1    2    0    0  0.58050944785E+02 -0.16800996293E+02 -0.87726817574E+02  0.16430475488E+03  0.12509145569E+03 0.  0.
          5    1    3    3  502    0  0.78152457694E+02  0.19139960033E+02 -0.92463976812E+02  0.12264258690E+03  0.41800000000E+01 0. -1.
         -5    1    3    3    0  502 -0.20101512909E+02 -0.35940956326E+02  0.47371592384E+01  0.41662167977E+02  0.41800000000E+01 0. -1.
        -11    1    1    2    0    0 -0.47173851266E+02  0.31621913856E+02 -0.10879992493E+03  0.12273036032E+03  0.00000000000E+00 0. -1.
         11    1    1    2    0    0 -0.10877093520E+02 -0.14820917563E+02  0.13239741933E+02  0.22655275926E+02  0.00000000000E+00 0.  1.
</event>
<event>
 7    1  0.2943257E-009  0.8242317E+02  0.7561462E-02  0.1322312E+00
          2   -1    0    0  501    0  0.00000000000E+00  0.00000000000E+00  0.18730813016E+03  0.18730813016E+03  0.00000000000E+00 0. -1.
         -2   -1    0    0    0  501 -0.00000000000E+00 -0.00000000000E+00 -0.12878860462E+03  0.12878860462E+03  0.00000000000E+00 0.  1.
         25    2    1    2    0    0 -0.16914998100E+01  0.69241709006E+02  0.11847596140E+03  0.18569187143E+03  0.12509053620E+03 0.  0.
          5    1    3    3  502    0 -0.32991420536E+02  0.36848610024E+02  0.12987758186E+03  0.13903924827E+03  0.41800000000E+01 0.  1.
         -5    1    3    3    0  502  0.31299920726E+02  0.32393098983E+02 -0.11401620452E+02  0.46652623164E+02  0.41800000000E+01 0.  1.
        -11    1    1    2    0    0 -0.31808651258E+01 -0.50751028265E+02 -0.84906994010E+02  0.98969603439E+02  0.00000000000E+00 0.  1.
         11    1    1    2    0    0  0.48723649358E+01 -0.18490680741E+02  0.24950558139E+02  0.31435259913E+02  0.00000000000E+00 0. -1.
</event>
<event>
 7    1  0.2943257E-009  0.8570894E+02  0.7561462E-02  0.1313589E+00
          1   -1    0    0  501    0  0.00000000000E+00  0.00000000000E+00  0.76056552587E+03  0.76056552587E+03  0.00000000000E+00 0. -1.
         -1   -1    0    0    0  501 -0.00000000000E+00 -0.00000000000E+00 -0.25374824647E+02  0.25374824647E+02  0.00000000000E+00 0.  1.
         25    2    1    2    0    0 -0.59630410719E+02 -0.25924467969E+01  0.26863936393E+03  0.30229681574E+03  0.12511494832E+03 0.  0.
          5    1    3    3  502    0 -0.48527479656E+02 -0.13480308754E+02  0.27874265816E+03  0.28328709269E+03  0.41800000000E+01 0. -1.
         -5    1    3    3    0  502 -0.11102931063E+02  0.10887861957E+02 -0.10103294232E+02  0.19009723052E+02  0.41800000000E+01 0. -1.
        -11    1    1    2    0    0 -0.22373781246E+02  0.41635744974E+01  0.22222860396E+02  0.31808441710E+02  0.00000000000E+00 0.  1.
         11    1    1    2    0    0  0.82004191965E+02 -0.15711277005E+01  0.44432847690E+03  0.45183509307E+03  0.00000000000E+00 0. -1.
</event>
<event>
 7    1  0.2943257E-009  0.1051986E+03  0.7561462E-02  0.1269729E+00
          1   -1    0    0  501    0  0.00000000000E+00  0.00000000000E+00  0.25306054914E+03  0.25306054914E+03  0.00000000000E+00 0. -1.
         -1   -1    0    0    0  501 -0.00000000000E+00 -0.00000000000E+00 -0.49715838829E+02  0.49715838829E+02  0.00000000000E+00 0.  1.
         25    2    1    2    0    0 -0.22430549107E+02  0.16875176734E+02  0.13361533171E+03  0.18517102279E+03  0.12508936682E+03 0.  0.
          5    1    3    3  502    0  0.41889931203E+01  0.68712381201E+02  0.61905526947E+02  0.92675269950E+02  0.41800000000E+01 0. -1.
         -5    1    3    3    0  502 -0.26619542228E+02 -0.51837204467E+02  0.71709804762E+02  0.92495752845E+02  0.41800000000E+01 0. -1.
        -11    1    1    2    0    0 -0.10534461541E+02 -0.40888809216E+02  0.70250734329E+01  0.42804453691E+02  0.00000000000E+00 0.  1.
         11    1    1    2    0    0  0.32965010648E+02  0.24013632482E+02  0.62704305168E+02  0.74800911482E+02  0.00000000000E+00 0. -1.
</event>
<event>
 7    1  0.2943257E-009  0.2005544E+03  0.7561462E-02  0.1149272E+00
          1   -1    0    0  501    0  0.00000000000E+00  0.00000000000E+00  0.67994698823E+03  0.67994698823E+03  0.00000000000E+00 0. -1.
         -1   -1    0    0    0  501 -0.00000000000E+00 -0.00000000000E+00 -0.72271307129E+02  0.72271307129E+02  0.00000000000E+00 0.  1.
         25    2    1    2    0    0 -0.16770297710E+03  0.66144478208E+02  0.43136667416E+03  0.48396674671E+03  0.12508886368E+03 0.  0.
          5    1    3    3  502    0 -0.15742762168E+03  0.97891799702E+02  0.35456864235E+03  0.40012829825E+03  0.41800000000E+01 0. -1.
         -5    1    3    3    0  502 -0.10275355418E+02 -0.31747321494E+02  0.76798031803E+02  0.83838448458E+02  0.41800000000E+01 0. -1.
        -11    1    1    2    0    0  0.75268245599E+02 -0.16223047256E+02  0.13490792179E+03  0.15533397381E+03  0.00000000000E+00 0.  1.
         11    1    1    2    0    0  0.92434731503E+02 -0.49921430952E+02  0.41401085150E+02  0.11291757484E+03  0.00000000000E+00 0. -1.
</event>
<event>
 7    1  0.2943257E-009  0.9813941E+02  0.7561462E-02  0.1284258E+00
          2   -1    0    0  501    0  0.00000000000E+00  0.00000000000E+00  0.24595197393E+02  0.24595197393E+02  0.00000000000E+00 0. -1.
         -2   -1    0    0    0  501 -0.00000000000E+00 -0.00000000000E+00 -0.70912333755E+03  0.70912333755E+03  0.00000000000E+00 0.  1.
         25    2    1    2    0    0  0.41225985312E+02  0.51554790083E+02 -0.48076563760E+03  0.50113922473E+03  0.12508975188E+03 0.  0.
          5    1    3    3  502    0 -0.21206081964E+02 -0.19120805026E+01 -0.31808040692E+03  0.31881965377E+03  0.41800000000E+01 0.  1.
         -5    1    3    3    0  502  0.62432067276E+02  0.53466870586E+02 -0.16268523068E+03  0.18231957096E+03  0.41800000000E+01 0.  1.
        -11    1    1    2    0    0  0.10981185444E+02 -0.36243029228E+02 -0.24168007648E+02  0.44924783750E+02  0.00000000000E+00 0. -1.
         11    1    1    2    0    0 -0.52207170756E+02 -0.15311760856E+02 -0.17959449491E+03  0.18765452646E+03  0.00000000000E+00 0.  1.
</event>
<event>
 7    1  0.2943257E-009  0.9824704E+02  0.7561462E-02  0.1284026E+00
          2   -1    0    0  501    0  0.00000000000E+00  0.00000000000E+00  0.30936752851E+03  0.30936752851E+03  0.00000000000E+00 0. -1.
         -2   -1    0    0    0  501 -0.00000000000E+00 -0.00000000000E+00 -0.41699783584E+02  0.41699783584E+02  0.00000000000E+00 0.  1.
         25    2    1    2    0    0 -0.28578262714E+02  0.39865902041E+02  0.97278977476E+02  0.16588425131E+03  0.12509347756E+03 0.  0.
          5    1    3    3  502    0 -0.13826462462E+02  0.82569204016E+02  0.83858022753E+02  0.11856848188E+03  0.41800000000E+01 0.  1.
         -5    1    3    3    0  502 -0.14751800252E+02 -0.42703301976E+02  0.13420954723E+02  0.47315769422E+02  0.41800000000E+01 0.  1.
        -11    1    1    2    0    0  0.16883165088E+02 -0.49402685469E+02  0.95988702006E+02  0.10926800770E+03  0.00000000000E+00 0.  1.
         11    1    1    2    0    0  0.11695097627E+02  0.95367834278E+01  0.74400065446E+02  0.75915053086E+02  0.00000000000E+00 0. -1.
</event>
<event>
 7    1  0.3055839E-009  0.1874749E+03  0.7561462E-02  0.1160759E+00
          3   -1    0    0  501    0  0.00000000000E+00  0.00000000000E+00  0.39354001366E+03  0.39354001366E+03  0.00000000000E+00 0. -1.
         -3   -1    0    0    0  501 -0.00000000000E+00 -0.00000000000E+00 -0.12701404719E+03  0.12701404719E+03  0.00000000000E+00 0.  1.
         25    2    1    2    0    0  0.14536161811E+03 -0.64571023191E+02  0.63876847501E+01  0.20246419439E+03  0.12510607675E+03 0.  0.
          5    1    3    3  502    0 -0.20816025477E+02  0.10334949555E+01  0.10501315462E+02  0.23709176597E+02  0.41800000000E+01 0. -1.
         -5    1    3    3    0  502  0.16617764358E+03 -0.65604518146E+02 -0.41136307114E+01  0.17875501779E+03  0.41800000000E+01 0. -1.
        -11    1    1    2    0    0 -0.10164136083E+03  0.79229692776E+02  0.14462576351E+03  0.19371350474E+03  0.00000000000E+00 0.  1.
         11    1    1    2    0    0 -0.43720257271E+02 -0.14658669585E+02  0.11551251821E+03  0.12437636171E+03  0.00000000000E+00 0. -1.
</event>
<event>
 7    1  0.3542935E-009  0.1737993E+03  0.7561462E-02  0.1173943E+00
         -2   -1    0    0    0  501 -0.00000000000E+00  0.00000000000E+00  0.36486389873E+02  0.36486389873E+02  0.00000000000E+00 0. -1.
          2   -1    0    0  501    0  0.00000000000E+00 -0.00000000000E+00 -0.11139123030E+04  0.11139123030E+04  0.00000000000E+00 0.  1.
         25    2    1    2    0    0  0.90531929532E+02 -0.14327084359E+03 -0.55018699262E+03  0.58913139939E+03  0.12509002361E+03 0.  0.
          5    1    3    3  502    0  0.33088408242E+02 -0.53524339140E+02 -0.58521957705E+02  0.86034816057E+02  0.41800000000E+01 0. -1.
         -5    1    3    3    0  502  0.57443521290E+02 -0.89746504447E+02 -0.49166503492E+03  0.50309658333E+03  0.41800000000E+01 0. -1.
        -11    1    1    2    0    0 -0.39575259153E+02  0.11034444539E+03 -0.43758400180E+03  0.45301419006E+03  0.00000000000E+00 0.  1.
         11    1    1    2    0    0 -0.50956670379E+02  0.32926398200E+02 -0.89654918735E+02  0.10825310346E+03  0.00000000000E+00 0. -1.
</event>
<event>
 7    1  0.2943257E-009  0.1067990E+03  0.7561462E-02  0.1266615E+00
         -3   -1    0    0    0  501 -0.00000000000E+00  0.00000000000E+00  0.46127266607E+02  0.46127266607E+02  0.00000000000E+00 0. -1.
          3   -1    0    0  501    0  0.00000000000E+00 -0.00000000000E+00 -0.27628771224E+03  0.27628771224E+03  0.00000000000E+00 0.  1.
         25    2    1    2    0    0 -0.18217050083E+01  0.29328651988E+02 -0.15361950670E+03  0.20027534988E+03  0.12509106480E+03 0.  0.
          5    1    3    3  502    0 -0.41046732603E+02 -0.32923053284E+02 -0.47081707432E+02  0.70731331598E+02  0.41800000000E+01 0.  1.
         -5    1    3    3    0  502  0.39225027594E+02  0.62251705272E+02 -0.10653779927E+03  0.12954401828E+03  0.41800000000E+01 0.  1.
        -11    1    1    2    0    0  0.36319051283E+02 -0.36923435984E+02 -0.20098346690E+02  0.55554992131E+02  0.00000000000E+00 0.  1.
         11    1    1    2    0    0 -0.34497346275E+02  0.75947839957E+01 -0.56442592246E+02  0.66584636842E+02  0.00000000000E+00 0. -1.
</event>
<event>
 7    1  0.2943257E-009  0.8414713E+02  0.7561462E-02  0.1317678E+00
         -1   -1    0    0    0  501 -0.00000000000E+00  0.00000000000E+00  0.22821896711E+03  0.22821896711E+03  0.00000000000E+00 0.  1.
          1   -1    0    0  501    0  0.00000000000E+00 -0.00000000000E+00 -0.11388203708E+03  0.11388203708E+03  0.00000000000E+00 0. -1.
         25    2    1    2    0    0 -0.29282781662E+02 -0.86408666155E+01 -0.61200938959E+02  0.14256906421E+03  0.12509291452E+03 0.  0.
          5    1    3    3  502    0  0.24411414471E+02 -0.76379986389E+01  0.28133031026E+02  0.38251745247E+02  0.41800000000E+01 0. -1.
         -5    1    3    3    0  502 -0.53694196133E+02 -0.10028679766E+01 -0.89333969985E+02  0.10431731896E+03  0.41800000000E+01 0. -1.
        -11    1    1    2    0    0  0.39044892286E+02  0.39862132998E+02  0.72876782233E+02  0.91785176632E+02  0.00000000000E+00 0. -1.
         11    1    1    2    0    0 -0.97621106243E+01 -0.31221266382E+02  0.10266108676E+03  0.10774676335E+03  0.00000000000E+00 0.  1.
</event>
<event>
 7    1  0.2943257E-009  0.9056514E+02  0.7561462E-02  0.1301489E+00
         -1   -1    0    0    0  501 -0.00000000000E+00  0.00000000000E+00  0.19116921234E+02  0.19116921234E+02  0.00000000000E+00 0.  1.
          1   -1    0    0  501    0  0.00000000000E+00 -0.00000000000E+00 -0.10332905137E+04  0.10332905137E+04  0.00000000000E+00 0. -1.
         25    2    1    2    0    0  0.97327617351E+01 -0.27208879349E+02 -0.87342621764E+03  0.88281109314E+03  0.12508804399E+03 0.  0.
          5    1    3    3  502    0 -0.36963643138E+02  0.28883344241E+02 -0.50571511674E+03  0.50790334729E+03  0.41800000000E+01 0.  1.
         -5    1    3    3    0  502  0.46696404873E+02 -0.56092223591E+02 -0.36771110089E+03  0.37490774585E+03  0.41800000000E+01 0.  1.
        -11    1    1    2    0    0 -0.31122814342E+01  0.43361161518E+02 -0.14521061880E+03  0.15157836401E+03  0.00000000000E+00 0. -1.
         11    1    1    2    0    0 -0.66204803009E+01 -0.16152282168E+02  0.44632439262E+01  0.18017977828E+02  0.00000000000E+00 0.  1.
</event>
<event>
 6    1  0.2943257E-009  0.1480958E+03  0.7561462E-02  0.1202833E+00
         -2   -1    0    0    0  501 -0.00000000000E+00  0.00000000000E+00  0.53967934906E+02  0.53967934906E+02  0.00000000000E+00 0. -1.
          2   -1    0    0  501    0  0.00000000000E+00 -0.00000000000E+00 -0.54667827820E+03  0.54667827820E+03  0.00000000000E+00 0.  1.
          5    1    1    2  502    0  0.12883100926E+03 -0.35684165119E+02 -0.30832609940E+03  0.33608517456E+03  0.41800000000E+01 0.  1.
         -5    1    1    2    0  502 -0.68971437402E+00  0.28246327574E+02 -0.11968013877E+02  0.30968314185E+02  0.41800000000E+01 0.  1.
        -11    1    1    2    0    0 -0.12044420180E+03 -0.35148196600E+01 -0.18118184930E+03  0.21759141118E+03  0.00000000000E+00 0.  1.
         11    1    1    2    0    0 -0.76970930854E+01  0.10952657205E+02  0.87656192852E+01  0.16001313174E+02  0.00000000000E+00 0. -1.
</event>
<event>
 7    1  0.2943257E-009  0.1047557E+03  0.7561462E-02  0.1270602E+00
          2   -1    0    0  501    0  0.00000000000E+00  0.00000000000E+00  0.34351108611E+03  0.34351108611E+03  0.00000000000E+00 0. -1.
         -2   -1    0    0    0  501 -0.00000000000E+00 -0.00000000000E+00 -0.39408774890E+02  0.39408774890E+02  0.00000000000E+00 0.  1.
         25    2    1    2    0    0  0.58222814478E+01  0.43041686120E+02  0.16914456383E+03  0.21481138650E+03  0.12509021781E+03 0.  0.
          5    1    3    3  502    0 -0.25986033647E+02 -0.37201676149E+02  0.66758550816E+02  0.80829543857E+02  0.41800000000E+01 0. -1.
         -5    1    3    3    0  502  0.31808315094E+02  0.80243362269E+02  0.10238601301E+03  0.13398184264E+03  0.41800000000E+01 0. -1.
        -11    1    1    2    0    0 -0.79687715955E+01  0.16298561727E+02 -0.25567349932E+01  0.18321608252E+02  0.00000000000E+00 0.  1.
         11    1    1    2    0    0  0.21464901477E+01 -0.59340247847E+02  0.13751448238E+03  0.14978686624E+03  0.00000000000E+00 0. -1.
</event>
<event>
 7    1  0.2943257E-009  0.1063046E+03  0.7561462E-02  0.1267570E+00
          2   -1    0    0  501    0  0.00000000000E+00  0.00000000000E+00  0.83649406486E+03  0.83649406486E+03  0.00000000000E+00 0.  1.
         -2   -1    0    0    0  501 -0.00000000000E+00 -0.00000000000E+00 -0.18308901558E+02  0.18308901558E+02  0.00000000000E+00 0. -1.
         25    2    1    2    0    0 -0.26359709555E+02 -0.40819222509E+02  0.34272081147E+03  0.36805725653E+03  0.12509015250E+03 0.  0.
          5    1    3    3  502    0  0.49349667616E+01 -0.67096988251E+02  0.30475876932E+03  0.31212455784E+03  0.41800000000E+01 0. -1.
         -5    1    3    3    0  502 -0.31294676317E+02  0.26277765742E+02  0.37962042151E+02  0.55932698687E+02  0.41800000000E+01 0. -1.
        -11    1    1    2    0    0 -0.27885432608E+02 -0.10164455196E+02  0.14333042223E+03  0.14637118377E+03  0.00000000000E+00 0. -1.
         11    1    1    2    0    0  0.54245142163E+02  0.50983677705E+02  0.33213392960E+03  0.34037452612E+03  0.00000000000E+00 0.  1.
</event>
<event>
 7    1  0.2943257E-009  0.2289038E+03  0.7561462E-02  0.1127414E+00
         -2   -1    0    0    0  501 -0.00000000000E+00  0.00000000000E+00  0.65703491738E+02  0.65703491738E+02  0.00000000000E+00 0.  1.
          2   -1    0    0  501    0  0.00000000000E+00 -0.00000000000E+00 -0.11211428954E+04  0.11211428954E+04  0.00000000000E+00 0. -1.
         25    2    1    2    0    0 -0.14481855752E+03 -0.17089340586E+03 -0.78288279929E+03  0.82385130061E+03  0.12509403388E+03 0.  0.
          5    1    3    3  502    0 -0.13290584506E+03 -0.15317841268E+03 -0.77436264609E+03  0.80048895672E+03  0.41800000000E+01 0.  1.
         -5    1    3    3    0  502 -0.11912712455E+02 -0.17714993178E+02 -0.85201531998E+01  0.23362343887E+02  0.41800000000E+01 0.  1.
        -11    1    1    2    0    0  0.24492670575E+02  0.76362311679E+02 -0.13610891406E+03  0.15797699213E+03  0.00000000000E+00 0. -1.
         11    1    1    2    0    0  0.12032588694E+03  0.94531094181E+02 -0.13644769028E+03  0.20501809437E+03  0.00000000000E+00 0.  1.
</event>
<event>
 7    1  0.2943257E-009  0.8148669E+02  0.7561462E-02  0.1324885E+00
         -2   -1    0    0    0  501 -0.00000000000E+00  0.00000000000E+00  0.37731477088E+02  0.37731477088E+02  0.00000000000E+00 0.  1.
          2   -1    0    0  501    0  0.00000000000E+00 -0.00000000000E+00 -0.42545564164E+03  0.42545564164E+03  0.00000000000E+00 0. -1.
         25    2    1    2    0    0 -0.90934942198E+01 -0.21802851200E+02 -0.32731719331E+03  0.35120074671E+03  0.12508942199E+03 0.  0.
          5    1    3    3  502    0 -0.68049499194E+00  0.22792222911E+02 -0.29359097845E+03  0.29450481070E+03  0.41800000000E+01 0.  1.
         -5    1    3    3    0  502 -0.84129992278E+01 -0.44595074112E+02 -0.33726214864E+02  0.56695936010E+02  0.41800000000E+01 0.  1.
        -11    1    1    2    0    0 -0.40425726003E+02  0.18865269945E+02 -0.26303873149E+02  0.51788333393E+02  0.00000000000E+00 0.  1.
         11    1    1    2    0    0  0.49519220223E+02  0.29375812554E+01 -0.34103098094E+02  0.60198038629E+02  0.00000000000E+00 0. -1.
</event>
<event>
 7    1  0.2943257E-009  0.1355144E+03  0.7561462E-02  0.1219495E+00
          1   -1    0    0  501    0  0.00000000000E+00  0.00000000000E+00  0.18536773100E+03  0.18536773100E+03  0.00000000000E+00 0. -1.
         -1   -1    0    0    0  501 -0.00000000000E+00 -0.00000000000E+00 -0.12865702877E+03  0.12865702877E+03  0.00000000000E+00 0.  1.
         25    2    1    2    0    0 -0.65938292630E+02 -0.71068407961E+02 -0.18553686965E+02  0.15934663451E+03  0.12509409892E+03 0.  0.
          5    1    3    3  502    0  0.25229313023E+01 -0.79110652675E+02 -0.37574524111E+02  0.87716462601E+02  0.41800000000E+01 0. -1.
         -5    1    3    3    0  502 -0.68461223933E+02  0.80422447138E+01  0.19020837146E+02  0.71630171912E+02  0.41800000000E+01 0. -1.
        -11    1    1    2    0    0  0.32292398140E+02 -0.10917241926E+02 -0.57948458531E+01  0.34576948786E+02  0.00000000000E+00 0.  1.
         11    1    1    2    0    0  0.33645894490E+02  0.81985649887E+02  0.81059235041E+02  0.12010117647E+03  0.00000000000E+00 0. -1.
</event>
<event>
 7    1  0.2943257E-009  0.1290168E+03  0.7561462E-02  0.1228922E+00
          2   -1    0    0  501    0  0.00000000000E+00  0.00000000000E+00  0.81666595012E+03  0.81666595012E+03  0.00000000000E+00 0. -1.
         -2   -1    0    0    0  501 -0.00000000000E+00 -0.00000000000E+00 -0.22840795526E+02  0.22840795526E+02  0.00000000000E+00 0.  1.
         25    2    1    2    0    0  0.71315352668E+02 -0.26500959329E+02  0.56313350821E+03  0.58185679920E+03  0.12509918600E+03 0.  0.
          5    1    3    3  502    0  0.10743389490E+03 -0.17270915802E+02  0.41574257257E+03  0.42976701287E+03  0.41800000000E+01 0.  1.
         -5    1    3    3    0  502 -0.36118542235E+02 -0.92300435272E+01  0.14739093564E+03  0.15208978633E+03  0.41800000000E+01 0.  1.
        -11    1    1    2    0    0  0.13811176890E+02 -0.11908759465E+02  0.19327927360E+02  0.26573218381E+02  0.00000000000E+00 0.  1.
         11    1    1    2    0    0 -0.85126529558E+02  0.38409718794E+02  0.21136371902E+03  0.23107672806E+03  0.00000000000E+00 0. -1.
</event>
<event>
 7    1  0.2943257E-009  0.1106325E+03  0.7561462E-02  0.1259403E+00
         -2   -1    0    0    0  501 -0.00000000000E+00  0.00000000000E+00  0.26721944790E+02  0.26721944790E+02  0.00000000000E+00 0. -1.
          2   -1    0    0  501    0  0.00000000000E+00 -0.00000000000E+00 -0.17826119201E+04  0.17826119201E+04  0.00000000000E+00 0.  1.
         25    2    1    2    0    0  0.63188903768E+02  0.57302693894E+02 -0.16097150293E+04  0.16168196673E+04  0.12508766758E+03 0.  0.
          5    1    3    3  502    0  0.21343813953E+02  0.48979333252E+02 -0.21962947404E+03  0.22607324421E+03  0.41800000000E+01 0.  1.
         -5    1    3    3    0  502  0.41845089815E+02  0.83233606414E+01 -0.13900855553E+04  0.13907464231E+04  0.41800000000E+01 0.  1.
        -11    1    1    2    0    0 -0.26464160758E+02 -0.78195971801E+02 -0.10442479412E+03  0.13311461016E+03  0.00000000000E+00 0.  1.
         11    1    1    2    0    0 -0.36724743010E+02  0.20893277907E+02 -0.41750151921E+02  0.59399587509E+02  0.00000000000E+00 0. -1.
</event>
<event>
 7    1  0.3143902E-009  0.1273813E+03  0.7561462E-02  0.1231394E+00
         -2   -1    0    0    0  501 -0.00000000000E+00  0.00000000000E+00  0.17980487526E+03  0.17980487526E+03  0.00000000000E+00 0.  1.
          2   -1    0    0  501    0  0.00000000000E+00 -0.00000000000E+00 -0.12134399065E+03  0.12134399065E+03  0.00000000000E+00 0. -1.
         25    2    1    2    0    0  0.73062242968E+02  0.68722764209E+02  0.32045675051E+02  0.16351041656E+03  0.12509125216E+03 0.  0.
          5    1    3    3  502    0  0.97207125382E+02  0.21472378962E+02 -0.31705178644E+01  0.99688579421E+02  0.41800000000E+01 0.  1.
         -5    1    3    3    0  502 -0.24144882415E+02  0.47250385247E+02  0.35216192916E+02  0.63821837143E+02  0.41800000000E+01 0.  1.
        -11    1    1    2    0    0 -0.60899670376E+01 -0.14501508310E+02 -0.30536386849E+02  0.34348979077E+02  0.00000000000E+00 0. -1.
         11    1    1    2    0    0 -0.66972275930E+02 -0.54221255899E+02  0.56951596410E+02  0.10328947027E+03  0.00000000000E+00 0.  1.
</event>
<event>
 7    1  0.2943257E-009  0.5881737E+02  0.7561462E-02  0.1402863E+00
          1   -1    0    0  501    0  0.00000000000E+00  0.00000000000E+00  0.47011813078E+02  0.47011813078E+02  0.00000000000E+00 0. -1.
         -1   -1    0    0    0  501 -0.00000000000E+00 -0.00000000000E+00 -0.25230874996E+03  0.25230874996E+03  0.00000000000E+00 0.  1.
         25    2    1    2    0    0  0.34961194365E+02 -0.19161960413E+02 -0.12984408215E+03  0.18465177665E+03  0.12508927658E+03 0.  0.
          5    1    3    3  502    0  0.17753510959E+02  0.11053352303E+02 -0.14495021958E+03  0.14651075833E+03  0.41800000000E+01 0. -1.
         -5    1    3    3    0  502  0.17207683407E+02 -0.30215312716E+02  0.15106137436E+02  0.38141018327E+02  0.41800000000E+01 0. -1.
        -11    1    1    2    0    0  0.95178019407E+01  0.13398524415E+02  0.92245295799E+01  0.18846775752E+02  0.00000000000E+00 0. -1.
         11    1    1    2    0    0 -0.44478996306E+02  0.57634359978E+01 -0.84677384315E+02  0.95822010630E+02  0.00000000000E+00 0.  1.
</event>
<event>
 7    1  0.2943257E-009  0.1049086E+03  0.7561462E-02  0.1270300E+00
          3   -1    0    0  501    0  0.00000000000E+00  0.00000000000E+00  0.72676506674E+02  0.72676506674E+02  0.00000000000E+00 0. -1.
         -3   -1    0    0    0  501 -0.00000000000E+00 -0.00000000000E+00 -0.22562957456E+03  0.22562957456E+03  0.00000000000E+00 0.  1.
         25    2    1    2    0    0  0.62172750178E+02 -0.21561333090E+02 -0.63149344626E+02  0.15480831571E+03  0.12508969956E+03 0.  0.
          5    1    3    3  502    0 -0.35471262621E+02 -0.24241144704E+02 -0.14001308329E+02  0.45380090386E+02  0.41800000000E+01 0.  1.
         -5    1    3    3    0  502  0.97644012799E+02  0.26798116137E+01 -0.49148036298E+02  0.10942822532E+03  0.41800000000E+01 0.  1.
        -11    1    1    2    0    0 -0.33600782612E+02  0.22251421363E+02 -0.10403666873E+03  0.11156956030E+03  0.00000000000E+00 0.  1.
         11    1    1    2    0    0 -0.28571967566E+02 -0.69008827261E+00  0.14232945467E+02  0.31928205228E+02  0.00000000000E+00 0. -1.
</event>
<event>
 7    1  0.2943257E-009  0.9986875E+02  0.7561462E-02  0.1280572E+00
          2   -1    0    0  501    0  0.00000000000E+00  0.00000000000E+00  0.29051951287E+02  0.29051951287E+02  0.00000000000E+00 0.  1.
         -2   -1    0    0    0  501 -0.00000000000E+00 -0.00000000000E+00 -0.46490624320E+03  0.46490624320E+03  0.00000000000E+00 0. -1.
         25    2    1    2    0    0 -0.40353240961E+02 -0.85937312893E+01 -0.25836109877E+03  0.28999981048E+03  0.12508875428E+03 0.  0.
          5    1    3    3  502    0 -0.49575125476E+02 -0.46978562197E+02 -0.71493023114E+02  0.98961624512E+02  0.41800000000E+01 0. -1.
         -5    1    3    3    0  502  0.92218845158E+01  0.38384830908E+02 -0.18686807566E+03  0.19103818597E+03  0.41800000000E+01 0. -1.
        -11    1    1    2    0    0  0.12686257753E+02 -0.36537274449E+02 -0.11871348673E+03  0.12485513803E+03  0.00000000000E+00 0. -1.
         11    1    1    2    0    0  0.27666983208E+02  0.45131005739E+02 -0.58779706410E+02  0.79103245979E+02  0.00000000000E+00 0.  1.
</event>
<event>
 7    1  0.2943257E-009  0.2046439E+03  0.7561462E-02  0.1145879E+00
         -2   -1    0    0    0  501 -0.00000000000E+00  0.00000000000E+00  0.41851660617E+02  0.41851660617E+02  0.00000000000E+00 0. -1.
          2   -1    0    0  501    0  0.00000000000E+00 -0.00000000000E+00 -0.12831356147E+04  0.12831356147E+04  0.00000000000E+00 0.  1.
         25    2    1    2    0    0 -0.87850282036E+02  0.15266225883E+03 -0.94051418616E+03  0.96500694372E+03  0.12509208506E+03 0.  0.
          5    1    3    3  502    0 -0.59372709165E+02  0.17726988100E+01 -0.33891439099E+03  0.34410564930E+03  0.41800000000E+01 0. -1.
         -5    1    3    3    0  502 -0.28477572871E+02  0.15088956002E+03 -0.60159979516E+03  0.62090129442E+03  0.41800000000E+01 0. -1.
        -11    1    1    2    0    0  0.45010050015E+02 -0.85867939253E+01 -0.91397422050E+02  0.10224053203E+03  0.00000000000E+00 0.  1.
         11    1    1    2    0    0  0.42840232022E+02 -0.14407546490E+03 -0.20937234592E+03  0.25773979961E+03  0.00000000000E+00 0. -1.
</event>
<event>
 6    1  0.2943257E-009  0.1175333E+03  0.7561462E-02  0.1247223E+00
         -2   -1    0    0    0  501 -0.00000000000E+00  0.00000000000E+00  0.45478929763E+02  0.45478929763E+02  0.00000000000E+00 0.  1.
          2   -1    0    0  501    0  0.00000000000E+00 -0.00000000000E+00 -0.49804991360E+03  0.49804991360E+03  0.00000000000E+00 0. -1.
          5    1    1    2  502    0 -0.39202360590E+02  0.52190364658E+01 -0.91058835878E+02  0.99364215938E+02  0.41800000000E+01 0.  1.
         -5    1    1    2    0  502  0.79542396801E+02 -0.72215307506E+02 -0.27725017320E+03  0.29736707025E+03  0.41800000000E+01 0.  1.
        -11    1    1    2    0    0  0.70843571018E+00  0.36842609851E+02  0.11271388329E+02  0.38534711322E+02  0.00000000000E+00 0.  1.
         11    1    1    2    0    0 -0.41048471922E+02  0.30153661189E+02 -0.95533363087E+02  0.10826284586E+03  0.00000000000E+00 0. -1.
</event>
<event>
 7    1  0.3874152E-009  0.1634616E+03  0.7561462E-02  0.1184843E+00
         -1   -1    0    0    0  501 -0.00000000000E+00  0.00000000000E+00  0.15451370953E+03  0.15451370953E+03  0.00000000000E+00 0.  1.
          1   -1    0    0  501    0  0.00000000000E+00 -0.00000000000E+00 -0.58132664212E+03  0.58132664212E+03  0.00000000000E+00 0. -1.
         25    2    1    2    0    0  0.11289880178E+03  0.11226976330E+03  0.63576960518E+02  0.21221615328E+03  0.12507208566E+03 0.  0.
          5    1    3    3  502    0  0.96287032506E+02  0.64921099412E+02  0.97344702035E+02  0.15158959460E+03  0.41800000000E+01 0.  1.
         -5    1    3    3    0  502  0.16611769275E+02  0.47348663885E+02 -0.33767741517E+02  0.60626558680E+02  0.41800000000E+01 0.  1.
        -11    1    1    2    0    0 -0.66682378612E+02 -0.79223113429E+02 -0.42294892595E+03  0.43544073682E+03  0.00000000000E+00 0. -1.
         11    1    1    2    0    0 -0.46216423169E+02 -0.33046649868E+02 -0.67440967165E+02  0.88183461546E+02  0.00000000000E+00 0.  1.
</event>
<event>
 7    1  0.2943257E-009  0.1199515E+03  0.7561462E-02  0.1243177E+00
         -1   -1    0    0    0  501 -0.00000000000E+00  0.00000000000E+00  0.19426569726E+03  0.19426569726E+03  0.00000000000E+00 0.  1.
          1   -1    0    0  501    0  0.00000000000E+00 -0.00000000000E+00 -0.89459639141E+02  0.89459639141E+02  0.00000000000E+00 0. -1.
         25    2    1    2    0    0  0.35276942601E+02  0.58537815602E+02  0.24234254784E+02  0.14458876790E+03  0.12508986436E+03 0.  0.
          5    1    3    3  502    0  0.69121356936E+02  0.10330233927E+02  0.43557937189E+02  0.82457516394E+02  0.41800000000E+01 0. -1.
         -5    1    3    3    0  502 -0.33844414335E+02  0.48207581674E+02 -0.19323682405E+02  0.62131251510E+02  0.41800000000E+01 0. -1.
        -11    1    1    2    0    0  0.12343537906E+02  0.17322742388E+02  0.47732501560E+01  0.21799638734E+02  0.00000000000E+00 0. -1.
         11    1    1    2    0    0 -0.47620480508E+02 -0.75860557989E+02  0.75798553183E+02  0.11733692977E+03  0.00000000000E+00 0.  1.
</event>
<event>
 7    1  0.2943257E-009  0.1146544E+03  0.7561462E-02  0.1252186E+00
         -2   -1    0    0    0  501 -0.00000000000E+00  0.00000000000E+00  0.14421006459E+03  0.14421006459E+03  0.00000000000E+00 0.  1.
          2   -1    0    0  501    0  0.00000000000E+00 -0.00000000000E+00 -0.12661171697E+03  0.12661171697E+03  0.00000000000E+00 0. -1.
         25    2    1    2    0    0  0.20625587500E+02 -0.70575534961E+02 -0.23341749929E+02  0.14696657559E+03  0.12509203035E+03 0.  0.
          5    1    3    3  502    0  0.62897467341E+02 -0.55282386214E+02 -0.46871831740E+02  0.96055580962E+02  0.41800000000E+01 0.  1.
         -5    1    3    3    0  502 -0.42271879841E+02 -0.15293148748E+02  0.23530081810E+02  0.50910994627E+02  0.41800000000E+01 0.  1.
        -11    1    1    2    0    0  0.21183885124E+02  0.48752427149E+02  0.53116967969E+02  0.75146313470E+02  0.00000000000E+00 0.  1.
         11    1    1    2    0    0 -0.41809472624E+02  0.21823107812E+02 -0.12176870410E+02  0.48708892501E+02  0.00000000000E+00 0. -1.
</event>
<event>
 7    1  0.2943257E-009  0.1054079E+03  0.7561462E-02  0.1269318E+00
         -1   -1    0    0    0  501 -0.00000000000E+00  0.00000000000E+00  0.20214727816E+03  0.20214727816E+03  0.00000000000E+00 0.  1.
          1   -1    0    0  501    0  0.00000000000E+00 -0.00000000000E+00 -0.69022908458E+02  0.69022908458E+02  0.00000000000E+00 0. -1.
         25    2    1    2    0    0 -0.15061018883E+02  0.26780829161E+02  0.10749151777E+03  0.16776646202E+03  0.12508841788E+03 0.  0.
          5    1    3    3  502    0 -0.39689830395E+02 -0.34607888180E+02  0.80324282569E+02  0.96137668639E+02  0.41800000000E+01 0. -1.
         -5    1    3    3    0  502  0.24628811512E+02  0.61388717341E+02  0.27167235202E+02  0.71628793385E+02  0.41800000000E+01 0. -1.
        -11    1    1    2    0    0  0.51297466311E+02 -0.12767636472E+02 -0.61354167007E+01  0.53217346130E+02  0.00000000000E+00 0.  1.
         11    1    1    2    0    0 -0.36236447428E+02 -0.14013192689E+02  0.31768268633E+02  0.50186378465E+02  0.00000000000E+00 0. -1.
</event>
<event>
 7    1  0.2943257E-009  0.9772370E+02  0.7561462E-02  0.1285157E+00
          2   -1    0    0  501    0  0.00000000000E+00  0.00000000000E+00  0.10215277285E+03  0.10215277285E+03  0.00000000000E+00 0.  1.
         -2   -1    0    0    0  501 -0.00000000000E+00 -0.00000000000E+00 -0.20895252096E+03  0.20895252096E+03  0.00000000000E+00 0. -1.
         25    2    1    2    0    0 -0.22759218778E+02  0.73380109632E+01 -0.15870414378E+03  0.20348352020E+03  0.12508680704E+03 0.  0.
          5    1    3    3  502    0  0.38406573792E+02  0.13520771126E+02 -0.94470256804E+01  0.42007081028E+02  0.41800000000E+01 0. -1.
         -5    1    3    3    0  502 -0.61165792571E+02 -0.61827601632E+01 -0.14925711809E+03  0.16147643917E+03  0.41800000000E+01 0. -1.
        -11    1    1    2    0    0  0.34981863633E+01 -0.47882412715E+02  0.17626943879E+02  0.51143639935E+02  0.00000000000E+00 0.  1.
         11    1    1    2    0    0  0.19261032415E+02  0.40544401752E+02  0.34277451789E+02  0.56478133682E+02  0.00000000000E+00 0. -1.
</event>
<event>
 7    1  0.2943257E-009  0.2323030E+03  0.7561462E-02  0.1125029E+00
          2   -1    0    0  501    0  0.00000000000E+00  0.00000000000E+00  0.15028982784E+04  0.15028982784E+04  0.00000000000E+00 0.  1.
         -2   -1    0    0    0  501 -0.00000000000E+00 -0.00000000000E+00 -0.42578726123E+02  0.42578726123E+02  0.00000000000E+00 0. -1.
         25    2    1    2    0    0 -0.87473007844E+01 -0.21254075767E+03  0.50404061044E+03  0.56120536624E+03  0.12507772455E+03 0.  0.
          5    1    3    3  502    0 -0.12548832402E+01  0.93813846420E+01 -0.64366194748E-01  0.10347060102E+02  0.41800000000E+01 0. -1.
         -5    1    3    3    0  502 -0.74924175442E+01 -0.22192214231E+03  0.50410497664E+03  0.55085830614E+03  0.41800000000E+01 0. -1.
        -11    1    1    2    0    0 -0.42260123066E+02  0.89447055238E+02  0.36532280071E+03  0.37848043861E+03  0.00000000000E+00 0.  1.
         11    1    1    2    0    0  0.51007423850E+02  0.12309370243E+03  0.59095614110E+03  0.60579119965E+03  0.00000000000E+00 0. -1.
</event>
<event>
 7    1  0.2943257E-009  0.9295355E+02  0.7561462E-02  0.1295853E+00
          1   -1    0    0  501    0  0.00000000000E+00  0.00000000000E+00  0.16988294456E+02  0.16988294456E+02  0.00000000000E+00 0. -1.
         -1   -1    0    0    0  501 -0.00000000000E+00 -0.00000000000E+00 -0.83818485763E+03  0.83818485763E+03  0.00000000000E+00 0.  1.
         25    2    1    2    0    0  0.11406949760E+02  0.78609746383E+01 -0.63622845682E+03  0.64855783461E+03  0.12509477261E+03 0.  0.
          5    1    3    3  502    0  0.23975267716E+02 -0.41971274050E+02 -0.11541040375E+03  0.12519359009E+03  0.41800000000E+01 0.  1.
         -5    1    3    3    0  502 -0.12568317956E+02  0.49832248688E+02 -0.52081805308E+03  0.52336424451E+03  0.41800000000E+01 0.  1.
        -11    1    1    2    0    0  0.12899578188E+01 -0.45801272239E+02 -0.60612121767E+02  0.75981904655E+02  0.00000000000E+00 0. -1.
         11    1    1    2    0    0 -0.12696907579E+02  0.37940297600E+02 -0.12435598458E+03  0.13063341282E+03  0.00000000000E+00 0.  1.
</event>
<event>
 7    1  0.2943257E-009  0.1230656E+03  0.7561462E-02  0.1238124E+00
         -2   -1    0    0    0  501 -0.00000000000E+00  0.00000000000E+00  0.37333916605E+02  0.37333916605E+02  0.00000000000E+00 0.  1.
          2   -1    0    0  501    0  0.00000000000E+00 -0.00000000000E+00 -0.76435076732E+03  0.76435076732E+03  0.00000000000E+00 0. -1.
         25    2    1    2    0    0  0.10935868972E+03 -0.47714916548E+02 -0.50530220847E+03  0.53405464558E+03  0.12509199138E+03 0.  0.
          5    1    3    3  502    0  0.10039913063E+03 -0.33913098531E+02 -0.18454415050E+03  0.21284759704E+03  0.41800000000E+01 0.  1.
         -5    1    3    3    0  502  0.89595590883E+01 -0.13801818018E+02 -0.32075805797E+03  0.32120704854E+03  0.41800000000E+01 0.  1.
        -11    1    1    2    0    0 -0.71684136200E+02  0.46421392128E+02 -0.67448672427E+02  0.10882501754E+03  0.00000000000E+00 0.  1.
         11    1    1    2    0    0 -0.37674553518E+02  0.12935244206E+01 -0.15426596982E+03  0.15880502080E+03  0.00000000000E+00 0. -1.
</event>
<event>
 7    1  0.2943257E-009  0.1028829E+03  0.7561462E-02  0.1274348E+00
         -1   -1    0    0    0  501 -0.00000000000E+00  0.00000000000E+00  0.26837698325E+02  0.26837698325E+02  0.00000000000E+00 0.  1.
          1   -1    0    0  501    0  0.00000000000E+00 -0.00000000000E+00 -0.57073581526E+03  0.57073581526E+03  0.00000000000E+00 0. -1.
         25    2    1    2    0    0  0.45990861624E+02 -0.11880932153E+02 -0.40967853166E+03  0.43098041247E+03  0.12510515868E+03 0.  0.
          5    1    3    3  502    0  0.31667277490E+02 -0.55420668046E+02 -0.10578439106E+03  0.12362069690E+03  0.41800000000E+01 0. -1.
         -5    1    3    3    0  502  0.14323584133E+02  0.43539735893E+02 -0.30389414060E+03  0.30735971557E+03  0.41800000000E+01 0. -1.
        -11    1    1    2    0    0 -0.14727041334E+01  0.41998791696E+02 -0.39436352387E+02  0.57630662420E+02  0.00000000000E+00 0.  1.
         11    1    1    2    0    0 -0.44518157490E+02 -0.30117859543E+02 -0.94783232891E+02  0.10896243870E+03  0.00000000000E+00 0. -1.
</event>
<event>
 7    1  0.2943257E-009  0.1901258E+03  0.7561462E-02  0.1158348E+00
          1   -1    0    0  501    0  0.00000000000E+00  0.00000000000E+00  0.10768282825E+03  0.10768282825E+03  0.00000000000E+00 0. -1.
         -1   -1    0    0    0  501 -0.00000000000E+00 -0.00000000000E+00 -0.51873141364E+03  0.51873141364E+03  0.00000000000E+00 0.  1.
         25    2    1    2    0    0 -0.16404186310E+03 -0.16017180793E+02 -0.38305264577E+03  0.43536589238E+03  0.12509135816E+03 0.  0.
          5    1    3    3  502    0 -0.53192849730E+02 -0.60550407228E+02 -0.21062662505E+03  0.22555903586E+03  0.41800000000E+01 0.  1.
         -5    1    3    3    0  502 -0.11084901337E+03  0.44533226436E+02 -0.17242602072E+03  0.20980685652E+03  0.41800000000E+01 0.  1.
        -11    1    1    2    0    0  0.80411363494E+02  0.44204117464E+02 -0.43324575554E+02  0.10147418503E+03  0.00000000000E+00 0. -1.
         11    1    1    2    0    0  0.83630499605E+02 -0.28186936672E+02  0.15328635942E+02  0.89574164484E+02  0.00000000000E+00 0.  1.
</event>
<event>
 7    1  0.2943257E-009  0.8496007E+02  0.7561462E-02  0.1315537E+00
         -3   -1    0    0    0  501 -0.00000000000E+00  0.00000000000E+00  0.71925314132E+02  0.71925314132E+02  0.00000000000E+00 0.  1.
          3   -1    0    0  501    0  0.00000000000E+00 -0.00000000000E+00 -0.32300258014E+03  0.32300258014E+03  0.00000000000E+00 0. -1.
         25    2    1    2    0    0 -0.35605922422E+02 -0.26006231288E+02 -0.26089340118E+03  0.29267439253E+03  0.12509527362E+03 0.  0.
          5    1    3    3  502    0  0.13340682301E+02 -0.11911433707E+02  0.72191781097E+01  0.19734360638E+02  0.41800000000E+01 0. -1.
         -5    1    3    3    0  502 -0.48946604723E+02 -0.14094797580E+02 -0.26811257929E+03  0.27294003189E+03  0.41800000000E+01 0. -1.
        -11    1    1    2    0    0 -0.20010966805E+02 -0.19981979299E+02 -0.46257499289E+01  0.28655119116E+02  0.00000000000E+00 0.  1.
         11    1    1    2    0    0  0.55616889226E+02  0.45988210587E+02  0.14441885103E+02  0.73598382628E+02  0.00000000000E+00 0. -1.
</event>
<event>
 7    1  0.2943257E-009  0.1108427E+03  0.7561462E-02  0.1259017E+00
          1   -1    0    0  501    0  0.00000000000E+00  0.00000000000E+00  0.18297202598E+03  0.18297202598E+03  0.00000000000E+00 0. -1.
         -1   -1    0    0    0  501 -0.00000000000E+00 -0.00000000000E+00 -0.11125563357E+03  0.11125563357E+03  0.00000000000E+00 0.  1.
         25    2    1    2    0    0  0.62433926814E+02  0.43307803023E+02 -0.15580349789E+02  0.14718495605E+03  0.12508838062E+03 0.  0.
          5    1    3    3  502    0 -0.35726079878E+02 -0.47023468720E+01 -0.10281678800E+02  0.37704776468E+02  0.41800000000E+01 0.  1.
         -5    1    3    3    0  502  0.98160006692E+02  0.48010149895E+02 -0.52986709889E+01  0.10948017958E+03  0.41800000000E+01 0.  1.
        -11    1    1    2    0    0 -0.12009840206E+02 -0.99748793771E+01 -0.19103626783E+02  0.24671502521E+02  0.00000000000E+00 0.  1.
         11    1    1    2    0    0 -0.50424086609E+02 -0.33332923646E+02  0.10640036899E+03  0.12237120098E+03  0.00000000000E+00 0. -1.
</event>
<event>
 7    1  0.2943257E-009  0.1308919E+03  0.7561462E-02  0.1226138E+00
          1   -1    0    0  501    0  0.00000000000E+00  0.00000000000E+00  0.10060084003E+04  0.10060084003E+04  0.00000000000E+00 0. -1.
         -1   -1    0    0    0  501 -0.00000000000E+00 -0.00000000000E+00 -0.22508724363E+02  0.22508724363E+02  0.00000000000E+00 0.  1.
         25    2    1    2    0    0 -0.81302976785E+02  0.24248305868E+02  0.64270250936E+03  0.66023575181E+03  0.12508628244E+03 0.  0.
          5    1    3    3  502    0 -0.26377159104E+02 -0.37433109562E+02  0.86914870606E+02  0.98329341228E+02  0.41800000000E+01 0.  1.
         -5    1    3    3    0  502 -0.54925817681E+02  0.61681415430E+02  0.55578763876E+03  0.56190641058E+03  0.41800000000E+01 0.  1.
        -11    1    1    2    0    0 -0.18863356257E+02  0.16407041197E+02  0.29068027300E+02  0.38340154163E+02  0.00000000000E+00 0. -1.
         11    1    1    2    0    0  0.10016633304E+03 -0.40655347066E+02  0.31172913930E+03  0.32994121872E+03  0.00000000000E+00 0.  1.
</event>
<event>
 6    1  0.2943257E-009  0.1985360E+03  0.7561462E-02  0.1150980E+00
          2   -1    0    0  501    0  0.00000000000E+00  0.00000000000E+00  0.38899648980E+03  0.38899648980E+03  0.00000000000E+00 0. -1.
         -2   -1    0    0    0  501 -0.00000000000E+00 -0.00000000000E+00 -0.19101007359E+03  0.19101007359E+03  0.00000000000E+00 0.  1.
          5    1    1    2  502    0  0.18800513431E+03  0.50789296838E+02  0.28108645231E+03  0.34198325876E+03  0.41800000000E+01 0.  1.
         -5    1    1    2    0  502 -0.95248672206E+00 -0.98961083281E+01 -0.86044857791E+01  0.13796730284E+02  0.41800000000E+01 0.  1.
        -11    1    1    2    0    0 -0.45046916566E+02 -0.84368334070E+01 -0.63273024562E+02  0.78127335083E+02  0.00000000000E+00 0.  1.
         11    1    1    2    0    0 -0.14200573102E+03 -0.32456355103E+02 -0.11222525757E+02  0.14609923926E+03  0.00000000000E+00 0. -1.
</event>
<event>
 7    1  0.2943257E-009  0.1092288E+03  0.7561462E-02  0.1262005E+00
          2   -1    0    0  501    0  0.00000000000E+00  0.00000000000E+00  0.17863823564E+03  0.17863823564E+03  0.00000000000E+00 0. -1.
         -2   -1    0    0    0  501 -0.00000000000E+00 -0.00000000000E+00 -0.80098969543E+02  0.80098969543E+02  0.00000000000E+00 0.  1.
         25    2    1    2    0    0 -0.41451732592E+02  0.38394470346E+01  0.32218068362E+02  0.13571641628E+03  0.12509178323E+03 0.  0.
          5    1    3    3  502    0 -0.78346000353E+01 -0.57193452427E+02  0.31528606831E+02  0.65909008541E+02  0.41800000000E+01 0.  1.
         -5    1    3    3    0  502 -0.33617132557E+02  0.61032899461E+02  0.68946153095E+00  0.69807407739E+02  0.41800000000E+01 0.  1.
        -11    1    1    2    0    0 -0.24182874899E+00 -0.37308698784E+02 -0.66293953381E+00  0.37315371831E+02  0.00000000000E+00 0.  1.
         11    1    1    2    0    0  0.41693561341E+02  0.33469251749E+02  0.66984137271E+02  0.85705417075E+02  0.00000000000E+00 0. -1.
</event>
<event>
 7    1  0.2943257E-009  0.1250411E+03  0.7561462E-02  0.1235005E+00
          2   -1    0    0  501    0  0.00000000000E+00  0.00000000000E+00  0.13314047996E+04  0.13314047996E+04  0.00000000000E+00 0. -1.
         -2   -1    0    0    0  501 -0.00000000000E+00 -0.00000000000E+00 -0.19869120129E+02  0.19869120129E+02  0.00000000000E+00 0.  1.
         25    2    1    2    0    0 -0.65123712018E+02  0.68974220059E+02  0.10131754699E+04  0.10252660010E+04  0.12508916511E+03 0.  0.
          5    1    3    3  502    0 -0.71760476381E+02  0.27922583540E+02  0.91904084107E+03  0.92227044656E+03  0.41800000000E+01 0.  1.
         -5    1    3    3    0  502  0.66367643632E+01  0.41051636519E+02  0.94134628802E+02  0.10299555448E+03  0.41800000000E+01 0.  1.
        -11    1    1    2    0    0  0.88148058051E+02 -0.59062760487E+02  0.24835070372E+03  0.27006769865E+03  0.00000000000E+00 0.  1.
         11    1    1    2    0    0 -0.23024346033E+02 -0.99114595725E+01  0.50009505920E+02  0.55940220088E+02  0.00000000000E+00 0. -1.
</event>
<event>
 7    1  0.2943257E-009  0.2686619E+03  0.7561462E-02  0.1102048E+00
          2   -1    0    0  501    0  0.00000000000E+00  0.00000000000E+00  0.32090462291E+03  0.32090462291E+03  0.00000000000E+00 0. -1.
         -2   -1    0    0    0  501 -0.00000000000E+00 -0.00000000000E+00 -0.28136268266E+03  0.28136268266E+03  0.00000000000E+00 0.  1.
         25    2    1    2    0    0  0.25951912091E+03 -0.42228695301E+02 -0.76037093347E+02  0.30093378095E+03  0.12508422814E+03 0.  0.
          5    1    3    3  502    0  0.20981708993E+03 -0.17545301287E+02 -0.49433090498E+01  0.21064889634E+03  0.41800000000E+01 0.  1.
         -5    1    3    3    0  502  0.49702030974E+02 -0.24683394014E+02 -0.71093784297E+02  0.90284884608E+02  0.41800000000E+01 0.  1.
        -11    1    1    2    0    0 -0.17253425317E+03 -0.39900959165E+01  0.39942159742E+02  0.17714221831E+03  0.00000000000E+00 0.  1.
         11    1    1    2    0    0 -0.86984867739E+02  0.46218791218E+02  0.75636873853E+02  0.12419130631E+03  0.00000000000E+00 0. -1.
</event>
<event>
 7    1  0.2943257E-009  0.1803470E+03  0.7561462E-02  0.1167468E+00
          1   -1    0    0  501    0  0.00000000000E+00  0.00000000000E+00  0.14533534589E+03  0.14533534589E+03  0.00000000000E+00 0. -1.
         -1   -1    0    0    0  501 -0.00000000000E+00 -0.00000000000E+00 -0.28753432324E+03  0.28753432324E+03  0.00000000000E+00 0.  1.
         25    2    1    2    0    0  0.50014263213E+02 -0.16381210112E+03 -0.83544237582E+02  0.22795372444E+03  0.12508968724E+03 0.  0.
          5    1    3    3  502    0  0.25617897945E+01  0.89241966448E+01  0.18960472202E+02  0.21521523153E+02  0.41800000000E+01 0.  1.
         -5    1    3    3    0  502  0.47452473419E+02 -0.17273629777E+03 -0.10250470978E+03  0.20643220129E+03  0.41800000000E+01 0.  1.
        -11    1    1    2    0    0 -0.16470966254E+02  0.47471456035E+02  0.26579392833E+02  0.56844489538E+02  0.00000000000E+00 0. -1.
         11    1    1    2    0    0 -0.33543296959E+02  0.11634064509E+03 -0.85234132601E+02  0.14807145515E+03  0.00000000000E+00 0.  1.
</event>
<event>
 7    1  0.2943257E-009  0.1493879E+03  0.7561462E-02  0.1201227E+00
          3   -1    0    0  501    0  0.00000000000E+00  0.00000000000E+00  0.33343067452E+03  0.33343067452E+03  0.00000000000E+00 0. -1.
         -3   -1    0    0    0  501 -0.00000000000E+00 -0.00000000000E+00 -0.96713152298E+02  0.96713152298E+02  0.00000000000E+00 0.  1.
         25    2    1    2    0    0 -0.44206773916E+02  0.10000073814E+03  0.15597415305E+02  0.16686876385E+03  0.12509004155E+03 0.  0.
          5    1    3    3  502    0  0.37478534085E+02  0.40262224628E+02  0.32731898375E+02  0.64144655431E+02  0.41800000000E+01 0. -1.
         -5    1    3    3    0  502 -0.81685308001E+02  0.59738513512E+02 -0.17134483071E+02  0.10272410842E+03  0.41800000000E+01 0. -1.
        -11    1    1    2    0    0  0.23344380431E+02 -0.11454150484E+03  0.17200925771E+03  0.20797091423E+03  0.00000000000E+00 0. -1.
         11    1    1    2    0    0  0.20862393485E+02  0.14540766695E+02  0.49110849206E+02  0.55304148739E+02  0.00000000000E+00 0.  1.
</event>
<event>
 7    1  0.2943257E-009  0.1174244E+03  0.7561462E-02  0.1247407E+00
         -1   -1    0    0    0  501 -0.00000000000E+00  0.00000000000E+00  0.14068369530E+02  0.14068369530E+02  0.00000000000E+00 0.  1.
          1   -1    0    0  501    0  0.00000000000E+00 -0.00000000000E+00 -0.10340094155E+04  0.10340094155E+04  0.00000000000E+00 0. -1.
         25    2    1    2    0    0  0.26966785778E+01  0.46969495517E+02 -0.67693706767E+03  0.69000393799E+03  0.12509290657E+03 0.  0.
          5    1    3    3  502    0 -0.44532592514E+02 -0.21648864931E+02 -0.28367845986E+03  0.28799785787E+03  0.41800000000E+01 0.  1.
         -5    1    3    3    0  502  0.47229271092E+02  0.68618360448E+02 -0.39325860781E+03  0.40200608012E+03  0.41800000000E+01 0.  1.
        -11    1    1    2    0    0 -0.19929507881E+02  0.22568992390E+02 -0.12609586294E+03  0.12964070098E+03  0.00000000000E+00 0. -1.
         11    1    1    2    0    0  0.17232829303E+02 -0.69538487907E+02 -0.21690811539E+03  0.22843314608E+03  0.00000000000E+00 0.  1.
</event>
<event>
 7    1  0.2943257E-009  0.1800627E+03  0.7561462E-02  0.1167742E+00
          3   -1    0    0  501    0  0.00000000000E+00  0.00000000000E+00  0.81984340659E+02  0.81984340659E+02  0.00000000000E+00 0. -1.
         -3   -1    0    0    0  501 -0.00000000000E+00 -0.00000000000E+00 -0.46298152076E+03  0.46298152076E+03  0.00000000000E+00 0.  1.
         25    2    1    2    0    0 -0.79388131005E+02 -0.13933315085E+03 -0.22527830800E+03  0.30350378026E+03  0.12509207132E+03 0.  0.
          5    1    3    3  502    0 -0.78195294050E+02 -0.15298335570E+03 -0.15388367419E+03  0.23068608262E+03  0.41800000000E+01 0. -1.
         -5    1    3    3    0  502 -0.11928369554E+01  0.13650204853E+02 -0.71394633812E+02  0.72817697640E+02  0.41800000000E+01 0. -1.
        -11    1    1    2    0    0  0.31178312329E+02  0.11649295625E+03 -0.14216003181E+03  0.18641934090E+03  0.00000000000E+00 0.  1.
         11    1    1    2    0    0  0.48209818676E+02  0.22840194592E+02 -0.13558840293E+02  0.55042740265E+02  0.00000000000E+00 0. -1.
</event>
<event>
 7    1  0.2943257E-009  0.1087406E+03  0.7561462E-02  0.1262920E+00
          1   -1    0    0  501    0  0.00000000000E+00  0.00000000000E+00  0.10890899077E+03  0.10890899077E+03  0.00000000000E+00 0. -1.
         -1   -1    0    0    0  501 -0.00000000000E+00 -0.00000000000E+00 -0.14429483841E+03  0.14429483841E+03  0.00000000000E+00 0.  1.
         25    2    1    2    0    0  0.41201950775E+02 -0.60740444080E+00  0.28534619520E+02  0.13476874410E+03  0.12510163942E+03 0.  0.
          5    1    3    3  502    0  0.66782566291E+02 -0.34376041468E+02 -0.11774585175E+02  0.76142869945E+02  0.41800000000E+01 0. -1.
         -5    1    3    3    0  502 -0.25580615516E+02  0.33768637027E+02  0.40309204695E+02  0.58625874151E+02  0.41800000000E+01 0. -1.
        -11    1    1    2    0    0 -0.17574299629E+02  0.45597844730E+02 -0.32522272185E+02  0.58700235430E+02  0.00000000000E+00 0.  1.
         11    1    1    2    0    0 -0.23627651146E+02 -0.44990440289E+02 -0.31398194977E+02  0.59734849660E+02  0.00000000000E+00 0. -1.
</event>
<event>
 6    1  0.2943257E-009  0.1551603E+03  0.7561462E-02  0.1194272E+00
          4   -1    0    0  501    0  0.00000000000E+00  0.00000000000E+00  0.19180941521E+03  0.19180941521E+03  0.00000000000E+00 0.  1.
         -4   -1    0    0    0  501 -0.00000000000E+00 -0.00000000000E+00 -0.19012183802E+03  0.19012183802E+03  0.00000000000E+00 0. -1.
          5    1    1    2  502    0 -0.86062244116E+02 -0.64480017657E+02  0.83332300431E+02  0.13611071682E+03  0.41800000000E+01 0. -1.
         -5    1    1    2    0  502 -0.40410615814E+02 -0.21754863467E+02 -0.45876824404E+02  0.65026512841E+02  0.41800000000E+01 0. -1.
        -11    1    1    2    0    0  0.49573722531E+02  0.14997839550E+02  0.27210484774E+02  0.58505552202E+02  0.00000000000E+00 0.  1.
         11    1    1    2    0    0  0.76899137399E+02  0.71237041573E+02 -0.62978383616E+02  0.12228847136E+03  0.00000000000E+00 0. -1.
</event>
<event>
 7    1  0.2943257E-009  0.2409510E+03  0.7561462E-02  0.1119161E+00
          2   -1    0    0  501    0  0.00000000000E+00  0.00000000000E+00  0.68694876293E+03  0.68694876293E+03  0.00000000000E+00 0. -1.
         -2   -1    0    0    0  501 -0.00000000000E+00 -0.00000000000E+00 -0.10850061016E+03  0.10850061016E+03  0.00000000000E+00 0.  1.
         25    2    1    2    0    0 -0.11255920238E+03 -0.20650202919E+03  0.42170010271E+03  0.49878946066E+03  0.12508911761E+03 0.  0.
          5    1    3    3  502    0 -0.63603061291E+02 -0.17612802510E+03  0.21977537769E+03  0.28876481723E+03  0.41800000000E+01 0. -1.
         -5    1    3    3    0  502 -0.48956141090E+02 -0.30374004086E+02  0.20192472502E+03  0.21002464344E+03  0.41800000000E+01 0. -1.
        -11    1    1    2    0    0  0.28622185841E+02  0.80440666087E+02  0.10775938931E+03  0.13748460375E+03  0.00000000000E+00 0. -1.
         11    1    1    2    0    0  0.83937016540E+02  0.12606136310E+03  0.48988660755E+02  0.15917530868E+03  0.00000000000E+00 0.  1.
</event>
<event>
 7    1  0.2943257E-009  0.1176463E+03  0.7561462E-02  0.1247031E+00
         -1   -1    0    0    0  501 -0.00000000000E+00  0.00000000000E+00  0.45151319594E+02  0.45151319594E+02  0.00000000000E+00 0.  1.
          1   -1    0    0  501    0  0.00000000000E+00 -0.00000000000E+00 -0.43804192443E+03  0.43804192443E+03  0.00000000000E+00 0. -1.
         25    2    1    2    0    0 -0.18407198340E+02 -0.81762776511E+02 -0.26854274788E+03  0.30787193110E+03  0.12508373973E+03 0.  0.
          5    1    3    3  502    0  0.50311232446E+02 -0.35578818090E+02 -0.73904742778E+02  0.96314359324E+02  0.41800000000E+01 0.  1.
         -5    1    3    3    0  502 -0.68718430786E+02 -0.46183958422E+02 -0.19463800510E+03  0.21155757178E+03  0.41800000000E+01 0.  1.
        -11    1    1    2    0    0  0.16556685427E+02  0.11079891078E+02  0.10897712991E+02  0.22707883368E+02  0.00000000000E+00 0.  1.
         11    1    1    2    0    0  0.18505129130E+01  0.70682885433E+02 -0.13524556995E+03  0.15261342956E+03  0.00000000000E+00 0. -1.
</event>
<event>
 7    1  0.2943257E-009  0.8803044E+02  0.7561462E-02  0.1307693E+00
         -2   -1    0    0    0  501 -0.00000000000E+00  0.00000000000E+00  0.19597397562E+02  0.19597397562E+02  0.00000000000E+00 0. -1.
          2   -1    0    0  501    0  0.00000000000E+00 -0.00000000000E+00 -0.90083791341E+03  0.90083791341E+03  0.00000000000E+00 0.  1.
         25    2    1    2    0    0 -0.26986948289E+02  0.61710465869E+02 -0.61039645628E+03  0.62671214237E+03  0.12509116111E+03 0.  0.
          5    1    3    3  502    0 -0.38983886035E+02  0.25345181130E+02 -0.65388405233E+02  0.80344492754E+02  0.41800000000E+01 0.  1.
         -5    1    3    3    0  502  0.11996937747E+02  0.36365284739E+02 -0.54500805104E+03  0.54636764962E+03  0.41800000000E+01 0.  1.
        -11    1    1    2    0    0  0.29038393379E+02 -0.73426472888E+02 -0.27053768481E+03  0.28182497071E+03  0.00000000000E+00 0.  1.
         11    1    1    2    0    0 -0.20514450898E+01  0.11716007019E+02 -0.30637475500E+00  0.11898197885E+02  0.00000000000E+00 0. -1.
</event>
<event>
 7    1  0.2943257E-009  0.1113840E+03  0.7561462E-02  0.1258028E+00
         -1   -1    0    0    0  501 -0.00000000000E+00  0.00000000000E+00  0.40251912960E+02  0.40251912960E+02  0.00000000000E+00 0.  1.
          1   -1    0    0  501    0  0.00000000000E+00 -0.00000000000E+00 -0.77060510282E+03  0.77060510282E+03  0.00000000000E+00 0. -1.
         25    2    1    2    0    0 -0.26072493299E+02 -0.17416999858E+02 -0.69757374361E+03  0.70939367883E+03  0.12508851667E+03 0.  0.
          5    1    3    3  502    0  0.14909733919E+02  0.48357968381E+02 -0.24390876420E+03  0.24913801582E+03  0.41800000000E+01 0.  1.
         -5    1    3    3    0  502 -0.40982227218E+02 -0.65774968239E+02 -0.45366497941E+03  0.46025566302E+03  0.41800000000E+01 0.  1.
        -11    1    1    2    0    0  0.59244044271E+02  0.15046015164E+02 -0.30003572720E+02  0.68091509969E+02  0.00000000000E+00 0. -1.
         11    1    1    2    0    0 -0.33171550971E+02  0.23709846943E+01 -0.27758735338E+01  0.33371826982E+02  0.00000000000E+00 0.  1.
</event>
<event>
 7    1  0.2943257E-009  0.1426816E+03  0.7561462E-02  0.1209766E+00
         -1   -1    0    0    0  501 -0.00000000000E+00  0.00000000000E+00  0.83700176300E+02  0.83700176300E+02  0.00000000000E+00 0.  1.
          1   -1    0    0  501    0  0.00000000000E+00 -0.00000000000E+00 -0.30918643282E+03  0.30918643282E+03  0.00000000000E+00 0. -1.
         25    2    1    2    0    0 -0.55215975893E+02 -0.10137074436E+03 -0.16195936420E+03  0.23495348877E+03  0.12508986542E+03 0.  0.
          5    1    3    3  502    0  0.10803199884E+02  0.14531641078E+02 -0.71147049471E+02  0.73534024564E+02  0.41800000000E+01 0.  1.
         -5    1    3    3    0  502 -0.66019175777E+02 -0.11590238544E+03 -0.90812314727E+02  0.16141946421E+03  0.41800000000E+01 0.  1.
        -11    1    1    2    0    0 -0.31740321303E+01  0.63834582553E+02 -0.61185377851E+02  0.88479256735E+02  0.00000000000E+00 0. -1.
         11    1    1    2    0    0  0.58390008023E+02  0.37536161804E+02 -0.23415144688E+01  0.69453863607E+02  0.00000000000E+00 0.  1.
</event>
<event>
 7    1  0.2943257E-009  0.1246279E+03  0.7561462E-02  0.1235652E+00
          1   -1    0    0  501    0  0.00000000000E+00  0.00000000000E+00  0.19323185225E+03  0.19323185225E+03  0.00000000000E+00 0. -1.
         -1   -1    0    0    0  501 -0.00000000000E+00 -0.00000000000E+00 -0.11842145568E+03  0.11842145568E+03  0.00000000000E+00 0.  1.
         25    2    1    2    0    0 -0.47018331726E+02 -0.79781782489E+02  0.91466566150E+02  0.18053528790E+03  0.12510396124E+03 0.  0.
          5    1    3    3  502    0  0.29105770611E+02 -0.68635161772E+02  0.24892877809E+02  0.78708697612E+02  0.41800000000E+01 0.  1.
         -5    1    3    3    0  502 -0.76124102337E+02 -0.11146620717E+02  0.66573688341E+02  0.10182659029E+03  0.41800000000E+01 0.  1.
        -11    1    1    2    0    0  0.45294240875E+00  0.27586320928E+02 -0.47294930654E+02  0.54754184541E+02  0.00000000000E+00 0.  1.
         11    1    1    2    0    0  0.46565389317E+02  0.52195461561E+02  0.30638761080E+02  0.76363835487E+02  0.00000000000E+00 0. -1.
</event>
<event>
 7    1  0.2943257E-009  0.1467365E+03  0.7561462E-02  0.1204542E+00
          2   -1    0    0  501    0  0.00000000000E+00  0.00000000000E+00  0.25267576513E+03  0.25267576513E+03  0.00000000000E+00 0. -1.
         -2   -1    0    0    0  501 -0.00000000000E+00 -0.00000000000E+00 -0.10662251711E+03  0.10662251711E+03  0.00000000000E+00 0.  1.
         25    2    1    2    0    0 -0.96652027142E+02  0.24687792257E+02  0.64897279611E+00  0.15999560327E+03  0.12508825069E+03 0.  0.
          5    1    3    3  502    0 -0.10211485379E+03 -0.27296804670E+02 -0.10767430597E+02  0.10632952963E+03  0.41800000000E+01 0. -1.
         -5    1    3    3    0  502  0.54628266506E+01  0.51984596927E+02  0.11416403393E+02  0.53666073632E+02  0.41800000000E+01 0. -1.
        -11    1    1    2    0    0  0.30820344422E+02  0.34827263087E+02  0.38591679689E+02  0.60433017678E+02  0.00000000000E+00 0.  1.
         11    1    1    2    0    0  0.65831682720E+02 -0.59515055343E+02  0.10681259554E+03  0.13886966130E+03  0.00000000000E+00 0. -1.
</event>
<event>
 7    1  0.2943257E-009  0.1154018E+03  0.7561462E-02  0.1250881E+00
          2   -1    0    0  501    0  0.00000000000E+00  0.00000000000E+00  0.40341528443E+03  0.40341528443E+03  0.00000000000E+00 0. -1.
         -2   -1    0    0    0  501 -0.00000000000E+00 -0.00000000000E+00 -0.69579189000E+02  0.69579189000E+02  0.00000000000E+00 0.  1.
         25    2    1    2    0    0 -0.45217077536E+01 -0.98808422287E+02  0.62833671053E+02  0.17141783554E+03  0.12510976767E+03 0.  0.
          5    1    3    3  502    0 -0.16260831040E+02 -0.57420419826E+02 -0.31530758422E+02  0.67625293831E+02  0.41800000000E+01 0. -1.
         -5    1    3    3    0  502  0.11739123287E+02 -0.41388002462E+02  0.94364429475E+02  0.10379254170E+03  0.41800000000E+01 0. -1.
        -11    1    1    2    0    0  0.39210467880E+02  0.25833480080E+02  0.64113712579E+02  0.79469476059E+02  0.00000000000E+00 0.  1.
         11    1    1    2    0    0 -0.34688760126E+02  0.72974942208E+02  0.20688871180E+03  0.22210716183E+03  0.00000000000E+00 0. -1.
</event>
<event>
 7    1  0.2943257E-009  0.9896551E+02  0.7561462E-02  0.1282486E+00
         -1   -1    0    0    0  501 -0.00000000000E+00  0.00000000000E+00  0.46682529360E+03  0.46682529360E+03  0.00000000000E+00 0.  1.
          1   -1    0    0  501    0  0.00000000000E+00 -0.00000000000E+00 -0.27941207565E+02  0.27941207565E+02  0.00000000000E+00 0. -1.
         25    2    1    2    0    0 -0.16985915849E+02  0.18952026816E+02  0.19676479484E+03  0.23454381354E+03  0.12508683114E+03 0.  0.
          5    1    3    3  502    0  0.16943560965E+02 -0.41883377957E+02  0.13107614838E+03  0.13870735626E+03  0.41800000000E+01 0.  1.
         -5    1    3    3    0  502 -0.33929476815E+02  0.60835404772E+02  0.65688646462E+02  0.95836457284E+02  0.41800000000E+01 0.  1.
        -11    1    1    2    0    0  0.46906471681E+02  0.81593521619E+00  0.69063940439E+02  0.83490782154E+02  0.00000000000E+00 0. -1.
         11    1    1    2    0    0 -0.29920555831E+02 -0.19767962032E+02  0.17305535076E+03  0.17673190547E+03  0.00000000000E+00 0.  1.
</event>
<event>
 7    1  0.2943257E-009  0.1100383E+03  0.7561462E-02  0.1260499E+00
         -1   -1    0    0    0  501 -0.00000000000E+00  0.00000000000E+00  0.29842175528E+03  0.29842175528E+03  0.00000000000E+00 0.  1.
          1   -1    0    0  501    0  0.00000000000E+00 -0.00000000000E+00 -0.60408281464E+02  0.60408281464E+02  0.00000000000E+00 0. -1.
         25    2    1    2    0    0  0.65759328306E+02 -0.80284243859E+01  0.79015046608E+02  0.16210317095E+03  0.12508123593E+03 0.  0.
          5    1    3    3  502    0 -0.36246871256E+02  0.93674233016E+01  0.25885616712E+02  0.45706912472E+02  0.41800000000E+01 0. -1.
         -5    1    3    3    0  502  0.10200619956E+03 -0.17395847688E+02  0.53129429896E+02  0.11639625847E+03  0.41800000000E+01 0. -1.
        -11    1    1    2    0    0 -0.25598304814E+02  0.24501924609E+02  0.14767379271E+03  0.15186562012E+03  0.00000000000E+00 0.  1.
         11    1    1    2    0    0 -0.40161023492E+02 -0.16473500223E+02  0.11324634492E+02  0.44861245679E+02  0.00000000000E+00 0. -1.
</event>
<event>
 7    1  0.2943257E-009  0.8494008E+02  0.7561462E-02  0.1315589E+00
         -2   -1    0    0    0  501 -0.00000000000E+00  0.00000000000E+00  0.12191537526E+02  0.12191537526E+02  0.00000000000E+00 0.  1.
          2   -1    0    0  501    0  0.00000000000E+00 -0.00000000000E+00 -0.13518585007E+04  0.13518585007E+04  0.00000000000E+00 0. -1.
         25    2    1    2    0    0 -0.13876245275E+02  0.56021894118E+02 -0.10078698203E+04  0.10172414344E+04  0.12509020062E+03 0.  0.
          5    1    3    3  502    0  0.28457940991E+02  0.14414770148E+02 -0.65304088685E+02  0.72799288478E+02  0.41800000000E+01 0.  1.
         -5    1    3    3    0  502 -0.42334186266E+02  0.41607123970E+02 -0.94256573163E+03  0.94444214589E+03  0.41800000000E+01 0.  1.
        -11    1    1    2    0    0 -0.96669059078E+01 -0.53679418037E+02 -0.30959630782E+03  0.31436412455E+03  0.00000000000E+00 0.  1.
         11    1    1    2    0    0  0.23543151182E+02 -0.23424760808E+01 -0.22200835083E+02  0.32444479348E+02  0.00000000000E+00 0. -1.
</event>
<event>
 7    1  0.2943257E-009  0.1434240E+03  0.7561462E-02  0.1208795E+00
          1   -1    0    0  501    0  0.00000000000E+00  0.00000000000E+00  0.18934017698E+03  0.18934017698E+03  0.00000000000E+00 0. -1.
         -1   -1    0    0    0  501 -0.00000000000E+00 -0.00000000000E+00 -0.11774866860E+03  0.11774866860E+03  0.00000000000E+00 0.  1.
         25    2    1    2    0    0 -0.45569080195E+02 -0.91239212900E+02  0.36218674162E+02  0.16539718321E+03  0.12507318184E+03 0.  0.
          5    1    3    3  502    0 -0.78782893694E+02 -0.89239293928E+02  0.44387321573E+01  0.11919551444E+03  0.41800000000E+01 0.  1.
         -5    1    3    3    0  502  0.33213813499E+02 -0.19999189720E+01  0.31779942005E+02  0.46201668767E+02  0.41800000000E+01 0.  1.
        -11    1    1    2    0    0 -0.22411296439E+02  0.27006510590E+01  0.17677772841E+02  0.28671647613E+02  0.00000000000E+00 0. -1.
         11    1    1    2    0    0  0.67980376633E+02  0.88538561841E+02  0.17695061377E+02  0.11302001476E+03  0.00000000000E+00 0.  1.
</event>
<event>
 7    1  0.2943257E-009  0.9947580E+02  0.7561462E-02  0.1281402E+00
          1   -1    0    0  501    0  0.00000000000E+00  0.00000000000E+00  0.47734398919E+03  0.47734398919E+03  0.00000000000E+00 0. -1.
         -1   -1    0    0    0  501 -0.00000000000E+00 -0.00000000000E+00 -0.37980962257E+02  0.37980962257E+02  0.00000000000E+00 0.  1.
         25    2    1    2    0    0  0.20784816550E+02  0.62503167416E+02  0.32865047321E+03  0.35776940164E+03  0.12509658937E+03 0.  0.
          5    1    3    3  502    0 -0.14480502855E+02  0.44634787065E+02  0.28633052465E+02  0.55129604322E+02  0.41800000000E+01 0. -1.
         -5    1    3    3    0  502  0.35265319405E+02  0.17868380351E+02  0.30001742075E+03  0.30263979732E+03  0.41800000000E+01 0. -1.
        -11    1    1    2    0    0 -0.18005882082E+01  0.23725110903E+02  0.22504913735E+02  0.32750483164E+02  0.00000000000E+00 0.  1.
         11    1    1    2    0    0 -0.18984228341E+02 -0.86228278319E+02  0.88207639982E+02  0.12480506664E+03  0.00000000000E+00 0. -1.
</event>
<event>
 7    1  0.2943257E-009  0.1646881E+03  0.7561462E-02  0.1183503E+00
          1   -1    0    0  501    0  0.00000000000E+00  0.00000000000E+00  0.15752461150E+04  0.15752461150E+04  0.00000000000E+00 0. -1.
         -1   -1    0    0    0  501 -0.00000000000E+00 -0.00000000000E+00 -0.22471875170E+02  0.22471875170E+02  0.00000000000E+00 0.  1.
         25    2    1    2    0    0 -0.15355718920E+03  0.88707895948E+01  0.71594643753E+03  0.74289022171E+03  0.12509228128E+03 0.  0.
          5    1    3    3  502    0 -0.48288779552E+02  0.10161632165E+02  0.50170784757E+03  0.50414611147E+03  0.41800000000E+01 0. -1.
         -5    1    3    3    0  502 -0.10526840965E+03 -0.12908425704E+01  0.21423858996E+03  0.23874411024E+03  0.41800000000E+01 0. -1.
        -11    1    1    2    0    0  0.16231899407E+03 -0.41821527655E+00  0.78001284292E+03  0.79672307978E+03  0.00000000000E+00 0.  1.
         11    1    1    2    0    0 -0.87618048620E+01 -0.84525743183E+01  0.56814959399E+02  0.58104688697E+02  0.00000000000E+00 0. -1.
</event>
<event>
 7    1  0.2943257E-009  0.1075739E+03  0.7561462E-02  0.1265130E+00
          2   -1    0    0  501    0  0.00000000000E+00  0.00000000000E+00  0.97940422307E+03  0.97940422307E+03  0.00000000000E+00 0. -1.
         -2   -1    0    0    0  501 -0.00000000000E+00 -0.00000000000E+00 -0.15887244760E+02  0.15887244760E+02  0.00000000000E+00 0.  1.
         25    2    1    2    0    0  0.33077552942E+02  0.52443905522E+02  0.54282348276E+03  0.56049080833E+03  0.12509246602E+03 0.  0.
          5    1    3    3  502    0 -0.28872579545E+02  0.28218782388E+02  0.40879695700E+03  0.41080694978E+03  0.41800000000E+01 0. -1.
         -5    1    3    3    0  502  0.61950132487E+02  0.24225123134E+02  0.13402652575E+03  0.14968385855E+03  0.41800000000E+01 0. -1.
        -11    1    1    2    0    0  0.98392375314E+01 -0.62959713086E+02  0.20699494147E+03  0.21658172097E+03  0.00000000000E+00 0. -1.
         11    1    1    2    0    0 -0.42916790473E+02  0.10515807564E+02  0.21369855409E+03  0.21821893853E+03  0.00000000000E+00 0.  1.
</event>
<event>
 7    1  0.2943257E-009  0.1100105E+03  0.7561462E-02  0.1260550E+00
          2   -1    0    0  501    0  0.00000000000E+00  0.00000000000E+00  0.37695143086E+03  0.37695143086E+03  0.00000000000E+00 0. -1.
         -2   -1    0    0    0  501 -0.00000000000E+00 -0.00000000000E+00 -0.34653714632E+02  0.34653714632E+02  0.00000000000E+00 0.  1.
         25    2    1    2    0    0  0.12339157660E+02 -0.22796877577E+02  0.24552401636E+03  0.27676715647E+03  0.12508422702E+03 0.  0.
          5    1    3    3  502    0  0.67770573579E+02 -0.71115823538E+00  0.13317697016E+03  0.14948890986E+03  0.41800000000E+01 0.  1.
         -5    1    3    3    0  502 -0.55431415918E+02 -0.22085719341E+02  0.11234704620E+03  0.12727824661E+03  0.41800000000E+01 0.  1.
        -11    1    1    2    0    0 -0.44488566307E+02  0.36313356684E+02  0.71811333271E+02  0.91949768852E+02  0.00000000000E+00 0. -1.
         11    1    1    2    0    0  0.32149408647E+02 -0.13516479107E+02  0.24962366601E+02  0.42888220179E+02  0.00000000000E+00 0.  1.
</event>
<event>
 7    1  0.2943257E-009  0.8020192E+02  0.7561462E-02  0.1328479E+00
          1   -1    0    0  501    0  0.00000000000E+00  0.00000000000E+00  0.43321970484E+03  0.43321970484E+03  0.00000000000E+00 0. -1.
         -1   -1    0    0    0  501 -0.00000000000E+00 -0.00000000000E+00 -0.33571558282E+02  0.33571558282E+02  0.00000000000E+00 0.  1.
         25    2    1    2    0    0  0.79014713090E+01 -0.16552333317E+01  0.32789094564E+03  0.35103426007E+03  0.12508959375E+03 0.  0.
          5    1    3    3  502    0  0.85455563577E+01  0.57610853605E+02  0.22264558399E+03  0.23017507566E+03  0.41800000000E+01 0.  1.
         -5    1    3    3    0  502 -0.64408504869E+00 -0.59266086937E+02  0.10524536165E+03  0.12085918441E+03  0.41800000000E+01 0.  1.
        -11    1    1    2    0    0 -0.14587151033E+02 -0.17222202618E+02 -0.14749975198E+02  0.26962028978E+02  0.00000000000E+00 0.  1.
         11    1    1    2    0    0  0.66856797244E+01  0.18877435950E+02  0.86507176110E+02  0.88794974069E+02  0.00000000000E+00 0. -1.
</event>
<event>
 7    1  0.2943257E-009  0.1084121E+03  0.7561462E-02  0.1263539E+00
          1   -1    0    0  501    0  0.00000000000E+00  0.00000000000E+00  0.56573806798E+03  0.56573806798E+03  0.00000000000E+00 0. -1.
         -1   -1    0    0    0  501 -0.00000000000E+00 -0.00000000000E+00 -0.24454298997E+02  0.24454298997E+02  0.00000000000E+00 0.  1.
         25    2    1    2    0    0  0.20230669984E+02  0.29580244982E+02  0.39872322143E+03  0.41941879745E+03  0.12509056499E+03 0.  0.
          5    1    3    3  502    0 -0.46816397505E+02 -0.82997638954E+01  0.21371490294E+03  0.21897989244E+03  0.41800000000E+01 0.  1.
         -5    1    3    3    0  502  0.67047067489E+02  0.37880008877E+02  0.18500831849E+03  0.20043890501E+03  0.41800000000E+01 0.  1.
        -11    1    1    2    0    0  0.19763948150E+02 -0.44968747890E+02  0.93615923769E+02  0.10572011690E+03  0.00000000000E+00 0. -1.
         11    1    1    2    0    0 -0.39994618134E+02  0.15388502908E+02  0.48944623790E+02  0.65053452632E+02  0.00000000000E+00 0.  1.
</event>
<event>
 7    1  0.2943257E-009  0.2600835E+03  0.7561462E-02  0.1107093E+00
          2   -1    0    0  501    0  0.00000000000E+00  0.00000000000E+00  0.47146644741E+03  0.47146644741E+03  0.00000000000E+00 0.  1.
         -2   -1    0    0    0  501 -0.00000000000E+00 -0.00000000000E+00 -0.14652386771E+03  0.14652386771E+03  0.00000000000E+00 0. -1.
         25    2    1    2    0    0 -0.23192163818E+03 -0.51834182654E+02  0.16987150925E+03  0.31777044843E+03  0.12508916616E+03 0.  0.
          5    1    3    3  502    0 -0.17418499412E+03  0.20237316578E+02  0.10014328892E+03  0.20198047400E+03  0.41800000000E+01 0.  1.
         -5    1    3    3    0  502 -0.57736644057E+02 -0.72071499231E+02  0.69728220332E+02  0.11578997443E+03  0.41800000000E+01 0.  1.
        -11    1    1    2    0    0  0.72256858086E+02  0.57819632623E+02  0.85355397861E+02  0.12589562106E+03  0.00000000000E+00 0.  1.
         11    1    1    2    0    0  0.15966478009E+03 -0.59854499698E+01  0.69715672585E+02  0.17432424564E+03  0.00000000000E+00 0. -1.
</event>
<event>
 7    1  0.2943257E-009  0.1163969E+03  0.7561462E-02  0.1249162E+00
          1   -1    0    0  501    0  0.00000000000E+00  0.00000000000E+00  0.29074157243E+03  0.29074157243E+03  0.00000000000E+00 0. -1.
         -1   -1    0    0    0  501 -0.00000000000E+00 -0.00000000000E+00 -0.68180175964E+02  0.68180175964E+02  0.00000000000E+00 0.  1.
         25    2    1    2    0    0 -0.76374303280E+02 -0.37231071459E+02  0.16109440137E+03  0.22094822274E+03  0.12509006393E+03 0.  0.
          5    1    3    3  502    0 -0.21406843889E+02 -0.65484550300E+02  0.28645403482E+02  0.74729584730E+02  0.41800000000E+01 0. -1.
         -5    1    3    3    0  502 -0.54967459391E+02  0.28253478841E+02  0.13244899789E+03  0.14621863801E+03  0.41800000000E+01 0. -1.
        -11    1    1    2    0    0  0.43818435187E+02 -0.95367088105E+01  0.67107140216E+02  0.80711661767E+02  0.00000000000E+00 0. -1.
         11    1    1    2    0    0  0.32555868093E+02  0.46767780270E+02 -0.56401451269E+01  0.57261863886E+02  0.00000000000E+00 0.  1.
</event>
<event>
 7    1  0.2943257E-009  0.9885256E+02  0.7561462E-02  0.1282728E+00
          2   -1    0    0  501    0  0.00000000000E+00  0.00000000000E+00  0.29439558004E+03  0.29439558004E+03  0.00000000000E+00 0. -1.
         -2   -1    0    0    0  501 -0.00000000000E+00 -0.00000000000E+00 -0.49256350168E+02  0.49256350168E+02  0.00000000000E+00 0.  1.
         25    2    1    2    0    0  0.54450486755E+02  0.29077953010E+02  0.14156487604E+03  0.19874684681E+03  0.12509721072E+03 0.  0.
          5    1    3    3  502    0 -0.11123957923E+02 -0.13652527126E+02 -0.15098399343E+02  0.23570490015E+02  0.41800000000E+01 0. -1.
         -5    1    3    3    0  502  0.65574444678E+02  0.42730480136E+02  0.15666327538E+03  0.17517635680E+03  0.41800000000E+01 0. -1.
        -11    1    1    2    0    0 -0.63763169939E+01 -0.48835285903E+02  0.53840044031E+02  0.72967752527E+02  0.00000000000E+00 0. -1.
         11    1    1    2    0    0 -0.48074169761E+02  0.19757332893E+02  0.49734309803E+02  0.71937330871E+02  0.00000000000E+00 0.  1.
</event>
<event>
 7    1  0.2943257E-009  0.1613901E+03  0.7561462E-02  0.1187136E+00
         -2   -1    0    0    0  501 -0.00000000000E+00  0.00000000000E+00  0.26997185922E+02  0.26997185922E+02  0.00000000000E+00 0.  1.
          2   -1    0    0  501    0  0.00000000000E+00 -0.00000000000E+00 -0.11491317008E+04  0.11491317008E+04  0.00000000000E+00 0. -1.
         25    2    1    2    0    0 -0.79804550464E+02  0.11123018590E+03 -0.51441062492E+03  0.54681503377E+03  0.12508984609E+03 0.  0.
          5    1    3    3  502    0  0.16992209488E+02 -0.17004598374E+02 -0.79339330000E+02  0.83006585486E+02  0.41800000000E+01 0.  1.
         -5    1    3    3    0  502 -0.96796759952E+02  0.12823478428E+03 -0.43507129492E+03  0.46380844828E+03  0.41800000000E+01 0.  1.
        -11    1    1    2    0    0  0.56504240366E+02 -0.66822778461E+02 -0.52746895702E+03  0.53467888823E+03  0.00000000000E+00 0. -1.
         11    1    1    2    0    0  0.23300310098E+02 -0.44407407442E+02 -0.80254932914E+02  0.94634964698E+02  0.00000000000E+00 0.  1.
</event>
<event>
 7    1  0.2943257E-009  0.5719082E+02  0.7561462E-02  0.1410014E+00
         -2   -1    0    0    0  501 -0.00000000000E+00  0.00000000000E+00  0.22835876273E+03  0.22835876273E+03  0.00000000000E+00 0.  1.
          2   -1    0    0  501    0  0.00000000000E+00 -0.00000000000E+00 -0.54617479646E+02  0.54617479646E+02  0.00000000000E+00 0. -1.
         25    2    1    2    0    0 -0.19496169648E+02  0.17426904693E+02  0.98512381080E+02  0.16135504970E+03  0.12508782994E+03 0.  0.
          5    1    3    3  502    0 -0.77290915504E+01  0.10417029771E+02  0.12792110281E+03  0.12864499334E+03  0.41800000000E+01 0. -1.
         -5    1    3    3    0  502 -0.11767078098E+02  0.70098749214E+01 -0.29408721734E+02  0.32710056365E+02  0.41800000000E+01 0. -1.
        -11    1    1    2    0    0 -0.25436400011E+01  0.32112028306E+02  0.45375312349E+01  0.32530626433E+02  0.00000000000E+00 0. -1.
         11    1    1    2    0    0  0.22039809649E+02 -0.49538932999E+02  0.70691370764E+02  0.89090566238E+02  0.00000000000E+00 0.  1.
</event>
<event>
 7    1  0.3200893E-009  0.1367278E+03  0.7561462E-02  0.1217801E+00
          1   -1    0    0  501    0  0.00000000000E+00  0.00000000000E+00  0.82902959972E+03  0.82902959972E+03  0.00000000000E+00 0. -1.
         -1   -1    0    0    0  501 -0.00000000000E+00 -0.00000000000E+00 -0.34024163787E+02  0.34024163787E+02  0.00000000000E+00 0.  1.
         25    2    1    2    0    0  0.12115865876E+03 -0.38502800953E+02  0.39052742901E+03  0.42933834543E+03  0.12513135406E+03 0.  0.
          5    1    3    3  502    0  0.85912019862E+02 -0.21856055135E+02  0.37785567729E+03  0.38813779456E+03  0.41800000000E+01 0. -1.
         -5    1    3    3    0  502  0.35246638900E+02 -0.16646745818E+02  0.12671751716E+02  0.41200550866E+02  0.41800000000E+01 0. -1.
        -11    1    1    2    0    0 -0.50309136836E+02  0.53121097730E+02  0.28322087409E+03  0.29251824523E+03  0.00000000000E+00 0. -1.
         11    1    1    2    0    0 -0.70849521927E+02 -0.14618296777E+02  0.12125713283E+03  0.14119717285E+03  0.00000000000E+00 0.  1.
</event>
<event>
 7    1  0.2943257E-009  0.1680500E+03  0.7561462E-02  0.1179897E+00
          1   -1    0    0  501    0  0.00000000000E+00  0.00000000000E+00  0.14545259441E+03  0.14545259441E+03  0.00000000000E+00 0. -1.
         -1   -1    0    0    0  501 -0.00000000000E+00 -0.00000000000E+00 -0.23192553770E+03  0.23192553770E+03  0.00000000000E+00 0.  1.
         25    2    1    2    0    0  0.13114361318E+03 -0.61424868589E+02 -0.18407794289E+02  0.19224521503E+03  0.12509082321E+03 0.  0.
          5    1    3    3  502    0  0.12722739014E+03 -0.41943162291E+01  0.10641962332E+02  0.12780893886E+03  0.41800000000E+01 0. -1.
         -5    1    3    3    0  502  0.39162230424E+01 -0.57230552360E+02 -0.29049756621E+02  0.64436276166E+02  0.41800000000E+01 0. -1.
        -11    1    1    2    0    0 -0.74970840928E+01 -0.66930993348E+01  0.17411103120E+02  0.20103491251E+02  0.00000000000E+00 0. -1.
         11    1    1    2    0    0 -0.12364652909E+03  0.68117967924E+02 -0.85476252121E+02  0.16502942582E+03  0.00000000000E+00 0.  1.
</event>
<event>
 7    1  0.2943257E-009  0.8246916E+02  0.7561462E-02  0.1322187E+00
          2   -1    0    0  501    0  0.00000000000E+00  0.00000000000E+00  0.33976966449E+03  0.33976966449E+03  0.00000000000E+00 0. -1.
         -2   -1    0    0    0  501 -0.00000000000E+00 -0.00000000000E+00 -0.42672523097E+02  0.42672523097E+02  0.00000000000E+00 0.  1.
         25    2    1    2    0    0 -0.94020568095E+01  0.51535160326E+02  0.18638180233E+03  0.23049797037E+03  0.12508743615E+03 0.  0.
          5    1    3    3  502    0  0.12380580534E+02  0.76890925299E+02  0.56472485281E+02  0.96291781381E+02  0.41800000000E+01 0. -1.
         -5    1    3    3    0  502 -0.21782637343E+02 -0.25355764973E+02  0.12990931705E+03  0.13420618899E+03  0.41800000000E+01 0. -1.
        -11    1    1    2    0    0 -0.95198011275E+00 -0.20858650156E+02 -0.12641708696E+02  0.24409062892E+02  0.00000000000E+00 0.  1.
         11    1    1    2    0    0  0.10354036922E+02 -0.30676510170E+02  0.12335704776E+03  0.12753515433E+03  0.00000000000E+00 0. -1.
</event>
<event>
 7    1  0.2943257E-009  0.2122259E+03  0.7561462E-02  0.1139815E+00
         -1   -1    0    0    0  501 -0.00000000000E+00  0.00000000000E+00  0.44546250647E+02  0.44546250647E+02  0.00000000000E+00 0.  1.
          1   -1    0    0  501    0  0.00000000000E+00 -0.00000000000E+00 -0.12176063267E+04  0.12176063267E+04  0.00000000000E+00 0. -1.
         25    2    1    2    0    0  0.92750554682E+02  0.16681878969E+03 -0.81790537805E+03  0.84914658139E+03  0.12509810258E+03 0.  0.
          5    1    3    3  502    0  0.64181120689E+02  0.88372971359E+01 -0.18049055507E+03  0.19181143590E+03  0.41800000000E+01 0.  1.
         -5    1    3    3    0  502  0.28569433993E+02  0.15798149255E+03 -0.63741482297E+03  0.65733514549E+03  0.41800000000E+01 0.  1.
        -11    1    1    2    0    0 -0.71335806395E+02 -0.16195853593E+03 -0.25449674424E+03  0.30998057595E+03  0.00000000000E+00 0.  1.
         11    1    1    2    0    0 -0.21414748287E+02 -0.48602537578E+01 -0.10065795375E+03  0.10302541999E+03  0.00000000000E+00 0. -1.
</event>
<event>
 7    1  0.2943257E-009  0.1896304E+03  0.7561462E-02  0.1158795E+00
          1   -1    0    0  501    0  0.00000000000E+00  0.00000000000E+00  0.17227440544E+03  0.17227440544E+03  0.00000000000E+00 0. -1.
         -1   -1    0    0    0  501 -0.00000000000E+00 -0.00000000000E+00 -0.30589562314E+03  0.30589562314E+03  0.00000000000E+00 0.  1.
         25    2    1    2    0    0 -0.93908313344E+02 -0.14439987035E+03 -0.16193545901E+03  0.26747121540E+03  0.12509062438E+03 0.  0.
          5    1    3    3  502    0 -0.84418234366E+02 -0.51390458491E+02 -0.25724741797E+02  0.10220886585E+03  0.41800000000E+01 0.  1.
         -5    1    3    3    0  502 -0.94900789775E+01 -0.93009411862E+02 -0.13621071721E+03  0.16526234955E+03  0.41800000000E+01 0.  1.
        -11    1    1    2    0    0  0.13161122730E+01  0.64335043152E+02 -0.34609019400E+02  0.73065136370E+02  0.00000000000E+00 0.  1.
         11    1    1    2    0    0  0.92592201071E+02  0.80064827200E+02  0.62923260711E+02  0.13763367681E+03  0.00000000000E+00 0. -1.
</event>
<event>
 7    1  0.2943257E-009  0.1368005E+03  0.7561462E-02  0.1217700E+00
          2   -1    0    0  501    0  0.00000000000E+00  0.00000000000E+00  0.36548143729E+03  0.36548143729E+03  0.00000000000E+00 0.  1.
         -2   -1    0    0    0  501 -0.00000000000E+00 -0.00000000000E+00 -0.59621755244E+02  0.59621755244E+02  0.00000000000E+00 0. -1.
         25    2    1    2    0    0  0.70850917008E+02 -0.71289942564E+02  0.16623168518E+03  0.23104886223E+03  0.12509394561E+03 0.  0.
          5    1    3    3  502    0  0.19368256740E+02  0.36081471622E+02  0.38302499748E+02  0.56227714256E+02  0.41800000000E+01 0. -1.
         -5    1    3    3    0  502  0.51482660268E+02 -0.10737141419E+03  0.12792918543E+03  0.17482114797E+03  0.41800000000E+01 0. -1.
        -11    1    1    2    0    0 -0.77404721034E+01  0.43751160468E+02  0.11085471342E+03  0.11942715955E+03  0.00000000000E+00 0.  1.
         11    1    1    2    0    0 -0.63110444904E+02  0.27538782095E+02  0.28773283451E+02  0.74627170762E+02  0.00000000000E+00 0. -1.
</event>
<event>
 7    1  0.2943257E-009  0.1049638E+03  0.7561462E-02  0.1270191E+00
          4   -1    0    0  501    0  0.00000000000E+00  0.00000000000E+00  0.31581747737E+03  0.31581747737E+03  0.00000000000E+00 0. -1.
         -4   -1    0    0    0  501 -0.00000000000E+00 -0.00000000000E+00 -0.78834039690E+02  0.78834039690E+02  0.00000000000E+00 0.  1.
         25    2    1    2    0    0  0.73711583908E+02  0.43870434949E+02  0.21838521950E+03  0.26589276417E+03  0.12509534476E+03 0.  0.
          5    1    3    3  502    0  0.40522966329E+02 -0.16598822703E+02  0.18308165413E+03  0.18829231582E+03  0.41800000000E+01 0. -1.
         -5    1    3    3    0  502  0.33188617579E+02  0.60469257652E+02  0.35303565364E+02  0.77600448357E+02  0.41800000000E+01 0. -1.
        -11    1    1    2    0    0 -0.59079513390E+02 -0.99771269085E+01  0.51727757809E+02  0.79156129843E+02  0.00000000000E+00 0. -1.
         11    1    1    2    0    0 -0.14632070518E+02 -0.33893308040E+02 -0.33129539623E+02  0.49602623047E+02  0.00000000000E+00 0.  1.
</event>
<event>
 7    1  0.2943257E-009  0.1421680E+03  0.7561462E-02  0.1210441E+00
         -2   -1    0    0    0  501 -0.00000000000E+00  0.00000000000E+00  0.17737846433E+03  0.17737846433E+03  0.00000000000E+00 0.  1.
          2   -1    0    0  501    0  0.00000000000E+00 -0.00000000000E+00 -0.12883452970E+03  0.12883452970E+03  0.00000000000E+00 0. -1.
         25    2    1    2    0    0  0.96264868283E+02  0.38756384696E+02  0.26136658744E+02  0.16461913016E+03  0.12508937151E+03 0.  0.
          5    1    3    3  502    0  0.79257471144E+02 -0.34499170203E+02  0.21413075908E+02  0.89151173277E+02  0.41800000000E+01 0. -1.
         -5    1    3    3    0  502  0.17007397139E+02  0.73255554899E+02  0.47235828367E+01  0.75467956882E+02  0.41800000000E+01 0. -1.
        -11    1    1    2    0    0 -0.21437081841E+02 -0.42450031651E+02 -0.24201700137E+02  0.53359872138E+02  0.00000000000E+00 0. -1.
         11    1    1    2    0    0 -0.74827786442E+02  0.36936469547E+01  0.46608976024E+02  0.88233991736E+02  0.00000000000E+00 0.  1.
</event>
<event>
 7    1  0.2943257E-009  0.1172021E+03  0.7561462E-02  0.1247785E+00
          2   -1    0    0  501    0  0.00000000000E+00  0.00000000000E+00  0.12318054670E+03  0.12318054670E+03  0.00000000000E+00 0. -1.
         -2   -1    0    0    0  501 -0.00000000000E+00 -0.00000000000E+00 -0.13734365213E+03  0.13734365213E+03  0.00000000000E+00 0.  1.
         25    2    1    2    0    0 -0.58579189120E+02 -0.35179257207E+01 -0.52706515460E+02  0.14788044428E+03  0.12508697705E+03 0.  0.
          5    1    3    3  502    0  0.80304777846E+01  0.45093927768E+02 -0.45986247417E+02  0.65039666715E+02  0.41800000000E+01 0. -1.
         -5    1    3    3    0  502 -0.66609666904E+02 -0.48611853488E+02 -0.67202680427E+01  0.82840777563E+02  0.41800000000E+01 0. -1.
        -11    1    1    2    0    0 -0.18269799678E+02 -0.18399625045E+02  0.91765718442E+01  0.27505294997E+02  0.00000000000E+00 0.  1.
         11    1    1    2    0    0  0.76848988797E+02  0.21917550766E+02  0.29366838183E+02  0.85138459556E+02  0.00000000000E+00 0. -1.
</event>
<event>
 7    1  0.2943257E-009  0.1759171E+03  0.7561462E-02  0.1171814E+00
         -1   -1    0    0    0  501 -0.00000000000E+00  0.00000000000E+00  0.43810583731E+03  0.43810583731E+03  0.00000000000E+00 0.  1.
          1   -1    0    0  501    0  0.00000000000E+00 -0.00000000000E+00 -0.81783334398E+02  0.81783334398E+02  0.00000000000E+00 0. -1.
         25    2    1    2    0    0  0.16119095686E+02 -0.15332653149E+03  0.16970941687E+03  0.26118445614E+03  0.12508870233E+03 0.  0.
          5    1    3    3  502    0  0.21226989939E+02  0.16445521591E+02  0.35286150730E+02  0.44537906503E+02  0.41800000000E+01 0. -1.
         -5    1    3    3    0  502 -0.51078942525E+01 -0.16977205308E+03  0.13442326614E+03  0.21664654964E+03  0.41800000000E+01 0. -1.
        -11    1    1    2    0    0  0.24378697489E+01  0.16524673281E+02 -0.92371205730E+01  0.19087494137E+02  0.00000000000E+00 0. -1.
         11    1    1    2    0    0 -0.18556965435E+02  0.13680185821E+03  0.19585020662E+03  0.23961722143E+03  0.00000000000E+00 0.  1.
</event>
<event>
 7    1  0.2943257E-009  0.1007136E+03  0.7561462E-02  0.1278802E+00
          1   -1    0    0  501    0  0.00000000000E+00  0.00000000000E+00  0.58298712273E+03  0.58298712273E+03  0.00000000000E+00 0. -1.
         -1   -1    0    0    0  501 -0.00000000000E+00 -0.00000000000E+00 -0.27427485835E+02  0.27427485835E+02  0.00000000000E+00 0.  1.
         25    2    1    2    0    0 -0.14644634884E+02 -0.12767025571E+02  0.43710710239E+03  0.45506884671E+03  0.12509026347E+03 0.  0.
          5    1    3    3  502    0  0.37055787554E+02  0.25372315604E+02  0.30265167990E+03  0.30599411357E+03  0.41800000000E+01 0. -1.
         -5    1    3    3    0  502 -0.51700422438E+02 -0.38139341174E+02  0.13445542248E+03  0.14907473314E+03  0.41800000000E+01 0. -1.
        -11    1    1    2    0    0  0.42622352111E+02  0.35831345599E+02  0.38914812795E+02  0.67933150095E+02  0.00000000000E+00 0.  1.
         11    1    1    2    0    0 -0.27977717228E+02 -0.23064320028E+02  0.79537721710E+02  0.87412611758E+02  0.00000000000E+00 0. -1.
</event>
<event>
 7    1  0.2943257E-009  0.1122367E+03  0.7561462E-02  0.1256483E+00
         -2   -1    0    0    0  501 -0.00000000000E+00  0.00000000000E+00  0.27924079160E+03  0.27924079160E+03  0.00000000000E+00 0.  1.
          2   -1    0    0  501    0  0.00000000000E+00 -0.00000000000E+00 -0.51201948582E+02  0.51201948582E+02  0.00000000000E+00 0. -1.
         25    2    1    2    0    0 -0.62622451380E+01  0.34128848660E+02  0.86925566384E+02  0.15622806081E+03  0.12508860407E+03 0.  0.
          5    1    3    3  502    0 -0.53628251205E+02 -0.15393546675E+02  0.17582960213E+02  0.58647962423E+02  0.41800000000E+01 0.  1.
         -5    1    3    3    0  502  0.47366006067E+02  0.49522395334E+02  0.69342606171E+02  0.97580098386E+02  0.41800000000E+01 0.  1.
        -11    1    1    2    0    0  0.24429027110E+02 -0.61977486650E+02  0.75722520410E+02  0.10085576986E+03  0.00000000000E+00 0. -1.
         11    1    1    2    0    0 -0.18166781972E+02  0.27848637990E+02  0.65390756221E+02  0.73358909508E+02  0.00000000000E+00 0.  1.
</event>
<event>
 7    1  0.2943257E-009  0.1056527E+03  0.7561462E-02  0.1268839E+00
         -1   -1    0    0    0  501 -0.00000000000E+00  0.00000000000E+00  0.38623671509E+03  0.38623671509E+03  0.00000000000E+00 0.  1.
          1   -1    0    0  501    0  0.00000000000E+00 -0.00000000000E+00 -0.44240548108E+02  0.44240548108E+02  0.00000000000E+00 0. -1.
         25    2    1    2    0    0  0.45799827570E+02  0.16345395638E+01  0.28260763535E+03  0.31243459072E+03  0.12509197414E+03 0.  0.
          5    1    3    3  502    0 -0.41134872827E+02  0.12783381935E+02  0.68273137833E+02  0.80834314284E+02  0.41800000000E+01 0. -1.
         -5    1    3    3    0  502  0.86934700397E+02 -0.11148842371E+02  0.21433449752E+03  0.23160027644E+03  0.41800000000E+01 0. -1.
        -11    1    1    2    0    0 -0.31914612929E+02  0.31199925902E+02 -0.45236491251E+01  0.44860241819E+02  0.00000000000E+00 0. -1.
         11    1    1    2    0    0 -0.13885214642E+02 -0.32834465466E+02  0.63912180758E+02  0.73182430660E+02  0.00000000000E+00 0.  1.
</event>
<event>
 7    1  0.2943257E-009  0.1023970E+03  0.7561462E-02  0.1275335E+00
          1   -1    0    0  501    0  0.00000000000E+00  0.00000000000E+00  0.40730303730E+02  0.40730303730E+02  0.00000000000E+00 0. -1.
         -1   -1    0    0    0  501 -0.00000000000E+00 -0.00000000000E+00 -0.39664633527E+03  0.39664633527E+03  0.00000000000E+00 0.  1.
         25    2    1    2    0    0  0.28201956707E+02 -0.42863203422E+02 -0.13797249070E+03  0.19317495216E+03  0.12509016501E+03 0.  0.
          5    1    3    3  502    0  0.15208571417E+02  0.36349746691E+02 -0.81050301262E+01  0.40444636757E+02  0.41800000000E+01 0. -1.
         -5    1    3    3    0  502  0.12993385289E+02 -0.79212950113E+02 -0.12986746057E+03  0.15273031540E+03  0.41800000000E+01 0. -1.
        -11    1    1    2    0    0  0.77608722743E+01  0.47856392634E+02 -0.19571362884E+03  0.20162909009E+03  0.00000000000E+00 0.  1.
         11    1    1    2    0    0 -0.35962828981E+02 -0.49931892121E+01 -0.22229911994E+02  0.42572596751E+02  0.00000000000E+00 0. -1.
</event>
<event>
 7    1  0.2943257E-009  0.9961822E+02  0.7561462E-02  0.1281101E+00
          3   -1    0    0  501    0  0.00000000000E+00  0.00000000000E+00  0.14852598425E+03  0.14852598425E+03  0.00000000000E+00 0. -1.
         -3   -1    0    0    0  501 -0.00000000000E+00 -0.00000000000E+00 -0.13766398969E+03  0.13766398969E+03  0.00000000000E+00 0.  1.
         25    2    1    2    0    0 -0.89581806223E+01 -0.42866013503E+02  0.87003099686E+02  0.15853699512E+03  0.12508675131E+03 0.  0.
          5    1    3    3  502    0  0.54839355567E+02 -0.24842707353E+02  0.18510672803E+02  0.63123945022E+02  0.41800000000E+01 0. -1.
         -5    1    3    3    0  502 -0.63797536189E+02 -0.18023306151E+02  0.68492426882E+02  0.95413050096E+02  0.41800000000E+01 0. -1.
        -11    1    1    2    0    0 -0.94816411436E+01  0.51311038456E+02 -0.35707220537E+01  0.52301761368E+02  0.00000000000E+00 0. -1.
         11    1    1    2    0    0  0.18439821766E+02 -0.84450249526E+01 -0.72570383068E+02  0.75351217455E+02  0.00000000000E+00 0.  1.
</event>
<event>
 7    1  0.2943257E-009  0.7333382E+02  0.7561462E-02  0.1349110E+00
         -2   -1    0    0    0  501 -0.00000000000E+00  0.00000000000E+00  0.17374924542E+03  0.17374924542E+03  0.00000000000E+00 0.  1.
          2   -1    0    0  501    0  0.00000000000E+00 -0.00000000000E+00 -0.93071419176E+02  0.93071419176E+02  0.00000000000E+00 0. -1.
         25    2    1    2    0    0  0.23192715200E+02  0.32328842388E+02 -0.69678904269E+00  0.13126878540E+03  0.12509177597E+03 0.  0.
          5    1    3    3  502    0  0.13882692676E+02 -0.34764481653E+02 -0.38269885198E+02  0.53696879366E+02  0.41800000000E+01 0. -1.
         -5    1    3    3    0  502  0.93100225231E+01  0.67093324042E+02  0.37573096155E+02  0.77571906029E+02  0.41800000000E+01 0. -1.
        -11    1    1    2    0    0 -0.14547918458E+02 -0.11368854883E+02  0.10274758744E+03  0.10439329249E+03  0.00000000000E+00 0.  1.
         11    1    1    2    0    0 -0.86447967417E+01 -0.20959987506E+02 -0.21372972153E+02  0.31158586707E+02  0.00000000000E+00 0. -1.
</event>
<event>
 7    1  0.2943257E-009  0.8206906E+02  0.7561462E-02  0.1323280E+00
         -1   -1    0    0    0  501 -0.00000000000E+00  0.00000000000E+00  0.22542281748E+02  0.22542281748E+02  0.00000000000E+00 0.  1.
          1   -1    0    0  501    0  0.00000000000E+00 -0.00000000000E+00 -0.10443325841E+04  0.10443325841E+04  0.00000000000E+00 0. -1.
         25    2    1    2    0    0  0.64351226943E+01  0.54615913837E+02 -0.87291532897E+03  0.88354602730E+03  0.12509237373E+03 0.  0.
          5    1    3    3  502    0 -0.37512340380E+02  0.26767227890E+02 -0.11680929653E+03  0.12564053615E+03  0.41800000000E+01 0.  1.
         -5    1    3    3    0  502  0.43947463074E+02  0.27848685948E+02 -0.75610603244E+03  0.75790549115E+03  0.41800000000E+01 0.  1.
        -11    1    1    2    0    0  0.12285218211E+02 -0.40219947221E+02 -0.11031648180E+02  0.43477212451E+02  0.00000000000E+00 0.  1.
         11    1    1    2    0    0 -0.18720340905E+02 -0.14395966617E+02 -0.13784332523E+03  0.13985162613E+03  0.00000000000E+00 0. -1.
</event>
<event>
 7    1  0.2943257E-009  0.1398760E+03  0.7561462E-02  0.1213496E+00
          2   -1    0    0  501    0  0.00000000000E+00  0.00000000000E+00  0.53973877462E+03  0.53973877462E+03  0.00000000000E+00 0. -1.
         -2   -1    0    0    0  501 -0.00000000000E+00 -0.00000000000E+00 -0.66105422921E+02  0.66105422921E+02  0.00000000000E+00 0.  1.
         25    2    1    2    0    0 -0.88311504729E+02  0.25841108684E+02  0.50352583194E+02  0.16324709855E+03  0.12509015862E+03 0.  0.
          5    1    3    3  502    0 -0.72043083517E+02  0.72056368048E+02  0.51105631827E+02  0.11406833068E+03  0.41800000000E+01 0.  1.
         -5    1    3    3    0  502 -0.16268421212E+02 -0.46215259364E+02 -0.75304863270E+00  0.49178767869E+02  0.41800000000E+01 0.  1.
        -11    1    1    2    0    0  0.19858365929E+02 -0.51732949565E+02  0.15949807655E+03  0.16884990137E+03  0.00000000000E+00 0. -1.
         11    1    1    2    0    0  0.68453138800E+02  0.25891840881E+02  0.26378269195E+03  0.27374719762E+03  0.00000000000E+00 0.  1.
</event>
<event>
 7    1  0.2943257E-009  0.1298012E+03  0.7561462E-02  0.1227751E+00
          2   -1    0    0  501    0  0.00000000000E+00  0.00000000000E+00  0.11370112618E+04  0.11370112618E+04  0.00000000000E+00 0. -1.
         -2   -1    0    0    0  501 -0.00000000000E+00 -0.00000000000E+00 -0.31905871406E+02  0.31905871406E+02  0.00000000000E+00 0.  1.
         25    2    1    2    0    0 -0.12937756593E+02  0.11893403435E+03  0.88945438334E+03  0.90613975665E+03  0.12508984154E+03 0.  0.
          5    1    3    3  502    0  0.77085017301E+01  0.66707301388E+02  0.14829503186E+03  0.16284401718E+03  0.41800000000E+01 0.  1.
         -5    1    3    3    0  502 -0.20646258323E+02  0.52226732962E+02  0.74115935148E+03  0.74329573947E+03  0.41800000000E+01 0.  1.
        -11    1    1    2    0    0 -0.17679951631E+02 -0.96354426599E+02  0.95746037159E+02  0.13698196906E+03  0.00000000000E+00 0.  1.
         11    1    1    2    0    0  0.30617708224E+02 -0.22579607750E+02  0.11990496985E+03  0.12579540746E+03  0.00000000000E+00 0. -1.
</event>
<event>
 7    1  0.2943257E-009  0.1122518E+03  0.7561462E-02  0.1256456E+00
         -1   -1    0    0    0  501 -0.00000000000E+00  0.00000000000E+00  0.21262344845E+03  0.21262344845E+03  0.00000000000E+00 0.  1.
          1   -1    0    0  501    0  0.00000000000E+00 -0.00000000000E+00 -0.11880454604E+03  0.11880454604E+03  0.00000000000E+00 0. -1.
         25    2    1    2    0    0  0.25769559163E+02 -0.89509134138E+02  0.12152155390E+03  0.19771748622E+03  0.12509500798E+03 0.  0.
          5    1    3    3  502    0  0.29723524843E+02 -0.22873587328E+02 -0.18881229545E+02  0.42197892785E+02  0.41800000000E+01 0. -1.
         -5    1    3    3    0  502 -0.39539656803E+01 -0.66635546811E+02  0.14040278344E+03  0.15551959343E+03  0.41800000000E+01 0. -1.
        -11    1    1    2    0    0  0.26951057299E+02  0.27818259706E+02  0.15569459283E+02  0.41744737692E+02  0.00000000000E+00 0.  1.
         11    1    1    2    0    0 -0.52720616462E+02  0.61690874433E+02 -0.43272110773E+02  0.91965770584E+02  0.00000000000E+00 0. -1.
</event>
<event>
 7    1  0.2943257E-009  0.7679138E+02  0.7561462E-02  0.1338412E+00
          1   -1    0    0  501    0  0.00000000000E+00  0.00000000000E+00  0.31072776061E+02  0.31072776061E+02  0.00000000000E+00 0. -1.
         -1   -1    0    0    0  501 -0.00000000000E+00 -0.00000000000E+00 -0.40944698817E+03  0.40944698817E+03  0.00000000000E+00 0.  1.
         25    2    1    2    0    0 -0.69035499800E+01  0.26542415992E+02 -0.18253964554E+03  0.22297992146E+03  0.12508862591E+03 0.  0.
          5    1    3    3  502    0 -0.31318453513E+02 -0.21944075537E+02 -0.68848399099E+01  0.39080191942E+02  0.41800000000E+01 0. -1.
         -5    1    3    3    0  502  0.24414903533E+02  0.48486491529E+02 -0.17565480563E+03  0.18389972952E+03  0.41800000000E+01 0. -1.
        -11    1    1    2    0    0  0.21346847578E+02  0.83353660276E+01 -0.55931731580E+01  0.23589188505E+02  0.00000000000E+00 0. -1.
         11    1    1    2    0    0 -0.14443297598E+02 -0.34877782020E+02 -0.19024139340E+03  0.19395065426E+03  0.00000000000E+00 0.  1.
</event>
<event>
 7    1  0.2943257E-009  0.1287879E+03  0.7561462E-02  0.1229265E+00
         -4   -1    0    0    0  501 -0.00000000000E+00  0.00000000000E+00  0.57015220764E+02  0.57015220764E+02  0.00000000000E+00 0.  1.
          4   -1    0    0  501    0  0.00000000000E+00 -0.00000000000E+00 -0.43097019667E+03  0.43097019667E+03  0.00000000000E+00 0. -1.
         25    2    1    2    0    0 -0.93476010161E+02  0.57828240529E+02 -0.23035322374E+03  0.28423873946E+03  0.12508870231E+03 0.  0.
          5    1    3    3  502    0 -0.46975011002E+02  0.69681498223E+02 -0.21920088120E+03  0.23479493515E+03  0.41800000000E+01 0. -1.
         -5    1    3    3    0  502 -0.46500999159E+02 -0.11853257694E+02 -0.11152342542E+02  0.49443804313E+02  0.41800000000E+01 0. -1.
        -11    1    1    2    0    0  0.87716024224E+02 -0.23985648717E+02 -0.49407250845E+02  0.10349149089E+03  0.00000000000E+00 0.  1.
         11    1    1    2    0    0  0.57599859375E+01 -0.33842591813E+02 -0.94194501321E+02  0.10025518709E+03  0.00000000000E+00 0. -1.
</event>
<event>
 7    1  0.2943257E-009  0.1251770E+03  0.7561462E-02  0.1234793E+00
          2   -1    0    0  501    0  0.00000000000E+00  0.00000000000E+00  0.29532309117E+03  0.29532309117E+03  0.00000000000E+00 0. -1.
         -2   -1    0    0    0  501 -0.00000000000E+00 -0.00000000000E+00 -0.58306050643E+02  0.58306050643E+02  0.00000000000E+00 0.  1.
         25    2    1    2    0    0 -0.33124428049E+02 -0.65472424100E+02  0.11836873343E+03  0.18719659963E+03  0.12509014273E+03 0.  0.
          5    1    3    3  502    0 -0.66254274413E+02 -0.62746181800E+01  0.93459907537E+02  0.11480952238E+03  0.41800000000E+01 0. -1.
         -5    1    3    3    0  502  0.33129846364E+02 -0.59197805920E+02  0.24908825893E+02  0.72387077253E+02  0.41800000000E+01 0. -1.
        -11    1    1    2    0    0 -0.31011467428E+02  0.25345551788E+02  0.51783699878E+02  0.65464950016E+02  0.00000000000E+00 0.  1.
         11    1    1    2    0    0  0.64135895477E+02  0.40126872312E+02  0.66864607223E+02  0.10096759217E+03  0.00000000000E+00 0. -1.
</event>
<event>
 7    1  0.2943257E-009  0.1014268E+03  0.7561462E-02  0.1277324E+00
         -2   -1    0    0    0  501 -0.00000000000E+00  0.00000000000E+00  0.22078831303E+03  0.22078831303E+03  0.00000000000E+00 0.  1.
          2   -1    0    0  501    0  0.00000000000E+00 -0.00000000000E+00 -0.52850135684E+02  0.52850135684E+02  0.00000000000E+00 0. -1.
         25    2    1    2    0    0  0.38982407683E+02  0.19932783960E+02  0.10329456954E+03  0.16803013000E+03  0.12508961789E+03 0.  0.
          5    1    3    3  502    0  0.82098315562E+02  0.16959198885E+02  0.44685182048E+02  0.95089356605E+02  0.41800000000E+01 0.  1.
         -5    1    3    3    0  502 -0.43115907879E+02  0.29735850752E+01  0.58609387496E+02  0.72940773392E+02  0.41800000000E+01 0.  1.
        -11    1    1    2    0    0 -0.31188491528E+02  0.18513488115E+02  0.53844457046E+02  0.64920696242E+02  0.00000000000E+00 0.  1.
         11    1    1    2    0    0 -0.77939161550E+01 -0.38446272075E+02  0.10799150757E+02  0.40687622474E+02  0.00000000000E+00 0. -1.
</event>
<event>
 7    1  0.2943257E-009  0.1728776E+03  0.7561462E-02  0.1174880E+00
         -1   -1    0    0    0  501 -0.00000000000E+00  0.00000000000E+00  0.83470521928E+02  0.83470521928E+02  0.00000000000E+00 0.  1.
          1   -1    0    0  501    0  0.00000000000E+00 -0.00000000000E+00 -0.37222067334E+03  0.37222067334E+03  0.00000000000E+00 0. -1.
         25    2    1    2    0    0 -0.13645359330E+03  0.90326231652E+01 -0.12704414963E+03  0.22469512840E+03  0.12508602386E+03 0.  0.
          5    1    3    3  502    0 -0.57363567894E+01  0.44732731832E+02 -0.54745285421E+02  0.71052387449E+02  0.41800000000E+01 0. -1.
         -5    1    3    3    0  502 -0.13071723651E+03 -0.35700108667E+02 -0.72298864213E+02  0.15364274095E+03  0.41800000000E+01 0. -1.
        -11    1    1    2    0    0  0.13439791968E+02 -0.36461108760E+02 -0.35456703097E+02  0.52604355852E+02  0.00000000000E+00 0.  1.
         11    1    1    2    0    0  0.12301380134E+03  0.27428485595E+02 -0.12624929869E+03  0.17839171102E+03  0.00000000000E+00 0. -1.
</event>
<event>
 7    1  0.2943257E-009  0.1172733E+03  0.7561462E-02  0.1247664E+00
          2   -1    0    0  501    0  0.00000000000E+00  0.00000000000E+00  0.17943252514E+03  0.17943252514E+03  0.00000000000E+00 0. -1.
         -2   -1    0    0    0  501 -0.00000000000E+00 -0.00000000000E+00 -0.11211671875E+03  0.11211671875E+03  0.00000000000E+00 0.  1.
         25    2    1    2    0    0  0.13342755864E+01 -0.86309949058E+02  0.64319955643E+02  0.16503257541E+03  0.12508999422E+03 0.  0.
          5    1    3    3  502    0 -0.30111322382E+02 -0.81905453501E+02  0.88913500286E+02  0.12465262926E+03  0.41800000000E+01 0. -1.
         -5    1    3    3    0  502  0.31445597968E+02 -0.44044955564E+01 -0.24593544644E+02  0.40379946147E+02  0.41800000000E+01 0. -1.
        -11    1    1    2    0    0 -0.15077940796E+02  0.96736058052E+02  0.22522505131E+02  0.10046129834E+03  0.00000000000E+00 0. -1.
         11    1    1    2    0    0  0.13743665209E+02 -0.10426108994E+02 -0.19526654384E+02  0.26055370148E+02  0.00000000000E+00 0.  1.
</event>
<event>
 7    1  0.2943257E-009  0.1180676E+03  0.7561462E-02  0.1246319E+00
         -4   -1    0    0    0  501 -0.00000000000E+00  0.00000000000E+00  0.68037267647E+02  0.68037267647E+02  0.00000000000E+00 0.  1.
          4   -1    0    0  501    0  0.00000000000E+00 -0.00000000000E+00 -0.33583214353E+03  0.33583214353E+03  0.00000000000E+00 0. -1.
         25    2    1    2    0    0 -0.38160566058E+02  0.49239729699E+02 -0.32302314995E+02  0.14342688146E+03  0.12508817285E+03 0.  0.
          5    1    3    3  502    0  0.37019795407E+01  0.75638802541E+02 -0.49839172676E+02  0.90754331221E+02  0.41800000000E+01 0. -1.
         -5    1    3    3    0  502 -0.41862545599E+02 -0.26399072842E+02  0.17536857680E+02  0.52672550235E+02  0.41800000000E+01 0. -1.
        -11    1    1    2    0    0  0.25146183089E+02  0.24877146024E+02 -0.88515360502E+02  0.95321413979E+02  0.00000000000E+00 0.  1.
         11    1    1    2    0    0  0.13014382969E+02 -0.74116875723E+02 -0.14697720039E+03  0.16512111575E+03  0.00000000000E+00 0. -1.
</event>
<event>
 7    1  0.2943257E-009  0.1058694E+03  0.7561462E-02  0.1268416E+00
         -1   -1    0    0    0  501 -0.00000000000E+00  0.00000000000E+00  0.18178545025E+03  0.18178545025E+03  0.00000000000E+00 0.  1.
          1   -1    0    0  501    0  0.00000000000E+00 -0.00000000000E+00 -0.78081184954E+02  0.78081184954E+02  0.00000000000E+00 0. -1.
         25    2    1    2    0    0  0.49165854792E+02 -0.16500791206E+02  0.58109593882E+02  0.14735824616E+03  0.12509264735E+03 0.  0.
          5    1    3    3  502    0 -0.32325503857E+02  0.20708347538E+02  0.40507715311E+02  0.55965357651E+02  0.41800000000E+01 0.  1.
         -5    1    3    3    0  502  0.81491358649E+02 -0.37209138744E+02  0.17601878571E+02  0.91392888507E+02  0.41800000000E+01 0.  1.
        -11    1    1    2    0    0 -0.22790790904E+02  0.41342564966E+02  0.57475839431E+02  0.74378087810E+02  0.00000000000E+00 0.  1.
         11    1    1    2    0    0 -0.26375063888E+02 -0.24841773760E+02 -0.11881168018E+02  0.38130301233E+02  0.00000000000E+00 0. -1.
</event>
<event>
 7    1  0.2943257E-009  0.9281111E+02  0.7561462E-02  0.1296184E+00
          2   -1    0    0  501    0  0.00000000000E+00  0.00000000000E+00  0.33618885304E+03  0.33618885304E+03  0.00000000000E+00 0. -1.
         -2   -1    0    0    0  501 -0.00000000000E+00 -0.00000000000E+00 -0.37016750011E+02  0.37016750011E+02  0.00000000000E+00 0.  1.
         25    2    1    2    0    0  0.24613156522E+02 -0.29143582359E+02  0.18073635830E+03  0.22308292125E+03  0.12508078459E+03 0.  0.
          5    1    3    3  502    0 -0.26279894575E+02  0.31172846268E+02  0.10861823029E+03  0.11609380498E+03  0.41800000000E+01 0. -1.
         -5    1    3    3    0  502  0.50893051097E+02 -0.60316428627E+02  0.72118128011E+02  0.10698911627E+03  0.41800000000E+01 0. -1.
        -11    1    1    2    0    0  0.16538141889E+02  0.28753199488E+01 -0.48910404426E+01  0.17484275179E+02  0.00000000000E+00 0.  1.
         11    1    1    2    0    0 -0.41151298411E+02  0.26268262410E+02  0.12332678517E+03  0.13263840663E+03  0.00000000000E+00 0. -1.
</event>
<event>
 7    1  0.2943257E-009  0.1614618E+03  0.7561462E-02  0.1187056E+00
         -1   -1    0    0    0  501 -0.00000000000E+00  0.00000000000E+00  0.34941730507E+02  0.34941730507E+02  0.00000000000E+00 0.  1.
          1   -1    0    0  501    0  0.00000000000E+00 -0.00000000000E+00 -0.88835321057E+03  0.88835321057E+03  0.00000000000E+00 0. -1.
         25    2    1    2    0    0  0.95434950157E+02  0.95676694193E+02 -0.50604636036E+03  0.53850941173E+03  0.12509039995E+03 0.  0.
          5    1    3    3  502    0 -0.64517501726E+01 -0.21956165013E+02 -0.32053528986E+02  0.39605547375E+02  0.41800000000E+01 0.  1.
         -5    1    3    3    0  502  0.10188670033E+03  0.11763285921E+03 -0.47399283138E+03  0.49890386435E+03  0.41800000000E+01 0.  1.
        -11    1    1    2    0    0 -0.14761836014E+02 -0.48122777434E+02 -0.42553060199E+02  0.65912642511E+02  0.00000000000E+00 0.  1.
         11    1    1    2    0    0 -0.80673114142E+02 -0.47553916759E+02 -0.30481205950E+03  0.31887288684E+03  0.00000000000E+00 0. -1.
</event>
<event>
 7    1  0.2943257E-009  0.1121814E+03  0.7561462E-02  0.1256583E+00
          4   -1    0    0  501    0  0.00000000000E+00  0.00000000000E+00  0.49460289881E+02  0.49460289881E+02  0.00000000000E+00 0. -1.
         -4   -1    0    0    0  501 -0.00000000000E+00 -0.00000000000E+00 -0.41497240419E+03  0.41497240419E+03  0.00000000000E+00 0.  1.
         25    2    1    2    0    0  0.65032827689E+02  0.10275293596E+02 -0.30724593340E+03  0.33820343359E+03  0.12508656429E+03 0.  0.
          5    1    3    3  502    0 -0.35247684092E+02  0.67122131406E+01 -0.47194204738E+02  0.59432469240E+02  0.41800000000E+01 0. -1.
         -5    1    3    3    0  502  0.10028051178E+03  0.35630804550E+01 -0.26005172866E+03  0.27877096435E+03  0.41800000000E+01 0. -1.
        -11    1    1    2    0    0 -0.30332043550E+02 -0.34159122305E+02 -0.69005144955E+02  0.82756199362E+02  0.00000000000E+00 0.  1.
         11    1    1    2    0    0 -0.34700784140E+02  0.23883828710E+02  0.10738964050E+02  0.43473061114E+02  0.00000000000E+00 0. -1.
</event>
<event>
 7    1  0.2943257E-009  0.9078618E+02  0.7561462E-02  0.1300959E+00
          2   -1    0    0  501    0  0.00000000000E+00  0.00000000000E+00  0.31858328149E+03  0.31858328149E+03  0.00000000000E+00 0. -1.
         -2   -1    0    0    0  501 -0.00000000000E+00 -0.00000000000E+00 -0.52069984191E+02  0.52069984191E+02  0.00000000000E+00 0.  1.
         25    2    1    2    0    0 -0.18459757997E+02 -0.64611099559E+02  0.13944200056E+03  0.19901532108E+03  0.12509064574E+03 0.  0.
          5    1    3    3  502    0 -0.95038385204E+01 -0.39237474180E+00  0.13335155054E+03  0.13375569273E+03  0.41800000000E+01 0.  1.
         -5    1    3    3    0  502 -0.89559194763E+01 -0.64218724817E+02  0.60904500141E+01  0.65259628348E+02  0.41800000000E+01 0.  1.
        -11    1    1    2    0    0 -0.25529310204E+02 -0.28329701045E+01  0.65242762803E+02  0.70116970109E+02  0.00000000000E+00 0. -1.
         11    1    1    2    0    0  0.43989068201E+02  0.67444069663E+02  0.61828533941E+02  0.10152097450E+03  0.00000000000E+00 0.  1.
</event>
<event>
 7    1  0.2943257E-009  0.8383614E+02  0.7561462E-02  0.1318505E+00
         -1   -1    0    0    0  501 -0.00000000000E+00  0.00000000000E+00  0.28807150626E+02  0.28807150626E+02  0.00000000000E+00 0.  1.
          1   -1    0    0  501    0  0.00000000000E+00 -0.00000000000E+00 -0.86206284326E+03  0.86206284326E+03  0.00000000000E+00 0. -1.
         25    2    1    2    0    0 -0.38355753823E+02  0.35324622977E+02 -0.73033981062E+03  0.74280744880E+03  0.12509066384E+03 0.  0.
          5    1    3    3  502    0 -0.32953838569E+02 -0.74950685277E+01 -0.65497017724E+03  0.65585481397E+03  0.41800000000E+01 0. -1.
         -5    1    3    3    0  502 -0.54019152541E+01  0.42819691505E+02 -0.75369633373E+02  0.86952634830E+02  0.41800000000E+01 0. -1.
        -11    1    1    2    0    0  0.81251427885E+00 -0.49957549241E+02 -0.94504894056E+02  0.10689991537E+03  0.00000000000E+00 0. -1.
         11    1    1    2    0    0  0.37543239544E+02  0.14632926264E+02 -0.84109879585E+01  0.41162629714E+02  0.00000000000E+00 0.  1.
</event>
<event>
 7    1  0.2943257E-009  0.1295373E+03  0.7561462E-02  0.1228144E+00
          1   -1    0    0  501    0  0.00000000000E+00  0.00000000000E+00  0.51390244336E+03  0.51390244336E+03  0.00000000000E+00 0. -1.
         -1   -1    0    0    0  501 -0.00000000000E+00 -0.00000000000E+00 -0.34422365822E+02  0.34422365822E+02  0.00000000000E+00 0.  1.
         25    2    1    2    0    0 -0.66860016268E+02 -0.24798918889E+02  0.20551782508E+03  0.25093880813E+03  0.12508981112E+03 0.  0.
          5    1    3    3  502    0 -0.65872384929E+02  0.40915700632E+02  0.10099590539E+03  0.12740059247E+03  0.41800000000E+01 0. -1.
         -5    1    3    3    0  502 -0.98763133903E+00 -0.65714619521E+02  0.10452191969E+03  0.12353821567E+03  0.41800000000E+01 0. -1.
        -11    1    1    2    0    0 -0.24092462688E+01 -0.28225176688E+02  0.61393353409E+02  0.67613673983E+02  0.00000000000E+00 0.  1.
         11    1    1    2    0    0  0.69269262537E+02  0.53024095577E+02  0.21256889905E+03  0.22977232707E+03  0.00000000000E+00 0. -1.
</event>
<event>
 7    1  0.2943257E-009  0.1429859E+03  0.7561462E-02  0.1209367E+00
         -2   -1    0    0    0  501 -0.00000000000E+00  0.00000000000E+00  0.68482179608E+02  0.68482179608E+02  0.00000000000E+00 0.  1.
          2   -1    0    0  501    0  0.00000000000E+00 -0.00000000000E+00 -0.43825701036E+03  0.43825701036E+03  0.00000000000E+00 0. -1.
         25    2    1    2    0    0  0.16258594078E+01  0.10403505715E+03 -0.32133390205E+03  0.36017939323E+03  0.12509109545E+03 0.  0.
          5    1    3    3  502    0  0.35262474009E+02  0.11987977497E+03 -0.25566983501E+03  0.28460347759E+03  0.41800000000E+01 0.  1.
         -5    1    3    3    0  502 -0.33636614601E+02 -0.15844717814E+02 -0.65664067041E+02  0.75575915640E+02  0.41800000000E+01 0.  1.
        -11    1    1    2    0    0  0.22895692166E+02 -0.94472622664E+02 -0.63620666452E+02  0.11617606618E+03  0.00000000000E+00 0. -1.
         11    1    1    2    0    0 -0.24521551574E+02 -0.95624344893E+01  0.15179737751E+02  0.30383730566E+02  0.00000000000E+00 0.  1.
</event>
<event>
 7    1  0.2943257E-009  0.2097877E+03  0.7561462E-02  0.1141734E+00
         -2   -1    0    0    0  501 -0.00000000000E+00  0.00000000000E+00  0.43722127304E+03  0.43722127304E+03  0.00000000000E+00 0.  1.
          2   -1    0    0  501    0  0.00000000000E+00 -0.00000000000E+00 -0.10873773587E+03  0.10873773587E+03  0.00000000000E+00 0. -1.
         25    2    1    2    0    0  0.14507841235E+03 -0.11587765611E+03  0.22065210067E+03  0.31434153839E+03  0.12509147179E+03 0.  0.
          5    1    3    3  502    0  0.94415957553E+02 -0.13374861976E+03  0.19504423098E+03  0.25468174408E+03  0.41800000000E+01 0.  1.
         -5    1    3    3    0  502  0.50662454800E+02  0.17870963645E+02  0.25607869689E+02  0.59659794318E+02  0.41800000000E+01 0.  1.
        -11    1    1    2    0    0 -0.12755095601E+03  0.55591962811E+02  0.92212834948E+02  0.16692189682E+03  0.00000000000E+00 0.  1.
         11    1    1    2    0    0 -0.17527456342E+02  0.60285693298E+02  0.15618601556E+02  0.64695573704E+02  0.00000000000E+00 0. -1.
</event>
<event>
 7    1  0.2943257E-009  0.1116357E+03  0.7561462E-02  0.1257570E+00
         -2   -1    0    0    0  501 -0.00000000000E+00  0.00000000000E+00  0.14753914147E+02  0.14753914147E+02  0.00000000000E+00 0.  1.
          2   -1    0    0  501    0  0.00000000000E+00 -0.00000000000E+00 -0.12409541729E+04  0.12409541729E+04  0.00000000000E+00 0. -1.
         25    2    1    2    0    0 -0.41863360478E+02 -0.19508256096E+02 -0.98545074863E+03  0.99443134441E+03  0.12508959896E+03 0.  0.
          5    1    3    3  502    0 -0.53689746578E+01  0.51880840921E+02 -0.44089140006E+03  0.44398552520E+03  0.41800000000E+01 0. -1.
         -5    1    3    3    0  502 -0.36494385820E+02 -0.71389097017E+02 -0.54455934857E+03  0.55044581921E+03  0.41800000000E+01 0. -1.
        -11    1    1    2    0    0  0.55774505101E+02  0.38023312688E+02 -0.11446605260E+03  0.13288733922E+03  0.00000000000E+00 0.  1.
         11    1    1    2    0    0 -0.13911144623E+02 -0.18515056592E+02 -0.12628345752E+03  0.12838940341E+03  0.00000000000E+00 0. -1.
</event>
<event>
 7    1  0.2943257E-009  0.7995427E+02  0.7561462E-02  0.1329181E+00
         -2   -1    0    0    0  501 -0.00000000000E+00  0.00000000000E+00  0.16730059697E+03  0.16730059697E+03  0.00000000000E+00 0.  1.
          2   -1    0    0  501    0  0.00000000000E+00 -0.00000000000E+00 -0.77389008812E+02  0.77389008812E+02  0.00000000000E+00 0. -1.
         25    2    1    2    0    0 -0.57416616129E+01 -0.12118120275E+02  0.15598542801E+02  0.12677448776E+03  0.12509452703E+03 0.  0.
          5    1    3    3  502    0 -0.25715745214E+02  0.19922007264E+02 -0.44740269111E+02  0.55473867771E+02  0.41800000000E+01 0.  1.
         -5    1    3    3    0  502  0.19974083601E+02 -0.32040127538E+02  0.60338811912E+02  0.71300619993E+02  0.41800000000E+01 0.  1.
        -11    1    1    2    0    0 -0.27424014413E+01  0.50115949434E+02  0.54985682985E+02  0.74448334344E+02  0.00000000000E+00 0. -1.
         11    1    1    2    0    0  0.84840630542E+01 -0.37997829160E+02  0.19327362373E+02  0.43466783675E+02  0.00000000000E+00 0.  1.
</event>
<event>
 7    1  0.3214508E-009  0.9905696E+02  0.7561462E-02  0.1282292E+00
          2   -1    0    0  501    0  0.00000000000E+00  0.00000000000E+00  0.56806605883E+03  0.56806605883E+03  0.00000000000E+00 0. -1.
         -2   -1    0    0    0  501 -0.00000000000E+00 -0.00000000000E+00 -0.30402312015E+02  0.30402312015E+02  0.00000000000E+00 0.  1.
         25    2    1    2    0    0  0.66131800327E+02  0.11914712504E+02  0.36863723421E+03  0.39503974735E+03  0.12509043190E+03 0.  0.
          5    1    3    3  502    0 -0.25232254306E+02  0.28434850158E+01  0.21102016929E+03  0.21258348081E+03  0.41800000000E+01 0.  1.
         -5    1    3    3    0  502  0.91364054633E+02  0.90712274881E+01  0.15761706491E+03  0.18245626654E+03  0.41800000000E+01 0.  1.
        -11    1    1    2    0    0 -0.86830976439E+01 -0.20614069981E+02 -0.23299512606E+01  0.22489213831E+02  0.00000000000E+00 0.  1.
         11    1    1    2    0    0 -0.57448702684E+02  0.86993574771E+01  0.17135646387E+03  0.18093940967E+03  0.00000000000E+00 0. -1.
</event>
<event>
 7    1  0.2943257E-009  0.1104746E+03  0.7561462E-02  0.1259694E+00
         -1   -1    0    0    0  501 -0.00000000000E+00  0.00000000000E+00  0.29322952347E+02  0.29322952347E+02  0.00000000000E+00 0.  1.
          1   -1    0    0  501    0  0.00000000000E+00 -0.00000000000E+00 -0.49237598336E+03  0.49237598336E+03  0.00000000000E+00 0. -1.
         25    2    1    2    0    0 -0.45344577673E+02 -0.13701856673E+02 -0.21730273586E+03  0.25517026461E+03  0.12509002091E+03 0.  0.
          5    1    3    3  502    0 -0.31907371406E+02  0.54937836470E+02 -0.10111852887E+03  0.11949341198E+03  0.41800000000E+01 0.  1.
         -5    1    3    3    0  502 -0.13437206267E+02 -0.68639693143E+02 -0.11618420699E+03  0.13567685264E+03  0.41800000000E+01 0.  1.
        -11    1    1    2    0    0  0.29701990730E+02 -0.29137061439E+02 -0.47705911024E+02  0.63301110174E+02  0.00000000000E+00 0.  1.
         11    1    1    2    0    0  0.15642586943E+02  0.42838918112E+02 -0.19804438413E+03  0.20322756092E+03  0.00000000000E+00 0. -1.
</event>
<event>
 7    1  0.2943257E-009  0.1293203E+03  0.7561462E-02  0.1228468E+00
         -2   -1    0    0    0  501 -0.00000000000E+00  0.00000000000E+00  0.17481022711E+02  0.17481022711E+02  0.00000000000E+00 0.  1.
          2   -1    0    0  501    0  0.00000000000E+00 -0.00000000000E+00 -0.10745372389E+04  0.10745372389E+04  0.00000000000E+00 0. -1.
         25    2    1    2    0    0  0.79697175901E+02  0.22343118431E+01 -0.67539459638E+03  0.69149259723E+03  0.12509004442E+03 0.  0.
          5    1    3    3  502    0  0.26070202450E+02  0.56784601201E+02 -0.18907284420E+03  0.19917369104E+03  0.41800000000E+01 0.  1.
         -5    1    3    3    0  502  0.53626973452E+02 -0.54550289358E+02 -0.48632175218E+03  0.49231890619E+03  0.41800000000E+01 0. -1.
        -11    1    1    2    0    0  0.18115905621E+02 -0.11014682077E+02 -0.10033451064E+03  0.10255010133E+03  0.00000000000E+00 0. -1.
         11    1    1    2    0    0 -0.97813081523E+02  0.87803702342E+01 -0.28132710915E+03  0.29797556303E+03  0.00000000000E+00 0.  1.
</event>
<event>
 7    1  0.2943257E-009  0.8702681E+02  0.7561462E-02  0.1310216E+00
         -2   -1    0    0    0  501 -0.00000000000E+00  0.00000000000E+00  0.58402416459E+02  0.58402416459E+02  0.00000000000E+00 0.  1.
          2   -1    0    0  501    0  0.00000000000E+00 -0.00000000000E+00 -0.21126935145E+03  0.21126935145E+03  0.00000000000E+00 0. -1.
         25    2    1    2    0    0  0.21838330626E+02  0.98623761556E+01 -0.92866581287E+02  0.15762694242E+03  0.12509145418E+03 0.  0.
          5    1    3    3  502    0 -0.49117855350E+02  0.23636346268E+02 -0.45294346096E+02  0.70995005228E+02  0.41800000000E+01 0.  1.
         -5    1    3    3    0  502  0.70956185976E+02 -0.13773970112E+02 -0.47572235191E+02  0.86631937194E+02  0.41800000000E+01 0.  1.
        -11    1    1    2    0    0 -0.93295668829E+01  0.15848552009E+02  0.19951315969E+02  0.27134340380E+02  0.00000000000E+00 0.  1.
         11    1    1    2    0    0 -0.12508763744E+02 -0.25710928164E+02 -0.79951669669E+02  0.84910485103E+02  0.00000000000E+00 0. -1.
</event>
<event>
 7    1  0.2943257E-009  0.1812900E+03  0.7561462E-02  0.1166560E+00
         -2   -1    0    0    0  501 -0.00000000000E+00  0.00000000000E+00  0.35779005158E+02  0.35779005158E+02  0.00000000000E+00 0.  1.
          2   -1    0    0  501    0  0.00000000000E+00 -0.00000000000E+00 -0.10930639376E+04  0.10930639376E+04  0.00000000000E+00 0. -1.
         25    2    1    2    0    0  0.15889198548E+03  0.35853110119E+02 -0.63353549248E+03  0.66599357552E+03  0.12509242119E+03 0.  0.
          5    1    3    3  502    0  0.24796703177E+02 -0.19521861296E+02 -0.25250891854E+02  0.40633231429E+02  0.41800000000E+01 0.  1.
         -5    1    3    3    0  502  0.13409528230E+03  0.55374971415E+02 -0.60828460063E+03  0.62536034409E+03  0.41800000000E+01 0.  1.
        -11    1    1    2    0    0 -0.15273045402E+03 -0.36033902840E+01 -0.36191921682E+03  0.39284232907E+03  0.00000000000E+00 0. -1.
         11    1    1    2    0    0 -0.61615314608E+01 -0.32249719835E+02 -0.61830223100E+02  0.70007038132E+02  0.00000000000E+00 0.  1.
</event>
<event>
 7    1  0.2943257E-009  0.1072489E+03  0.7561462E-02  0.1265751E+00
          2   -1    0    0  501    0  0.00000000000E+00  0.00000000000E+00  0.58179705440E+03  0.58179705440E+03  0.00000000000E+00 0. -1.
         -2   -1    0    0    0  501 -0.00000000000E+00 -0.00000000000E+00 -0.27642823924E+02  0.27642823924E+02  0.00000000000E+00 0.  1.
         25    2    1    2    0    0 -0.30705691848E+02  0.57756444199E+02  0.30210477389E+03  0.33345740383E+03  0.12509156407E+03 0.  0.
          5    1    3    3  502    0 -0.26994234571E+02 -0.36986140922E+02  0.89052683627E+02  0.10022233375E+03  0.41800000000E+01 0.  1.
         -5    1    3    3    0  502 -0.37114572771E+01  0.94742585121E+02  0.21305209026E+03  0.23323507008E+03  0.41800000000E+01 0.  1.
        -11    1    1    2    0    0  0.38066681379E+02 -0.45613795424E+02  0.25470025197E+03  0.26153758605E+03  0.00000000000E+00 0. -1.
         11    1    1    2    0    0 -0.73609895317E+01 -0.12142648774E+02 -0.26507953803E+01  0.14444888448E+02  0.00000000000E+00 0.  1.
</event>
<event>
 7    1  0.2943257E-009  0.1376249E+03  0.7561462E-02  0.1216561E+00
          2   -1    0    0  501    0  0.00000000000E+00  0.00000000000E+00  0.19440171697E+03  0.19440171697E+03  0.00000000000E+00 0. -1.
         -2   -1    0    0    0  501 -0.00000000000E+00 -0.00000000000E+00 -0.14489970148E+03  0.14489970148E+03  0.00000000000E+00 0.  1.
         25    2    1    2    0    0 -0.78888375885E+02  0.83352751969E+02 -0.55742138460E+01  0.16985297378E+03  0.12509158138E+03 0.  0.
          5    1    3    3  502    0 -0.35883316462E+02  0.18242351140E+01 -0.54501783838E+02  0.65412973297E+02  0.41800000000E+01 0.  1.
         -5    1    3    3    0  502 -0.43005059423E+02  0.81528516855E+02  0.48927569992E+02  0.10444000049E+03  0.41800000000E+01 0.  1.
        -11    1    1    2    0    0  0.19656973990E+02  0.19773448598E+02 -0.14745873547E+02  0.31540873205E+02  0.00000000000E+00 0.  1.
         11    1    1    2    0    0  0.59231401895E+02 -0.10312620057E+03  0.69822102880E+02  0.13790757145E+03  0.00000000000E+00 0. -1.
</event>
<event>
 7    1  0.2943257E-009  0.8450595E+02  0.7561462E-02  0.1316730E+00
          1   -1    0    0  501    0  0.00000000000E+00  0.00000000000E+00  0.59791396762E+02  0.59791396762E+02  0.00000000000E+00 0. -1.
         -1   -1    0    0    0  501 -0.00000000000E+00 -0.00000000000E+00 -0.22574617214E+03  0.22574617214E+03  0.00000000000E+00 0.  1.
         25    2    1    2    0    0  0.12565097758E+02  0.33075498233E+02 -0.12145671138E+03  0.17790394364E+03  0.12508481186E+03 0.  0.
          5    1    3    3  502    0  0.17232305687E+02 -0.32810687001E+02  0.25061857383E+01  0.37379766020E+02  0.41800000000E+01 0.  1.
         -5    1    3    3    0  502 -0.46672079286E+01  0.65886185233E+02 -0.12396289712E+03  0.14052417762E+03  0.41800000000E+01 0.  1.
        -11    1    1    2    0    0 -0.30495150879E+02 -0.31638023555E+01 -0.61588104166E+02  0.68797227031E+02  0.00000000000E+00 0.  1.
         11    1    1    2    0    0  0.17930053120E+02 -0.29911695877E+02  0.17090040161E+02  0.38836398235E+02  0.00000000000E+00 0. -1.
</event>
<event>
 7    1  0.2943257E-009  0.1063579E+03  0.7561462E-02  0.1267467E+00
          1   -1    0    0  501    0  0.00000000000E+00  0.00000000000E+00  0.92029031620E+02  0.92029031620E+02  0.00000000000E+00 0. -1.
         -1   -1    0    0    0  501 -0.00000000000E+00 -0.00000000000E+00 -0.16144500834E+03  0.16144500834E+03  0.00000000000E+00 0.  1.
         25    2    1    2    0    0  0.50400663765E+02 -0.20032774725E+02 -0.23073436922E+02  0.13828024967E+03  0.12508998755E+03 0.  0.
          5    1    3    3  502    0  0.46303406803E+02 -0.62809116278E+02  0.16325168083E+02  0.79830909315E+02  0.41800000000E+01 0.  1.
         -5    1    3    3    0  502  0.40972569618E+01  0.42776341553E+02 -0.39398605005E+02  0.58449340352E+02  0.41800000000E+01 0.  1.
        -11    1    1    2    0    0  0.19187485769E+02  0.81885896396E+00 -0.37927944535E+02  0.42513046431E+02  0.00000000000E+00 0.  1.
         11    1    1    2    0    0 -0.69588149534E+02  0.19213915761E+02 -0.84145952592E+01  0.72680743858E+02  0.00000000000E+00 0. -1.
</event>
<event>
 7    1  0.2943257E-009  0.1148218E+03  0.7561462E-02  0.1251893E+00
         -1   -1    0    0    0  501 -0.00000000000E+00  0.00000000000E+00  0.10261564108E+03  0.10261564108E+03  0.00000000000E+00 0.  1.
          1   -1    0    0  501    0  0.00000000000E+00 -0.00000000000E+00 -0.14700868036E+03  0.14700868036E+03  0.00000000000E+00 0. -1.
         25    2    1    2    0    0  0.52126900109E+02  0.12003929055E+02 -0.38607589192E+01  0.13610053878E+03  0.12508854132E+03 0.  0.
          5    1    3    3  502    0  0.59797238218E+02 -0.42511988070E+02 -0.24035650878E+02  0.77318586001E+02  0.41800000000E+01 0.  1.
         -5    1    3    3    0  502 -0.76703381083E+01  0.54515917125E+02  0.20174891959E+02  0.58781952777E+02  0.41800000000E+01 0.  1.
        -11    1    1    2    0    0 -0.73442729550E+02  0.50931244860E+01 -0.44330349717E+02  0.85935757091E+02  0.00000000000E+00 0.  1.
         11    1    1    2    0    0  0.21315829440E+02 -0.17097053541E+02  0.37980693580E+01  0.27588025579E+02  0.00000000000E+00 0. -1.
</event>
<event>
 7    1  0.2943257E-009  0.1053103E+03  0.7561462E-02  0.1269509E+00
          4   -1    0    0  501    0  0.00000000000E+00  0.00000000000E+00  0.11190224605E+03  0.11190224605E+03  0.00000000000E+00 0. -1.
         -4   -1    0    0    0  501 -0.00000000000E+00 -0.00000000000E+00 -0.13143073513E+03  0.13143073513E+03  0.00000000000E+00 0.  1.
         25    2    1    2    0    0 -0.23028431903E+02  0.37426779526E+02 -0.41819565760E+02  0.13902139154E+03  0.12508796394E+03 0.  0.
          5    1    3    3  502    0 -0.57935162865E+02 -0.10491113275E+02 -0.52072845150E+02  0.78712134744E+02  0.41800000000E+01 0. -1.
         -5    1    3    3    0  502  0.34906730962E+02  0.47917892801E+02  0.10253279389E+02  0.60309256795E+02  0.41800000000E+01 0. -1.
        -11    1    1    2    0    0 -0.19861416485E+02  0.14663814093E+02  0.27106574148E+02  0.36664283310E+02  0.00000000000E+00 0.  1.
         11    1    1    2    0    0  0.42889848388E+02 -0.52090593620E+02 -0.48154974695E+01  0.67647306334E+02  0.00000000000E+00 0. -1.
</event>
<event>
 7    1  0.2943257E-009  0.9590473E+02  0.7561462E-02  0.1289151E+00
         -1   -1    0    0    0  501 -0.00000000000E+00  0.00000000000E+00  0.53001327951E+02  0.53001327951E+02  0.00000000000E+00 0.  1.
          1   -1    0    0  501    0  0.00000000000E+00 -0.00000000000E+00 -0.30210371137E+03  0.30210371137E+03  0.00000000000E+00 0. -1.
         25    2    1    2    0    0 -0.28287300606E+02  0.24467709542E+02 -0.21183566106E+03  0.24884053804E+03  0.12509366847E+03 0.  0.
          5    1    3    3  502    0 -0.62458074554E+02  0.40513609782E+02 -0.70953346039E+02  0.10292819521E+03  0.41800000000E+01 0. -1.
         -5    1    3    3    0  502  0.34170773949E+02 -0.16045900239E+02 -0.14088231502E+03  0.14591234284E+03  0.41800000000E+01 0. -1.
        -11    1    1    2    0    0 -0.20850153948E+02 -0.21632089775E+02  0.15750325129E+02  0.33922691069E+02  0.00000000000E+00 0.  1.
         11    1    1    2    0    0  0.49137454553E+02 -0.28356197669E+01 -0.53017047488E+02  0.72341810205E+02  0.00000000000E+00 0. -1.
</event>
<event>
 7    1  0.2943257E-009  0.1271514E+03  0.7561462E-02  0.1231745E+00
          1   -1    0    0  501    0  0.00000000000E+00  0.00000000000E+00  0.71376015895E+03  0.71376015895E+03  0.00000000000E+00 0. -1.
         -1   -1    0    0    0  501 -0.00000000000E+00 -0.00000000000E+00 -0.26960515098E+02  0.26960515098E+02  0.00000000000E+00 0.  1.
         25    2    1    2    0    0  0.58664147004E+02 -0.59219125199E+02  0.32972255691E+03  0.36237126666E+03  0.12509030113E+03 0.  0.
          5    1    3    3  502    0 -0.23678298726E+02  0.19771262134E+02  0.11547386510E+03  0.11959619792E+03  0.41800000000E+01 0. -1.
         -5    1    3    3    0  502  0.82342445730E+02 -0.78990387334E+02  0.21424869181E+03  0.24277506874E+03  0.41800000000E+01 0. -1.
        -11    1    1    2    0    0 -0.47232157063E+02 -0.14515060634E+01  0.68344791274E+02  0.83090276356E+02  0.00000000000E+00 0.  1.
         11    1    1    2    0    0 -0.11431989941E+02  0.60670631263E+02  0.28873229567E+03  0.29525913103E+03  0.00000000000E+00 0. -1.
</event>
<event>
 7    1  0.2943257E-009  0.1054806E+03  0.7561462E-02  0.1269176E+00
          2   -1    0    0  501    0  0.00000000000E+00  0.00000000000E+00  0.22690233019E+03  0.22690233019E+03  0.00000000000E+00 0. -1.
         -2   -1    0    0    0  501 -0.00000000000E+00 -0.00000000000E+00 -0.57803120829E+02  0.57803120829E+02  0.00000000000E+00 0.  1.
         25    2    1    2    0    0  0.11768412663E+02 -0.89402246993E+01  0.55786649238E+02  0.13776098122E+03  0.12509002582E+03 0.  0.
          5    1    3    3  502    0 -0.54678168529E+02  0.10593205646E+02  0.32247227636E+02  0.64492435291E+02  0.41800000000E+01 0.  1.
         -5    1    3    3    0  502  0.66446581192E+02 -0.19533430345E+02  0.23539421603E+02  0.73268545929E+02  0.41800000000E+01 0.  1.
        -11    1    1    2    0    0 -0.48426875869E+02  0.23859689797E+01  0.33682878688E+02  0.59037204127E+02  0.00000000000E+00 0.  1.
         11    1    1    2    0    0  0.36658463206E+02  0.65542557195E+01  0.79629681435E+02  0.87907265673E+02  0.00000000000E+00 0. -1.
</event>
<event>
 7    1  0.3290085E-009  0.6346425E+02  0.7561462E-02  0.1383843E+00
          1   -1    0    0  501    0  0.00000000000E+00  0.00000000000E+00  0.31915184284E+03  0.31915184284E+03  0.00000000000E+00 0. -1.
         -1   -1    0    0    0  501 -0.00000000000E+00 -0.00000000000E+00 -0.40869904023E+02  0.40869904023E+02  0.00000000000E+00 0.  1.
         25    2    1    2    0    0 -0.19646729206E+02  0.35027020696E+01  0.11125989462E+03  0.16860047900E+03  0.12509634079E+03 0.  0.
          5    1    3    3  502    0 -0.56010627804E+01  0.37233911423E+02 -0.12183557737E+02  0.39795069334E+02  0.41800000000E+01 0.  1.
         -5    1    3    3    0  502 -0.14045666426E+02 -0.33731209354E+02  0.12344345236E+03  0.12880540967E+03  0.41800000000E+01 0.  1.
        -11    1    1    2    0    0  0.34386464964E+02 -0.10496102954E+02  0.17090931747E+03  0.17464991253E+03  0.00000000000E+00 0. -1.
         11    1    1    2    0    0 -0.14739735758E+02  0.69934008839E+01 -0.38872732702E+01  0.16771355330E+02  0.00000000000E+00 0.  1.
</event>
<event>
 7    1  0.2943257E-009  0.1673084E+03  0.7561462E-02  0.1180684E+00
         -1   -1    0    0    0  501 -0.00000000000E+00  0.00000000000E+00  0.12854423498E+03  0.12854423498E+03  0.00000000000E+00 0.  1.
          1   -1    0    0  501    0  0.00000000000E+00 -0.00000000000E+00 -0.30336836912E+03  0.30336836912E+03  0.00000000000E+00 0. -1.
         25    2    1    2    0    0  0.86078130741E+02  0.12939961106E+03 -0.14870589892E+03  0.24882796891E+03  0.12509280477E+03 0.  0.
          5    1    3    3  502    0  0.97943613486E+02  0.75201034162E+02 -0.45661540271E+02  0.13172165965E+03  0.41800000000E+01 0. -1.
         -5    1    3    3    0  502 -0.11865482745E+02  0.54198576894E+02 -0.10304435865E+03  0.11710630926E+03  0.41800000000E+01 0. -1.
        -11    1    1    2    0    0 -0.50043049015E+02 -0.76683348225E+02  0.31742884387E+02  0.96913638663E+02  0.00000000000E+00 0.  1.
         11    1    1    2    0    0 -0.36035081726E+02 -0.52716262831E+02 -0.57861119599E+02  0.86170996531E+02  0.00000000000E+00 0. -1.
</event>
<event>
 7    1  0.2943257E-009  0.1117450E+03  0.7561462E-02  0.1257372E+00
         -1   -1    0    0    0  501 -0.00000000000E+00  0.00000000000E+00  0.16316304304E+03  0.16316304304E+03  0.00000000000E+00 0.  1.
          1   -1    0    0  501    0  0.00000000000E+00 -0.00000000000E+00 -0.14171950579E+03  0.14171950579E+03  0.00000000000E+00 0. -1.
         25    2    1    2    0    0 -0.45021264691E+02 -0.77919123767E+02  0.67996833367E+02  0.16843231546E+03  0.12509025310E+03 0.  0.
          5    1    3    3  502    0 -0.31263800614E+02 -0.90628135907E+02 -0.18695513482E+01  0.95978392719E+02  0.41800000000E+01 0. -1.
         -5    1    3    3    0  502 -0.13757464076E+02  0.12709012139E+02  0.69866384715E+02  0.72453922741E+02  0.41800000000E+01 0. -1.
        -11    1    1    2    0    0  0.41016905586E+02  0.12615031658E+02  0.16127752867E+02  0.45843538041E+02  0.00000000000E+00 0.  1.
         11    1    1    2    0    0  0.40043591049E+01  0.65304092110E+02 -0.62681048980E+02  0.90606695334E+02  0.00000000000E+00 0. -1.
</event>
<event>
 7    1  0.2943257E-009  0.1842703E+03  0.7561462E-02  0.1163733E+00
         -1   -1    0    0    0  501 -0.00000000000E+00  0.00000000000E+00  0.16087664948E+02  0.16087664948E+02  0.00000000000E+00 0.  1.
          1   -1    0    0  501    0  0.00000000000E+00 -0.00000000000E+00 -0.21728157846E+04  0.21728157846E+04  0.00000000000E+00 0. -1.
         25    2    1    2    0    0  0.14680714069E+03  0.24742844698E+02 -0.12963991856E+04  0.13109013944E+04  0.12508825892E+03 0.  0.
          5    1    3    3  502    0  0.15281231618E+03 -0.15387555371E+02 -0.10170479711E+04  0.10285875892E+04  0.41800000000E+01 0.  1.
         -5    1    3    3    0  502 -0.60051754890E+01  0.40130400069E+02 -0.27935121449E+03  0.28231380516E+03  0.41800000000E+01 0.  1.
        -11    1    1    2    0    0 -0.54241954980E+02 -0.54483897851E+02 -0.43085235290E+03  0.43765789700E+03  0.00000000000E+00 0. -1.
         11    1    1    2    0    0 -0.92565185714E+02  0.29741053153E+02 -0.42947658114E+03  0.44034415812E+03  0.00000000000E+00 0.  1.
</event>
<event>
 7    1  0.3367097E-009  0.1738629E+03  0.7561462E-02  0.1173878E+00
          1   -1    0    0  501    0  0.00000000000E+00  0.00000000000E+00  0.36984460037E+03  0.36984460037E+03  0.00000000000E+00 0. -1.
         -1   -1    0    0    0  501 -0.00000000000E+00 -0.00000000000E+00 -0.13844180225E+03  0.13844180225E+03  0.00000000000E+00 0.  1.
         25    2    1    2    0    0  0.16085014512E+03 -0.46871139439E+02  0.23869565582E+03  0.31732193307E+03  0.12509164722E+03 0.  0.
          5    1    3    3  502    0  0.10250863754E+03 -0.61594336819E+02  0.71075221512E+02  0.13917989299E+03  0.41800000000E+01 0. -1.
         -5    1    3    3    0  502  0.58341507575E+02  0.14723197380E+02  0.16762043431E+03  0.17814204008E+03  0.41800000000E+01 0. -1.
        -11    1    1    2    0    0 -0.52716522274E+02  0.19452703694E+02 -0.46276083379E+02  0.72793648724E+02  0.00000000000E+00 0.  1.
         11    1    1    2    0    0 -0.10813362285E+03  0.27418435745E+02  0.38983225672E+02  0.11817082082E+03  0.00000000000E+00 0. -1.
</event>
<event>
 7    1  0.2943257E-009  0.2095509E+03  0.7561462E-02  0.1141922E+00
         -4   -1    0    0    0  501 -0.00000000000E+00  0.00000000000E+00  0.38647359745E+03  0.38647359745E+03  0.00000000000E+00 0.  1.
          4   -1    0    0  501    0  0.00000000000E+00 -0.00000000000E+00 -0.12861724084E+03  0.12861724084E+03  0.00000000000E+00 0. -1.
         25    2    1    2    0    0 -0.17169235916E+03 -0.91640309338E+02  0.12638273551E+03  0.26362321950E+03  0.12509353915E+03 0.  0.
          5    1    3    3  502    0 -0.46698133212E+02 -0.85162301544E+02  0.19878277121E+02  0.99226768319E+02  0.41800000000E+01 0.  1.
         -5    1    3    3    0  502 -0.12499422594E+03 -0.64780077944E+01  0.10650445839E+03  0.16439645118E+03  0.41800000000E+01 0.  1.
        -11    1    1    2    0    0  0.86338694824E+02  0.62028181023E+02  0.20329542046E+02  0.10823657305E+03  0.00000000000E+00 0. -1.
         11    1    1    2    0    0  0.85353664332E+02  0.29612128316E+02  0.11114407905E+03  0.14323104575E+03  0.00000000000E+00 0.  1.
</event>
<event>
 7    1  0.2943257E-009  0.5022442E+02  0.7561462E-02  0.1444135E+00
          1   -1    0    0  501    0  0.00000000000E+00  0.00000000000E+00  0.18641739839E+03  0.18641739839E+03  0.00000000000E+00 0. -1.
         -1   -1    0    0    0  501 -0.00000000000E+00 -0.00000000000E+00 -0.68251748406E+02  0.68251748406E+02  0.00000000000E+00 0.  1.
         25    2    1    2    0    0  0.18701330727E+02 -0.21652557484E+02  0.80609744016E+02  0.15153890737E+03  0.12509011391E+03 0.  0.
          5    1    3    3  502    0  0.39814825945E+02 -0.21851546043E+02 -0.19162702049E+02  0.49471122681E+02  0.41800000000E+01 0.  1.
         -5    1    3    3    0  502 -0.21113495218E+02  0.19898855916E+00  0.99772446065E+02  0.10206778469E+03  0.41800000000E+01 0.  1.
        -11    1    1    2    0    0 -0.56632243179E+01  0.19240002006E+02 -0.29003687016E+02  0.35262779915E+02  0.00000000000E+00 0.  1.
         11    1    1    2    0    0 -0.13038106409E+02  0.24125554783E+01  0.66559592981E+02  0.67867459511E+02  0.00000000000E+00 0. -1.
</event>
<event>
 7    1  0.2943257E-009  0.9503231E+02  0.7561462E-02  0.1291103E+00
          2   -1    0    0  501    0  0.00000000000E+00  0.00000000000E+00  0.43831793547E+03  0.43831793547E+03  0.00000000000E+00 0. -1.
         -2   -1    0    0    0  501 -0.00000000000E+00 -0.00000000000E+00 -0.39255185210E+02  0.39255185210E+02  0.00000000000E+00 0.  1.
         25    2    1    2    0    0 -0.65343270771E+02 -0.71916565109E+01  0.28839699643E+03  0.32115759827E+03  0.12509161610E+03 0.  0.
          5    1    3    3  502    0 -0.73286799680E+02 -0.28497280413E+02  0.82798634371E+02  0.11426345108E+03  0.41800000000E+01 0. -1.
         -5    1    3    3    0  502  0.79435289088E+01  0.21305623902E+02  0.20559836206E+03  0.20689414720E+03  0.41800000000E+01 0. -1.
        -11    1    1    2    0    0  0.30689964063E+02  0.32946438153E+02  0.10320551437E+03  0.11259982184E+03  0.00000000000E+00 0. -1.
         11    1    1    2    0    0  0.34653306708E+02 -0.25754781642E+02  0.74602394495E+01  0.43815700564E+02  0.00000000000E+00 0.  1.
</event>
<event>
 7    1  0.2943257E-009  0.2123069E+03  0.7561462E-02  0.1139752E+00
          2   -1    0    0  501    0  0.00000000000E+00  0.00000000000E+00  0.76959246636E+03  0.76959246636E+03  0.00000000000E+00 0. -1.
         -2   -1    0    0    0  501 -0.00000000000E+00 -0.00000000000E+00 -0.68914209210E+02  0.68914209210E+02  0.00000000000E+00 0.  1.
         25    2    1    2    0    0  0.46082027789E+02  0.19379726441E+03  0.43159198079E+03  0.49152767574E+03  0.12508751000E+03 0.  0.
          5    1    3    3  502    0 -0.32929016429E+02  0.51276790641E+02  0.59394405021E+02  0.85198574690E+02  0.41800000000E+01 0. -1.
         -5    1    3    3    0  502  0.79011044217E+02  0.14252047377E+03  0.37219757577E+03  0.40632910105E+03  0.41800000000E+01 0. -1.
        -11    1    1    2    0    0 -0.34417160801E+02 -0.17534445677E+03  0.17397421859E+03  0.24939376137E+03  0.00000000000E+00 0.  1.
         11    1    1    2    0    0 -0.11664866987E+02 -0.18452807638E+02  0.95112057773E+02  0.97585238460E+02  0.00000000000E+00 0. -1.
</event>
<event>
 7    1  0.2943257E-009  0.7536471E+02  0.7561462E-02  0.1342745E+00
         -4   -1    0    0    0  501 -0.00000000000E+00  0.00000000000E+00  0.31796614119E+03  0.31796614119E+03  0.00000000000E+00 0.  1.
          4   -1    0    0  501    0  0.00000000000E+00 -0.00000000000E+00 -0.56284214411E+02  0.56284214411E+02  0.00000000000E+00 0. -1.
         25    2    1    2    0    0  0.21588876985E+02  0.20200569001E+02  0.24521182580E+03  0.27685834718E+03  0.12509021660E+03 0.  0.
          5    1    3    3  502    0  0.44809563196E+02  0.54761772780E+02  0.82103630330E+02  0.10846763215E+03  0.41800000000E+01 0. -1.
         -5    1    3    3    0  502 -0.23220686211E+02 -0.34561203779E+02  0.16310819547E+03  0.16839071502E+03  0.41800000000E+01 0. -1.
        -11    1    1    2    0    0  0.12628836910E+01 -0.14358902346E+02 -0.36589348125E+02  0.39326242486E+02  0.00000000000E+00 0. -1.
         11    1    1    2    0    0 -0.22851760676E+02 -0.58416666546E+01  0.53059449097E+02  0.58065765937E+02  0.00000000000E+00 0.  1.
</event>
<event>
 7    1  0.2943257E-009  0.9101195E+02  0.7561462E-02  0.1300419E+00
          2   -1    0    0  501    0  0.00000000000E+00  0.00000000000E+00  0.22613509486E+03  0.22613509486E+03  0.00000000000E+00 0.  1.
         -2   -1    0    0    0  501 -0.00000000000E+00 -0.00000000000E+00 -0.54532234594E+02  0.54532234594E+02  0.00000000000E+00 0. -1.
         25    2    1    2    0    0 -0.21352543077E+02  0.95129315556E+01  0.83240936231E+02  0.15205716973E+03  0.12508358181E+03 0.  0.
          5    1    3    3  502    0 -0.67275064476E+02  0.32339068049E+02  0.39667454585E+02  0.84632907169E+02  0.41800000000E+01 0. -1.
         -5    1    3    3    0  502  0.45922521399E+02 -0.22826136494E+02  0.43573481646E+02  0.67424262559E+02  0.41800000000E+01 0. -1.
        -11    1    1    2    0    0  0.26398700270E+02 -0.26909560495E+02  0.10014253690E+03  0.10700253977E+03  0.00000000000E+00 0.  1.
         11    1    1    2    0    0 -0.50461571924E+01  0.17396628939E+02 -0.11780612858E+02  0.21607619956E+02  0.00000000000E+00 0. -1.
</event>
<event>
 7    1  0.2943257E-009  0.2540311E+03  0.7561462E-02  0.1110783E+00
         -2   -1    0    0    0  501 -0.00000000000E+00  0.00000000000E+00  0.26613780032E+03  0.26613780032E+03  0.00000000000E+00 0.  1.
          2   -1    0    0  501    0  0.00000000000E+00 -0.00000000000E+00 -0.29493553687E+03  0.29493553687E+03  0.00000000000E+00 0. -1.
         25    2    1    2    0    0 -0.15824037360E+03 -0.19636805544E+03 -0.17845992372E+02  0.28207578150E+03  0.12509131876E+03 0.  0.
          5    1    3    3  502    0 -0.14297406788E+03 -0.17967367508E+03  0.27432524210E+02  0.23128819552E+03  0.41800000000E+01 0.  1.
         -5    1    3    3    0  502 -0.15266305729E+02 -0.16694380365E+02 -0.45278516582E+02  0.50787585985E+02  0.41800000000E+01 0.  1.
        -11    1    1    2    0    0  0.14453842793E+03  0.15551411612E+03  0.35920311158E+02  0.21532827546E+03  0.00000000000E+00 0.  1.
         11    1    1    2    0    0  0.13701945679E+02  0.40853939324E+02 -0.46872055331E+02  0.63669280227E+02  0.00000000000E+00 0. -1.
</event>
<event>
 7    1  0.2943257E-009  0.1016807E+03  0.7561462E-02  0.1276801E+00
         -1   -1    0    0    0  501 -0.00000000000E+00  0.00000000000E+00  0.40113978737E+02  0.40113978737E+02  0.00000000000E+00 0.  1.
          1   -1    0    0  501    0  0.00000000000E+00 -0.00000000000E+00 -0.31301824373E+03  0.31301824373E+03  0.00000000000E+00 0. -1.
         25    2    1    2    0    0  0.23939025910E+02 -0.13623554969E+02 -0.15179849262E+03  0.19862785241E+03  0.12510620760E+03 0.  0.
          5    1    3    3  502    0  0.68152739019E+02 -0.23118700723E+02 -0.51706456155E+02  0.88714712236E+02  0.41800000000E+01 0.  1.
         -5    1    3    3    0  502 -0.44213713109E+02  0.94951457541E+01 -0.10009203647E+03  0.10991314018E+03  0.41800000000E+01 0.  1.
        -11    1    1    2    0    0 -0.44953514507E+02 -0.17554438201E+02 -0.32311221569E+02  0.58077463843E+02  0.00000000000E+00 0.  1.
         11    1    1    2    0    0  0.21014488597E+02  0.31177993171E+02 -0.88794550804E+02  0.96426906212E+02  0.00000000000E+00 0. -1.
</event>
<event>
 7    1  0.2943257E-009  0.7694057E+02  0.7561462E-02  0.1337965E+00
         -1   -1    0    0    0  501 -0.00000000000E+00  0.00000000000E+00  0.47792993790E+02  0.47792993790E+02  0.00000000000E+00 0.  1.
          1   -1    0    0  501    0  0.00000000000E+00 -0.00000000000E+00 -0.37718622171E+03  0.37718622171E+03  0.00000000000E+00 0. -1.
         25    2    1    2    0    0 -0.15897885588E+02 -0.21893946854E+02 -0.63977410146E+02  0.14308247577E+03  0.12508956067E+03 0.  0.
          5    1    3    3  502    0 -0.36411350129E+02 -0.10172589166E+02  0.28509218482E+02  0.47534365748E+02  0.41800000000E+01 0. -1.
         -5    1    3    3    0  502  0.20513464541E+02 -0.11721357689E+02 -0.92486628629E+02  0.95548110021E+02  0.41800000000E+01 0. -1.
        -11    1    1    2    0    0  0.38446125884E+02 -0.20695182925E+02 -0.90784584966E+02  0.10073845373E+03  0.00000000000E+00 0.  1.
         11    1    1    2    0    0 -0.22548240296E+02  0.42589129780E+02 -0.17463123281E+03  0.18115828600E+03  0.00000000000E+00 0. -1.
</event>
<event>
 7    1  0.2943257E-009  0.2038249E+03  0.7561462E-02  0.1146551E+00
         -1   -1    0    0    0  501 -0.00000000000E+00  0.00000000000E+00  0.42174724298E+02  0.42174724298E+02  0.00000000000E+00 0.  1.
          1   -1    0    0  501    0  0.00000000000E+00 -0.00000000000E+00 -0.13545560977E+04  0.13545560977E+04  0.00000000000E+00 0. -1.
         25    2    1    2    0    0  0.14167744821E+03 -0.11623748151E+03 -0.98964741736E+03  0.10142153940E+04  0.12508878131E+03 0.  0.
          5    1    3    3  502    0  0.29900127667E+02  0.21579753975E+02 -0.29172249571E+03  0.29407344375E+03  0.41800000000E+01 0. -1.
         -5    1    3    3    0  502  0.11177732054E+03 -0.13781723549E+03 -0.69792492165E+03  0.72014195020E+03  0.41800000000E+01 0. -1.
        -11    1    1    2    0    0 -0.75696572693E+02  0.23562804403E+02 -0.71641672131E+02  0.10685366655E+03  0.00000000000E+00 0.  1.
         11    1    1    2    0    0 -0.65980875516E+02  0.92674677110E+02 -0.25109228392E+03  0.27566176150E+03  0.00000000000E+00 0. -1.
</event>
<event>
 7    1  0.2943257E-009  0.1284435E+03  0.7561462E-02  0.1229784E+00
         -3   -1    0    0    0  501 -0.00000000000E+00  0.00000000000E+00  0.10860800040E+03  0.10860800040E+03  0.00000000000E+00 0.  1.
          3   -1    0    0  501    0  0.00000000000E+00 -0.00000000000E+00 -0.18591980418E+03  0.18591980418E+03  0.00000000000E+00 0. -1.
         25    2    1    2    0    0 -0.89324194604E+02  0.99298896080E+01 -0.18349677253E+02  0.15511760826E+03  0.12508935722E+03 0.  0.
          5    1    3    3  502    0 -0.10368146802E+03  0.31273530069E+02 -0.45449572250E+02  0.11752028127E+03  0.41800000000E+01 0.  1.
         -5    1    3    3    0  502  0.14357273412E+02 -0.21343640461E+02  0.27099894997E+02  0.37597326990E+02  0.41800000000E+01 0.  1.
        -11    1    1    2    0    0  0.18578070544E+02  0.34305637703E+02 -0.33897416479E+01  0.39160079568E+02  0.00000000000E+00 0.  1.
         11    1    1    2    0    0  0.70746124061E+02 -0.44235527311E+02 -0.55572384878E+02  0.10025011674E+03  0.00000000000E+00 0. -1.
</event>
<event>
 7    1  0.2943257E-009  0.1073735E+03  0.7561462E-02  0.1265513E+00
          1   -1    0    0  501    0  0.00000000000E+00  0.00000000000E+00  0.12233799976E+03  0.12233799976E+03  0.00000000000E+00 0. -1.
         -1   -1    0    0    0  501 -0.00000000000E+00 -0.00000000000E+00 -0.13919671886E+03  0.13919671886E+03  0.00000000000E+00 0.  1.
         25    2    1    2    0    0  0.31232508512E+01  0.69678514183E+02 -0.29066271498E+02  0.14614311027E+03  0.12509240787E+03 0.  0.
          5    1    3    3  502    0  0.47980720470E+02  0.51044294161E+02  0.23916401460E+02  0.74142674365E+02  0.41800000000E+01 0. -1.
         -5    1    3    3    0  502 -0.44857469619E+02  0.18634220022E+02 -0.52982672958E+02  0.72000435903E+02  0.41800000000E+01 0. -1.
        -11    1    1    2    0    0  0.10422617558E+02  0.10325628856E+02  0.29026882484E+02  0.32523983071E+02  0.00000000000E+00 0. -1.
         11    1    1    2    0    0 -0.13545868410E+02 -0.80004143039E+02 -0.16819330085E+02  0.82867625276E+02  0.00000000000E+00 0.  1.
</event>
<event>
 7    1  0.2943257E-009  0.8142078E+02  0.7561462E-02  0.1325067E+00
          1   -1    0    0  501    0  0.00000000000E+00  0.00000000000E+00  0.98805603747E+02  0.98805603747E+02  0.00000000000E+00 0. -1.
         -1   -1    0    0    0  501 -0.00000000000E+00 -0.00000000000E+00 -0.12102145220E+03  0.12102145220E+03  0.00000000000E+00 0.  1.
         25    2    1    2    0    0 -0.28059254495E+02  0.51998727150E+01 -0.93467156328E+01  0.12864306431E+03  0.12508923400E+03 0.  0.
          5    1    3    3  502    0 -0.39221255205E+02 -0.47344901687E+02  0.23028495822E+02  0.65784729196E+02  0.41800000000E+01 0.  1.
         -5    1    3    3    0  502  0.11162000710E+02  0.52544774402E+02 -0.32375211455E+02  0.62858335116E+02  0.41800000000E+01 0.  1.
        -11    1    1    2    0    0 -0.85847556640E+01 -0.63491042965E+01 -0.42640145500E+02  0.43956696458E+02  0.00000000000E+00 0.  1.
         11    1    1    2    0    0  0.36644010159E+02  0.11492315815E+01  0.29771012680E+02  0.47227295177E+02  0.00000000000E+00 0. -1.
</event>
<event>
 7    1  0.2943257E-009  0.1054328E+03  0.7561462E-02  0.1269269E+00
         -1   -1    0    0    0  501 -0.00000000000E+00  0.00000000000E+00  0.17574201450E+02  0.17574201450E+02  0.00000000000E+00 0.  1.
          1   -1    0    0  501    0  0.00000000000E+00 -0.00000000000E+00 -0.80824799351E+03  0.80824799351E+03  0.00000000000E+00 0. -1.
         25    2    1    2    0    0 -0.35365916803E+02 -0.28130472414E+02 -0.55138128238E+03  0.56719555234E+03  0.12508958583E+03 0.  0.
          5    1    3    3  502    0  0.32151615167E+02 -0.51976631281E+02 -0.24972605652E+03  0.25713006877E+03  0.41800000000E+01 0.  1.
         -5    1    3    3    0  502 -0.67517531970E+02  0.23846158867E+02 -0.30165522586E+03  0.31006548357E+03  0.41800000000E+01 0.  1.
        -11    1    1    2    0    0 -0.12533631148E+02  0.27224211775E+02 -0.24954343906E+02  0.38999601233E+02  0.00000000000E+00 0.  1.
         11    1    1    2    0    0  0.47899547951E+02  0.90626063919E+00 -0.21433816577E+03  0.21962704139E+03  0.00000000000E+00 0. -1.
</event>
<event>
 7    1  0.2943257E-009  0.3352021E+03  0.7561462E-02  0.1068858E+00
          1   -1    0    0  501    0  0.00000000000E+00  0.00000000000E+00  0.12584855774E+04  0.12584855774E+04  0.00000000000E+00 0. -1.
         -1   -1    0    0    0  501 -0.00000000000E+00 -0.00000000000E+00 -0.12346932069E+03  0.12346932069E+03  0.00000000000E+00 0.  1.
         25    2    1    2    0    0 -0.13781486649E+03 -0.29548109604E+03  0.91166834131E+03  0.97626254836E+03  0.12508950087E+03 0.  0.
          5    1    3    3  502    0 -0.10411552267E+03 -0.27597896009E+03  0.87189494202E+03  0.92044700597E+03  0.41800000000E+01 0.  1.
         -5    1    3    3    0  502 -0.33699343826E+02 -0.19502135949E+02  0.39773399292E+02  0.55815542389E+02  0.41800000000E+01 0.  1.
        -11    1    1    2    0    0  0.92181978010E+02  0.10209573668E+03  0.67817112086E+02  0.15336302426E+03  0.00000000000E+00 0.  1.
         11    1    1    2    0    0  0.45632888485E+02  0.19338535936E+03  0.15553080334E+03  0.25232932551E+03  0.00000000000E+00 0. -1.
</event>
<event>
 7    1  0.2943257E-009  0.2839332E+03  0.7561462E-02  0.1093560E+00
          2   -1    0    0  501    0  0.00000000000E+00  0.00000000000E+00  0.76395350841E+03  0.76395350841E+03  0.00000000000E+00 0. -1.
         -2   -1    0    0    0  501 -0.00000000000E+00 -0.00000000000E+00 -0.12383407672E+03  0.12383407672E+03  0.00000000000E+00 0.  1.
         25    2    1    2    0    0 -0.26158536348E+03  0.77775180594E+02  0.45667065757E+03  0.54650829321E+03  0.12508934389E+03 0.  0.
          5    1    3    3  502    0 -0.19271153409E+03  0.10640979577E+03  0.29221364000E+03  0.36587848229E+03  0.41800000000E+01 0. -1.
         -5    1    3    3    0  502 -0.68873829398E+02 -0.28634615173E+02  0.16445701757E+03  0.18062981091E+03  0.41800000000E+01 0. -1.
        -11    1    1    2    0    0  0.11782131172E+03 -0.38458357380E+02  0.30324395289E+02  0.12759496737E+03  0.00000000000E+00 0.  1.
         11    1    1    2    0    0  0.14376405176E+03 -0.39316823214E+02  0.15312437883E+03  0.21368432455E+03  0.00000000000E+00 0. -1.
</event>
<event>
 7    1  0.2943257E-009  0.8668003E+02  0.7561462E-02  0.1311097E+00
          1   -1    0    0  501    0  0.00000000000E+00  0.00000000000E+00  0.41834378472E+03  0.41834378472E+03  0.00000000000E+00 0.  1.
         -1   -1    0    0    0  501 -0.00000000000E+00 -0.00000000000E+00 -0.36248118973E+02  0.36248118973E+02  0.00000000000E+00 0. -1.
         25    2    1    2    0    0 -0.50868576405E+02 -0.26242581867E+02  0.22587719978E+03  0.26447354770E+03  0.12509781326E+03 0.  0.
          5    1    3    3  502    0 -0.59944126723E+02 -0.17118954606E+02  0.32136294547E+02  0.70260734145E+02  0.41800000000E+01 0.  1.
         -5    1    3    3    0  502  0.90755503177E+01 -0.91236272608E+01  0.19374090524E+03  0.19421281356E+03  0.41800000000E+01 0.  1.
        -11    1    1    2    0    0  0.54113009734E+02  0.49816859277E+02  0.14741506417E+03  0.16474567804E+03  0.00000000000E+00 0.  1.
         11    1    1    2    0    0 -0.32444333291E+01 -0.23574277410E+02  0.88034017974E+01  0.25372677948E+02  0.00000000000E+00 0. -1.
</event>
<event>
 7    1  0.2943257E-009  0.1271165E+03  0.7561462E-02  0.1231798E+00
         -1   -1    0    0    0  501 -0.00000000000E+00  0.00000000000E+00  0.40180273078E+02  0.40180273078E+02  0.00000000000E+00 0.  1.
          1   -1    0    0  501    0  0.00000000000E+00 -0.00000000000E+00 -0.62934000894E+03  0.62934000894E+03  0.00000000000E+00 0. -1.
         25    2    1    2    0    0 -0.78896081588E+02  0.28005171429E+02 -0.14798595544E+03  0.21108195550E+03  0.12508743987E+03 0.  0.
          5    1    3    3  502    0 -0.50548425940E+02 -0.45142482827E+02 -0.44613326930E+02  0.81245359625E+02  0.41800000000E+01 0.  1.
         -5    1    3    3    0  502 -0.28347655649E+02  0.73147654256E+02 -0.10337262851E+03  0.12983659588E+03  0.41800000000E+01 0.  1.
        -11    1    1    2    0    0  0.72454530897E+02 -0.47903025272E+02 -0.41919409557E+03  0.42809817640E+03  0.00000000000E+00 0. -1.
         11    1    1    2    0    0  0.64415506912E+01  0.19897853843E+02 -0.21979684849E+02  0.30340150114E+02  0.00000000000E+00 0.  1.
</event>
<event>
 7    1  0.2943257E-009  0.9952311E+02  0.7561462E-02  0.1281302E+00
         -2   -1    0    0    0  501 -0.00000000000E+00  0.00000000000E+00  0.20762880754E+02  0.20762880754E+02  0.00000000000E+00 0.  1.
          2   -1    0    0  501    0  0.00000000000E+00 -0.00000000000E+00 -0.13876610818E+04  0.13876610818E+04  0.00000000000E+00 0. -1.
         25    2    1    2    0    0 -0.86700129646E+02  0.44151617649E+02 -0.10871340891E+04  0.10986247597E+04  0.12509818998E+03 0.  0.
          5    1    3    3  502    0 -0.79762265049E+02  0.37523503613E+02 -0.33531507552E+03  0.34673290084E+03  0.41800000000E+01 0. -1.
         -5    1    3    3    0  502 -0.69378645976E+01  0.66281140364E+01 -0.75181901354E+03  0.75189185884E+03  0.41800000000E+01 0. -1.
        -11    1    1    2    0    0  0.36667668886E+02 -0.54308579208E+01 -0.19357843389E+02  0.41817917929E+02  0.00000000000E+00 0.  1.
         11    1    1    2    0    0  0.50032460760E+02 -0.38720759728E+02 -0.26040626862E+03  0.26798128499E+03  0.00000000000E+00 0. -1.
</event>
<event>
 7    1  0.2943257E-009  0.1114437E+03  0.7561462E-02  0.1257920E+00
         -1   -1    0    0    0  501 -0.00000000000E+00  0.00000000000E+00  0.82353127844E+02  0.82353127844E+02  0.00000000000E+00 0.  1.
          1   -1    0    0  501    0  0.00000000000E+00 -0.00000000000E+00 -0.28734327310E+03  0.28734327310E+03  0.00000000000E+00 0. -1.
         25    2    1    2    0    0 -0.26925121693E+02  0.64599661912E+02 -0.19963979276E+03  0.24577487269E+03  0.12510460701E+03 0.  0.
          5    1    3    3  502    0  0.21356667780E+02  0.42811244280E+02 -0.18432236629E+03  0.19047602739E+03  0.41800000000E+01 0. -1.
         -5    1    3    3    0  502 -0.48281789473E+02  0.21788417632E+02 -0.15317426471E+02  0.55298845298E+02  0.41800000000E+01 0. -1.
        -11    1    1    2    0    0 -0.35095944547E+02 -0.44196989029E+02 -0.13764145986E+02  0.58090884634E+02  0.00000000000E+00 0. -1.
         11    1    1    2    0    0  0.62021066240E+02 -0.20402672883E+02  0.84137934941E+01  0.65830643619E+02  0.00000000000E+00 0.  1.
</event>
<event>
 7    1  0.2943257E-009  0.1280884E+03  0.7561462E-02  0.1230320E+00
         -1   -1    0    0    0  501 -0.00000000000E+00  0.00000000000E+00  0.80513906857E+02  0.80513906857E+02  0.00000000000E+00 0.  1.
          1   -1    0    0  501    0  0.00000000000E+00 -0.00000000000E+00 -0.24337443568E+03  0.24337443568E+03  0.00000000000E+00 0. -1.
         25    2    1    2    0    0  0.38576625190E+02 -0.63504887001E+02 -0.13876174110E+03  0.20105467627E+03  0.12508851015E+03 0.  0.
          5    1    3    3  502    0 -0.10771114282E+02  0.32123549061E+02 -0.15848349564E+02  0.37637506441E+02  0.41800000000E+01 0.  1.
         -5    1    3    3    0  502  0.49347739473E+02 -0.95628436062E+02 -0.12291339154E+03  0.16341716983E+03  0.41800000000E+01 0.  1.
        -11    1    1    2    0    0 -0.64569566710E+02  0.59955407012E+02 -0.13708135229E+01  0.88123543420E+02  0.00000000000E+00 0.  1.
         11    1    1    2    0    0  0.25992941520E+02  0.35494799892E+01 -0.22727974196E+02  0.34710122848E+02  0.00000000000E+00 0. -1.
</event>
<event>
 7    1  0.2943257E-009  0.9747385E+02  0.7561462E-02  0.1285700E+00
          2   -1    0    0  501    0  0.00000000000E+00  0.00000000000E+00  0.27643535119E+03  0.27643535119E+03  0.00000000000E+00 0. -1.
         -2   -1    0    0    0  501 -0.00000000000E+00 -0.00000000000E+00 -0.71752639414E+02  0.71752639414E+02  0.00000000000E+00 0.  1.
         25    2    1    2    0    0  0.82895920158E+02  0.11438154864E+02  0.12611085521E+03  0.19634779181E+03  0.12508374228E+03 0.  0.
          5    1    3    3  502    0  0.17093742840E+01  0.34666122549E+01  0.11356305505E+03  0.11370566931E+03  0.41800000000E+01 0.  1.
         -5    1    3    3    0  502  0.81186545874E+02  0.79715426089E+01  0.12547800156E+02  0.82642122500E+02  0.41800000000E+01 0.  1.
        -11    1    1    2    0    0 -0.89759008545E+02 -0.24301799900E+02  0.24961445512E+02  0.96282557379E+02  0.00000000000E+00 0.  1.
         11    1    1    2    0    0  0.68630883869E+01  0.12863645037E+02  0.53610411052E+02  0.55557641409E+02  0.00000000000E+00 0. -1.
</event>
<event>
 7    1  0.2943257E-009  0.1791602E+03  0.7561462E-02  0.1168618E+00
         -2   -1    0    0    0  501 -0.00000000000E+00  0.00000000000E+00  0.20173439599E+03  0.20173439599E+03  0.00000000000E+00 0.  1.
          2   -1    0    0  501    0  0.00000000000E+00 -0.00000000000E+00 -0.20628046356E+03  0.20628046356E+03  0.00000000000E+00 0. -1.
         25    2    1    2    0    0 -0.13525820741E+03 -0.44365855595E+02 -0.99342556731E+02  0.21396071421E+03  0.12508849600E+03 0.  0.
          5    1    3    3  502    0 -0.90333766373E+02  0.35992323900E+02 -0.52229682298E+02  0.11045835794E+03  0.41800000000E+01 0.  1.
         -5    1    3    3    0  502 -0.44924441037E+02 -0.80358179495E+02 -0.47112874433E+02  0.10350235626E+03  0.41800000000E+01 0.  1.
        -11    1    1    2    0    0  0.45638982028E+02  0.62507067676E+02  0.50842815597E+02  0.92601523140E+02  0.00000000000E+00 0.  1.
         11    1    1    2    0    0  0.89619225382E+02 -0.18141212081E+02  0.43953673558E+02  0.10145262221E+03  0.00000000000E+00 0. -1.
</event>
<event>
 7    1  0.2943257E-009  0.1309743E+03  0.7561462E-02  0.1226017E+00
          2   -1    0    0  501    0  0.00000000000E+00  0.00000000000E+00  0.11926788272E+03  0.11926788272E+03  0.00000000000E+00 0. -1.
         -2   -1    0    0    0  501 -0.00000000000E+00 -0.00000000000E+00 -0.21916243980E+03  0.21916243980E+03  0.00000000000E+00 0.  1.
         25    2    1    2    0    0  0.89874089461E+02 -0.59156560737E+02 -0.10574007018E+03  0.19597394919E+03  0.12509186898E+03 0.  0.
          5    1    3    3  502    0 -0.68452753027E+01 -0.17991343073E+02  0.22632058875E+02  0.30003811565E+02  0.41800000000E+01 0.  1.
         -5    1    3    3    0  502  0.96719364764E+02 -0.41165217664E+02 -0.12837212905E+03  0.16597013762E+03  0.41800000000E+01 0.  1.
        -11    1    1    2    0    0 -0.32300062477E+02 -0.20878213896E+02  0.19161823653E+02  0.42969400010E+02  0.00000000000E+00 0. -1.
         11    1    1    2    0    0 -0.57574026984E+02  0.80034774633E+02 -0.13316310548E+02  0.99486973320E+02  0.00000000000E+00 0.  1.
</event>
<event>
 7    1  0.2943257E-009  0.1992706E+03  0.7561462E-02  0.1150356E+00
         -1   -1    0    0    0  501 -0.00000000000E+00  0.00000000000E+00  0.34862194117E+03  0.34862194117E+03  0.00000000000E+00 0.  1.
          1   -1    0    0  501    0  0.00000000000E+00 -0.00000000000E+00 -0.27069626109E+03  0.27069626109E+03  0.00000000000E+00 0. -1.
         25    2    1    2    0    0 -0.14872350569E+03  0.98269623361E+02 -0.18690190553E+03  0.28697574379E+03  0.12508858947E+03 0.  0.
          5    1    3    3  502    0 -0.15683816817E+03  0.58008469404E+02 -0.11155405326E+03  0.20105962478E+03  0.41800000000E+01 0.  1.
         -5    1    3    3    0  502  0.81146624817E+01  0.40261153957E+02 -0.75347852264E+02  0.85916119011E+02  0.41800000000E+01 0.  1.
        -11    1    1    2    0    0  0.25332608417E+02 -0.52654640793E+02  0.13688215159E+03  0.14883203845E+03  0.00000000000E+00 0.  1.
         11    1    1    2    0    0  0.12339089727E+03 -0.45614982568E+02  0.12794543403E+03  0.18351042001E+03  0.00000000000E+00 0. -1.
</event>
<event>
 7    1  0.2943257E-009  0.1734805E+03  0.7561462E-02  0.1174266E+00
          1   -1    0    0  501    0  0.00000000000E+00  0.00000000000E+00  0.29784596930E+03  0.29784596930E+03  0.00000000000E+00 0. -1.
         -1   -1    0    0    0  501 -0.00000000000E+00 -0.00000000000E+00 -0.11480304965E+03  0.11480304965E+03  0.00000000000E+00 0.  1.
         25    2    1    2    0    0 -0.14426413706E+03  0.14842543225E+02  0.62788928098E+02  0.20155015494E+03  0.12509025995E+03 0.  0.
          5    1    3    3  502    0  0.37018707966E+01 -0.27040474731E+02 -0.12464459897E+02  0.30293997452E+02  0.41800000000E+01 0. -1.
         -5    1    3    3    0  502 -0.14796600785E+03  0.41883017955E+02  0.75253387995E+02  0.17125615749E+03  0.41800000000E+01 0. -1.
        -11    1    1    2    0    0 -0.76573367020E+01  0.89081964547E+01  0.31355325300E+02  0.33483536165E+02  0.00000000000E+00 0. -1.
         11    1    1    2    0    0  0.15192147376E+03 -0.23750739679E+02  0.88898666257E+02  0.17761532785E+03  0.00000000000E+00 0.  1.
</event>
<event>
 7    1  0.2943257E-009  0.3744474E+03  0.7561462E-02  0.1053005E+00
          2   -1    0    0  501    0  0.00000000000E+00  0.00000000000E+00  0.19868340863E+04  0.19868340863E+04  0.00000000000E+00 0. -1.
         -2   -1    0    0    0  501 -0.00000000000E+00 -0.00000000000E+00 -0.77242779412E+02  0.77242779412E+02  0.00000000000E+00 0.  1.
         25    2    1    2    0    0  0.29764705208E+03  0.20340009842E+03  0.68801253568E+03  0.78674872185E+03  0.12508770694E+03 0.  0.
          5    1    3    3  502    0  0.13096803705E+03  0.16436646201E+03  0.36827721623E+03  0.42404544680E+03  0.41800000000E+01 0. -1.
         -5    1    3    3    0  502  0.16667901502E+03  0.39033636410E+02  0.31973531946E+03  0.36270327505E+03  0.41800000000E+01 0. -1.
        -11    1    1    2    0    0 -0.10364986515E+03 -0.11327395230E+03  0.40288905668E+03  0.43115411955E+03  0.00000000000E+00 0.  1.
         11    1    1    2    0    0 -0.19399718693E+03 -0.90126146123E+02  0.81868971454E+03  0.84617402433E+03  0.00000000000E+00 0. -1.
</event>
<event>
 7    1  0.3596370E-009  0.1539108E+03  0.7561462E-02  0.1195748E+00
         -1   -1    0    0    0  501 -0.00000000000E+00  0.00000000000E+00  0.22211630508E+03  0.22211630508E+03  0.00000000000E+00 0.  1.
          1   -1    0    0  501    0  0.00000000000E+00 -0.00000000000E+00 -0.11385962352E+03  0.11385962352E+03  0.00000000000E+00 0. -1.
         25    2    1    2    0    0  0.48790088485E+00  0.11377447285E+03  0.82103203391E+02  0.18797091216E+03  0.12508900468E+03 0.  0.
          5    1    3    3  502    0  0.46910325856E+02  0.10472407134E+03  0.80920706566E+02  0.14047541757E+03  0.41800000000E+01 0.  1.
         -5    1    3    3    0  502 -0.46422424971E+02  0.90504015047E+01  0.11824968254E+01  0.47495494589E+02  0.41800000000E+01 0.  1.
        -11    1    1    2    0    0  0.44436081552E+02 -0.69126976649E+02  0.11308833759E+02  0.82951756855E+02  0.00000000000E+00 0.  1.
         11    1    1    2    0    0 -0.44923982437E+02 -0.44647496200E+02  0.14844644416E+02  0.65053259586E+02  0.00000000000E+00 0. -1.
</event>
<event>
 7    1  0.2943257E-009  0.8954524E+02  0.7561462E-02  0.1303957E+00
          3   -1    0    0  501    0  0.00000000000E+00  0.00000000000E+00  0.47060526595E+02  0.47060526595E+02  0.00000000000E+00 0. -1.
         -3   -1    0    0    0  501 -0.00000000000E+00 -0.00000000000E+00 -0.32531981502E+03  0.32531981502E+03  0.00000000000E+00 0.  1.
         25    2    1    2    0    0 -0.19636880797E+02 -0.55036268436E+02 -0.13298176609E+03  0.19169329754E+03  0.12509025654E+03 0.  0.
          5    1    3    3  502    0  0.14096037064E+02 -0.34213084217E+02 -0.14528045661E+03  0.14997705446E+03  0.41800000000E+01 0.  1.
         -5    1    3    3    0  502 -0.33732917862E+02 -0.20823184219E+02  0.12298690522E+02  0.41716243084E+02  0.41800000000E+01 0.  1.
        -11    1    1    2    0    0  0.15869817187E+01 -0.22410968627E+02 -0.11956363987E+02  0.25450435469E+02  0.00000000000E+00 0.  1.
         11    1    1    2    0    0  0.18049899079E+02  0.77447237062E+02 -0.13332115835E+03  0.15523660860E+03  0.00000000000E+00 0. -1.
</event>
<event>
 6    1  0.2943257E-009  0.1261845E+03  0.7561462E-02  0.1233230E+00
          1   -1    0    0  501    0  0.00000000000E+00  0.00000000000E+00  0.18476686107E+03  0.18476686107E+03  0.00000000000E+00 0. -1.
         -1   -1    0    0    0  501 -0.00000000000E+00 -0.00000000000E+00 -0.14560054160E+03  0.14560054160E+03  0.00000000000E+00 0.  1.
          5    1    1    2  502    0 -0.10610214858E+03 -0.38206995658E+02 -0.54247230811E+02  0.12521052232E+03  0.41800000000E+01 0. -1.
         -5    1    1    2    0  502 -0.10292367459E+02  0.15672966552E+02  0.43874111714E+02  0.47895561247E+02  0.41800000000E+01 0. -1.
        -11    1    1    2    0    0  0.75641302335E+02  0.45898495367E+01 -0.16553718522E+02  0.77567383188E+02  0.00000000000E+00 0.  1.
         11    1    1    2    0    0  0.40753213700E+02  0.17944179570E+02  0.66093157084E+02  0.79693935909E+02  0.00000000000E+00 0. -1.
</event>
<event>
 7    1  0.2943257E-009  0.1921768E+03  0.7561462E-02  0.1156513E+00
          1   -1    0    0  501    0  0.00000000000E+00  0.00000000000E+00  0.11762331860E+04  0.11762331860E+04  0.00000000000E+00 0. -1.
         -1   -1    0    0    0  501 -0.00000000000E+00 -0.00000000000E+00 -0.38278859846E+02  0.38278859846E+02  0.00000000000E+00 0.  1.
         25    2    1    2    0    0 -0.12800946758E+03  0.12794645852E+03  0.55228754735E+03  0.59449590704E+03  0.12508848266E+03 0.  0.
          5    1    3    3  502    0 -0.72987429759E+02  0.77090266006E+02  0.47513357814E+03  0.48686698747E+03  0.41800000000E+01 0.  1.
         -5    1    3    3    0  502 -0.55022037821E+02  0.50856192511E+02  0.77153969210E+02  0.10762891957E+03  0.41800000000E+01 0.  1.
        -11    1    1    2    0    0  0.41789308602E+02  0.75505811125E+01  0.10668460437E+03  0.11482579152E+03  0.00000000000E+00 0.  1.
         11    1    1    2    0    0  0.86220158977E+02 -0.13549703963E+03  0.47898217443E+03  0.50519034727E+03  0.00000000000E+00 0. -1.
</event>
<event>
 7    1  0.2943257E-009  0.1503011E+03  0.7561462E-02  0.1200104E+00
         -2   -1    0    0    0  501 -0.00000000000E+00  0.00000000000E+00  0.29431983537E+02  0.29431983537E+02  0.00000000000E+00 0.  1.
          2   -1    0    0  501    0  0.00000000000E+00 -0.00000000000E+00 -0.91334334703E+03  0.91334334703E+03  0.00000000000E+00 0. -1.
         25    2    1    2    0    0 -0.65459302027E+02 -0.10187888730E+03 -0.56016860564E+03  0.58659344552E+03  0.12505509063E+03 0.  0.
          5    1    3    3  502    0  0.11239671902E+02 -0.93117414107E+02 -0.35920444300E+03  0.37127144693E+03  0.41800000000E+01 0.  1.
         -5    1    3    3    0  502 -0.76698973929E+02 -0.87614731885E+01 -0.20096416264E+03  0.21532199859E+03  0.41800000000E+01 0.  1.
        -11    1    1    2    0    0  0.34518439541E+02  0.15854513855E+02 -0.29589758127E+02  0.48150203155E+02  0.00000000000E+00 0.  1.
         11    1    1    2    0    0  0.30940862487E+02  0.86024373440E+02 -0.29415299973E+03  0.30803168189E+03  0.00000000000E+00 0. -1.
</event>
<event>
 7    1  0.2943257E-009  0.9242174E+02  0.7561462E-02  0.1297091E+00
         -4   -1    0    0    0  501 -0.00000000000E+00  0.00000000000E+00  0.98048331791E+02  0.98048331791E+02  0.00000000000E+00 0.  1.
          4   -1    0    0  501    0  0.00000000000E+00 -0.00000000000E+00 -0.13756193376E+03  0.13756193376E+03  0.00000000000E+00 0. -1.
         25    2    1    2    0    0  0.32246875486E+02 -0.25945252467E+02 -0.39759156152E+02  0.13762775848E+03  0.12509033657E+03 0.  0.
          5    1    3    3  502    0  0.57798866162E+02 -0.73060718659E+01  0.26461318402E+02  0.64123017609E+02  0.41800000000E+01 0.  1.
         -5    1    3    3    0  502 -0.25551990676E+02 -0.18639180601E+02 -0.66220474554E+02  0.73504740876E+02  0.41800000000E+01 0.  1.
        -11    1    1    2    0    0 -0.57071463396E+01 -0.31097851043E+02 -0.12126161591E+02  0.33862835879E+02  0.00000000000E+00 0.  1.
         11    1    1    2    0    0 -0.26539729146E+02  0.57043103511E+02  0.12371715779E+02  0.64119671183E+02  0.00000000000E+00 0. -1.
</event>
<event>
 7    1  0.2943257E-009  0.1050848E+03  0.7561462E-02  0.1269953E+00
         -2   -1    0    0    0  501 -0.00000000000E+00  0.00000000000E+00  0.10506882315E+03  0.10506882315E+03  0.00000000000E+00 0.  1.
          2   -1    0    0  501    0  0.00000000000E+00 -0.00000000000E+00 -0.14209886278E+03  0.14209886278E+03  0.00000000000E+00 0. -1.
         25    2    1    2    0    0  0.91581780744E+01 -0.31673758181E+02  0.24770086590E+02  0.13170799179E+03  0.12508532579E+03 0.  0.
          5    1    3    3  502    0 -0.35400821471E+02  0.24473787289E+02  0.39322867495E+02  0.58446083985E+02  0.41800000000E+01 0.  1.
         -5    1    3    3    0  502  0.44558999546E+02 -0.56147545470E+02 -0.14552780905E+02  0.73261907803E+02  0.41800000000E+01 0.  1.
        -11    1    1    2    0    0 -0.42752408485E+02 -0.76253029392E+01 -0.15661284672E+02  0.46164808174E+02  0.00000000000E+00 0. -1.
         11    1    1    2    0    0  0.33594230410E+02  0.39299061120E+02 -0.46138841553E+02  0.69294885970E+02  0.00000000000E+00 0.  1.
</event>
<event>
 7    1  0.2943257E-009  0.9999262E+02  0.7561462E-02  0.1280311E+00
          1   -1    0    0  501    0  0.00000000000E+00  0.00000000000E+00  0.10994416846E+04  0.10994416846E+04  0.00000000000E+00 0. -1.
         -1   -1    0    0    0  501 -0.00000000000E+00 -0.00000000000E+00 -0.15968526242E+02  0.15968526242E+02  0.00000000000E+00 0.  1.
         25    2    1    2    0    0  0.13588993152E+02 -0.72900295202E+02  0.67529799897E+03  0.69077822969E+03  0.12509221167E+03 0.  0.
          5    1    3    3  502    0 -0.23821689163E+02 -0.15829459880E+02  0.29249648828E+02  0.41122488145E+02  0.41800000000E+01 0. -1.
         -5    1    3    3    0  502  0.37410682315E+02 -0.57070835322E+02  0.64604835015E+03  0.64965574154E+03  0.41800000000E+01 0. -1.
        -11    1    1    2    0    0  0.67703735531E+01 -0.12879004324E+02  0.12281350888E+02  0.19040438285E+02  0.00000000000E+00 0.  1.
         11    1    1    2    0    0 -0.20359366705E+02  0.85779299526E+02  0.39589380850E+03  0.40559154287E+03  0.00000000000E+00 0. -1.
</event>
<event>
 7    1  0.3368105E-009  0.8648676E+02  0.7561462E-02  0.1311590E+00
         -2   -1    0    0    0  501 -0.00000000000E+00  0.00000000000E+00  0.35119855590E+02  0.35119855590E+02  0.00000000000E+00 0.  1.
          2   -1    0    0  501    0  0.00000000000E+00 -0.00000000000E+00 -0.37194332252E+03  0.37194332252E+03  0.00000000000E+00 0. -1.
         25    2    1    2    0    0 -0.34047707741E+01  0.19415797970E+02 -0.13871305465E+03  0.18781890779E+03  0.12508423130E+03 0.  0.
          5    1    3    3  502    0  0.10613762632E+01  0.48832607847E+02 -0.14837003457E+03  0.15625904667E+03  0.41800000000E+01 0.  1.
         -5    1    3    3    0  502 -0.44661470373E+01 -0.29416809877E+02  0.96569799220E+01  0.31559861120E+02  0.41800000000E+01 0.  1.
        -11    1    1    2    0    0 -0.29683596500E+02  0.24799237025E+02 -0.83314711925E+02  0.91855643710E+02  0.00000000000E+00 0. -1.
         11    1    1    2    0    0  0.33088367274E+02 -0.44215034995E+02 -0.11479570036E+03  0.12738862661E+03  0.00000000000E+00 0.  1.
</event>
<event>
 7    1  0.2943257E-009  0.1075705E+03  0.7561462E-02  0.1265136E+00
          3   -1    0    0  501    0  0.00000000000E+00  0.00000000000E+00  0.23792350751E+03  0.23792350751E+03  0.00000000000E+00 0. -1.
         -3   -1    0    0    0  501 -0.00000000000E+00 -0.00000000000E+00 -0.86005280719E+02  0.86005280719E+02  0.00000000000E+00 0.  1.
         25    2    1    2    0    0 -0.34889604205E+02 -0.76513466807E+02  0.33619987136E+02  0.15443454236E+03  0.12509248281E+03 0.  0.
          5    1    3    3  502    0 -0.13299581537E+02 -0.71991442005E+02  0.76539743085E+02  0.10599741158E+03  0.41800000000E+01 0.  1.
         -5    1    3    3    0  502 -0.21590022668E+02 -0.45220248021E+01 -0.42919755948E+02  0.48437130776E+02  0.41800000000E+01 0.  1.
        -11    1    1    2    0    0 -0.22739706227E+02  0.51962087164E+02  0.71697271878E+02  0.91420192170E+02  0.00000000000E+00 0.  1.
         11    1    1    2    0    0  0.57629310433E+02  0.24551379643E+02  0.46600967775E+02  0.78074053698E+02  0.00000000000E+00 0. -1.
</event>
<event>
 7    1  0.2943257E-009  0.1075919E+03  0.7561462E-02  0.1265095E+00
         -1   -1    0    0    0  501 -0.00000000000E+00  0.00000000000E+00  0.19047275620E+03  0.19047275620E+03  0.00000000000E+00 0.  1.
          1   -1    0    0  501    0  0.00000000000E+00 -0.00000000000E+00 -0.11383471525E+03  0.11383471525E+03  0.00000000000E+00 0. -1.
         25    2    1    2    0    0 -0.41696726857E+02 -0.32802221068E+02 -0.48201947756E+02  0.14417011965E+03  0.12508794064E+03 0.  0.
          5    1    3    3  502    0 -0.71957446563E+02  0.14046624002E+02 -0.48919483439E+02  0.88237010498E+02  0.41800000000E+01 0. -1.
         -5    1    3    3    0  502  0.30260719706E+02 -0.46848845070E+02  0.71753568277E+00  0.55933109148E+02  0.41800000000E+01 0. -1.
        -11    1    1    2    0    0 -0.12758928076E+02  0.28463493911E+02  0.96512170604E+01  0.32651289745E+02  0.00000000000E+00 0. -1.
         11    1    1    2    0    0  0.54455654933E+02  0.43387271572E+01  0.11518877164E+03  0.12748606206E+03  0.00000000000E+00 0.  1.
</event>
<event>
 7    1  0.2943257E-009  0.3354030E+03  0.7561462E-02  0.1068771E+00
         -2   -1    0    0    0  501 -0.00000000000E+00  0.00000000000E+00  0.35848776568E+03  0.35848776568E+03  0.00000000000E+00 0.  1.
          2   -1    0    0  501    0  0.00000000000E+00 -0.00000000000E+00 -0.35137394674E+03  0.35137394674E+03  0.00000000000E+00 0. -1.
         25    2    1    2    0    0  0.27711369111E+03 -0.17738871181E+03 -0.72661855396E+02  0.35942463405E+03  0.12509024526E+03 0.  0.
          5    1    3    3  502    0  0.70019821122E+02 -0.58990966137E+01  0.22921180877E+02  0.74029910331E+02  0.41800000000E+01 0.  1.
         -5    1    3    3    0  502  0.20709386999E+03 -0.17148961519E+03 -0.95583036273E+02  0.28539472372E+03  0.41800000000E+01 0.  1.
        -11    1    1    2    0    0 -0.11787092854E+03  0.99393491229E+02  0.78718869846E+02  0.17311638387E+03  0.00000000000E+00 0. -1.
         11    1    1    2    0    0 -0.15924276257E+03  0.77995220579E+02  0.10568044925E+01  0.17732069450E+03  0.00000000000E+00 0.  1.
</event>
<event>
 7    1  0.2943257E-009  0.9475162E+02  0.7561462E-02  0.1291736E+00
         -1   -1    0    0    0  501 -0.00000000000E+00  0.00000000000E+00  0.31524070449E+02  0.31524070449E+02  0.00000000000E+00 0.  1.
          1   -1    0    0  501    0  0.00000000000E+00 -0.00000000000E+00 -0.41435422748E+03  0.41435422748E+03  0.00000000000E+00 0. -1.
         25    2    1    2    0    0  0.13927056502E+02  0.35348076101E+02 -0.21042200264E+03  0.24773975815E+03  0.12511642253E+03 0.  0.
          5    1    3    3  502    0 -0.48725821982E+02  0.14226156621E+02 -0.14874922371E+03  0.15722720253E+03  0.41800000000E+01 0.  1.
         -5    1    3    3    0  502  0.62652878484E+02  0.21121919481E+02 -0.61672778931E+02  0.90512555626E+02  0.41800000000E+01 0.  1.
        -11    1    1    2    0    0 -0.33330770203E+02 -0.15706057084E+01 -0.16098676464E+02  0.37048271600E+02  0.00000000000E+00 0.  1.
         11    1    1    2    0    0  0.19403713701E+02 -0.33777470393E+02 -0.15630947793E+03  0.16109026818E+03  0.00000000000E+00 0. -1.
</event>
<event>
 7    1  0.2943257E-009  0.8587343E+02  0.7561462E-02  0.1313164E+00
          1   -1    0    0  501    0  0.00000000000E+00  0.00000000000E+00  0.42537263474E+03  0.42537263474E+03  0.00000000000E+00 0. -1.
         -1   -1    0    0    0  501 -0.00000000000E+00 -0.00000000000E+00 -0.43851777403E+02  0.43851777403E+02  0.00000000000E+00 0.  1.
         25    2    1    2    0    0 -0.27509986258E+02  0.60777877442E+02  0.12592925639E+03  0.18961927606E+03  0.12508614036E+03 0.  0.
          5    1    3    3  502    0 -0.57626563669E+00  0.54177841851E+02  0.14556953215E+03  0.15538188994E+03  0.41800000000E+01 0. -1.
         -5    1    3    3    0  502 -0.26933720622E+02  0.66000355915E+01 -0.19640275767E+02  0.34237386123E+02  0.41800000000E+01 0. -1.
        -11    1    1    2    0    0  0.45614273006E+02 -0.33385634725E+02  0.64719508878E+02  0.85929490499E+02  0.00000000000E+00 0.  1.
         11    1    1    2    0    0 -0.18104286748E+02 -0.27392242717E+02  0.19087209207E+03  0.19367564558E+03  0.00000000000E+00 0. -1.
</event>
<event>
 7    1  0.2943257E-009  0.1363531E+03  0.7561462E-02  0.1218322E+00
          1   -1    0    0  501    0  0.00000000000E+00  0.00000000000E+00  0.39775632362E+02  0.39775632362E+02  0.00000000000E+00 0. -1.
         -1   -1    0    0    0  501 -0.00000000000E+00 -0.00000000000E+00 -0.52374133892E+03  0.52374133892E+03  0.00000000000E+00 0.  1.
         25    2    1    2    0    0 -0.80907626340E+02 -0.44465022228E+02 -0.30679278899E+03  0.34393655063E+03  0.12508938118E+03 0.  0.
          5    1    3    3  502    0 -0.15192680656E+02  0.37765946210E+02 -0.14663488819E+03  0.15223779778E+03  0.41800000000E+01 0. -1.
         -5    1    3    3    0  502 -0.65714945685E+02 -0.82230968438E+02 -0.16015790080E+03  0.19169875285E+03  0.41800000000E+01 0. -1.
        -11    1    1    2    0    0  0.99615162632E+02  0.38612243416E+02 -0.16479973790E+03  0.19640020259E+03  0.00000000000E+00 0. -1.
         11    1    1    2    0    0 -0.18707536292E+02  0.58527788118E+01 -0.12373179671E+02  0.23180218055E+02  0.00000000000E+00 0.  1.
</event>
<event>
 7    1  0.2943257E-009  0.1115748E+03  0.7561462E-02  0.1257681E+00
         -1   -1    0    0    0  501 -0.00000000000E+00  0.00000000000E+00  0.24419077529E+03  0.24419077529E+03  0.00000000000E+00 0.  1.
          1   -1    0    0  501    0  0.00000000000E+00 -0.00000000000E+00 -0.69969293125E+02  0.69969293125E+02  0.00000000000E+00 0. -1.
         25    2    1    2    0    0 -0.10026257616E+02 -0.71602903015E+02  0.85796421334E+02  0.16803520272E+03  0.12508917570E+03 0.  0.
          5    1    3    3  502    0  0.47664646267E+02 -0.63221141279E+02  0.73909418592E+02  0.10839236950E+03  0.41800000000E+01 0.  1.
         -5    1    3    3    0  502 -0.57690903883E+02 -0.83817617354E+01  0.11887002742E+02  0.59642833222E+02  0.41800000000E+01 0.  1.
        -11    1    1    2    0    0 -0.91151438294E+01  0.64279584566E+02  0.10768759761E+02  0.65809703128E+02  0.00000000000E+00 0. -1.
         11    1    1    2    0    0  0.19141401446E+02  0.73233184485E+01  0.77656301073E+02  0.80315162571E+02  0.00000000000E+00 0.  1.
</event>
<event>
 7    1  0.2943257E-009  0.1104427E+03  0.7561462E-02  0.1259752E+00
         -2   -1    0    0    0  501 -0.00000000000E+00  0.00000000000E+00  0.25387727686E+03  0.25387727686E+03  0.00000000000E+00 0.  1.
          2   -1    0    0  501    0  0.00000000000E+00 -0.00000000000E+00 -0.74081376893E+02  0.74081376893E+02  0.00000000000E+00 0. -1.
         25    2    1    2    0    0 -0.13153717017E+01  0.70225217988E+02  0.15611005321E+03  0.21201521909E+03  0.12508714150E+03 0.  0.
          5    1    3    3  502    0 -0.53515486364E+02  0.16906241688E+01  0.83448841890E+02  0.99236823325E+02  0.41800000000E+01 0. -1.
         -5    1    3    3    0  502  0.52200114662E+02  0.68534593819E+02  0.72661211321E+02  0.11277839577E+03  0.41800000000E+01 0. -1.
        -11    1    1    2    0    0  0.16191591436E+02 -0.10312355748E+02 -0.29004857105E+02  0.34782093812E+02  0.00000000000E+00 0. -1.
         11    1    1    2    0    0 -0.14876219734E+02 -0.59912862239E+02  0.52690703860E+02  0.81161340849E+02  0.00000000000E+00 0.  1.
</event>
<event>
 7    1  0.2943257E-009  0.9315231E+02  0.7561462E-02  0.1295393E+00
         -1   -1    0    0    0  501 -0.00000000000E+00  0.00000000000E+00  0.33816895567E+02  0.33816895567E+02  0.00000000000E+00 0.  1.
          1   -1    0    0  501    0  0.00000000000E+00 -0.00000000000E+00 -0.48663872084E+03  0.48663872084E+03  0.00000000000E+00 0. -1.
         25    2    1    2    0    0 -0.70554980919E+01 -0.21499280522E+02 -0.11873787374E+03  0.17395796105E+03  0.12510271955E+03 0.  0.
          5    1    3    3  502    0  0.35488591332E+02  0.20164269282E+02  0.32308439214E-01  0.41030614353E+02  0.41800000000E+01 0. -1.
         -5    1    3    3    0  502 -0.42544089424E+02 -0.41663549804E+02 -0.11877018218E+03  0.13292734670E+03  0.41800000000E+01 0. -1.
        -11    1    1    2    0    0  0.13856181954E+02 -0.30309842967E+02 -0.19686910172E+03  0.19967003674E+03  0.00000000000E+00 0. -1.
         11    1    1    2    0    0 -0.68006838623E+01  0.51809123489E+02 -0.13721484982E+03  0.14682761862E+03  0.00000000000E+00 0.  1.
</event>
<event>
 7    1  0.2943257E-009  0.1200645E+03  0.7561462E-02  0.1242991E+00
          1   -1    0    0  501    0  0.00000000000E+00  0.00000000000E+00  0.35742238665E+03  0.35742238665E+03  0.00000000000E+00 0. -1.
         -1   -1    0    0    0  501 -0.00000000000E+00 -0.00000000000E+00 -0.41269803673E+02  0.41269803673E+02  0.00000000000E+00 0.  1.
         25    2    1    2    0    0  0.49740036690E+02  0.20698231167E+02  0.17783861397E+03  0.22400258418E+03  0.12509235419E+03 0.  0.
          5    1    3    3  502    0  0.47034267763E+02 -0.46791587523E+02  0.68788652638E+02  0.95660995910E+02  0.41800000000E+01 0.  1.
         -5    1    3    3    0  502  0.27057689276E+01  0.67489818690E+02  0.10904996133E+03  0.12834158827E+03  0.41800000000E+01 0.  1.
        -11    1    1    2    0    0 -0.15219605834E+02  0.36289270466E+02  0.41774388587E+02  0.57390304883E+02  0.00000000000E+00 0.  1.
         11    1    1    2    0    0 -0.34520430857E+02 -0.56987501633E+02  0.96539580414E+02  0.11729930126E+03  0.00000000000E+00 0. -1.
</event>
<event>
 7    1  0.2943257E-009  0.1216144E+03  0.7561462E-02  0.1240457E+00
         -1   -1    0    0    0  501 -0.00000000000E+00  0.00000000000E+00  0.15843948106E+03  0.15843948106E+03  0.00000000000E+00 0. -1.
          1   -1    0    0  501    0  0.00000000000E+00 -0.00000000000E+00 -0.11300020266E+03  0.11300020266E+03  0.00000000000E+00 0.  1.
         25    2    1    2    0    0  0.61658830261E+02  0.37912632709E+02  0.46495541400E+02  0.15181912945E+03  0.12509210058E+03 0.  0.
          5    1    3    3  502    0  0.91804169738E+02 -0.38109683124E+01  0.37827153729E+02  0.99452978939E+02  0.41800000000E+01 0.  1.
         -5    1    3    3    0  502 -0.30145339477E+02  0.41723601022E+02  0.86683876716E+01  0.52366150510E+02  0.41800000000E+01 0.  1.
        -11    1    1    2    0    0 -0.73407087283E+02 -0.44790822474E+02  0.25571412300E+02  0.89714632966E+02  0.00000000000E+00 0. -1.
         11    1    1    2    0    0  0.11748257022E+02  0.68781897649E+01 -0.26627675302E+02  0.29905921312E+02  0.00000000000E+00 0.  1.
</event>
<event>
 7    1  0.2943257E-009  0.1456212E+03  0.7561462E-02  0.1205959E+00
         -1   -1    0    0    0  501 -0.00000000000E+00  0.00000000000E+00  0.11990476504E+03  0.11990476504E+03  0.00000000000E+00 0.  1.
          1   -1    0    0  501    0  0.00000000000E+00 -0.00000000000E+00 -0.24103057855E+03  0.24103057855E+03  0.00000000000E+00 0. -1.
         25    2    1    2    0    0 -0.95819405769E+02 -0.65201367294E+02 -0.13065468595E+03  0.21482732384E+03  0.12509018861E+03 0.  0.
          5    1    3    3  502    0 -0.11615414151E+03 -0.19329854918E+02 -0.74489423898E+02  0.13939718273E+03  0.41800000000E+01 0.  1.
         -5    1    3    3    0  502  0.20334735742E+02 -0.45871512376E+02 -0.56165262055E+02  0.75430141105E+02  0.41800000000E+01 0.  1.
        -11    1    1    2    0    0  0.18662165981E+02  0.36034186216E+02 -0.33909890387E+02  0.52883075566E+02  0.00000000000E+00 0. -1.
         11    1    1    2    0    0  0.77157239788E+02  0.29167181079E+02  0.43438762829E+02  0.93224944193E+02  0.00000000000E+00 0.  1.
</event>
<event>
 7    1  0.2943257E-009  0.8123746E+02  0.7561462E-02  0.1325576E+00
         -2   -1    0    0    0  501 -0.00000000000E+00  0.00000000000E+00  0.49671414418E+02  0.49671414418E+02  0.00000000000E+00 0.  1.
          2   -1    0    0  501    0  0.00000000000E+00 -0.00000000000E+00 -0.25037474371E+03  0.25037474371E+03  0.00000000000E+00 0. -1.
         25    2    1    2    0    0 -0.47028666335E+01  0.50781697590E+02 -0.15453008599E+03  0.20524753336E+03  0.12508439034E+03 0.  0.
          5    1    3    3  502    0 -0.37363543257E+02  0.18496333329E+02  0.21172092338E+01  0.41953589671E+02  0.41800000000E+01 0. -1.
         -5    1    3    3    0  502  0.32660676624E+02  0.32285364261E+02 -0.15664729523E+03  0.16329394369E+03  0.41800000000E+01 0. -1.
        -11    1    1    2    0    0  0.98823461078E+01 -0.61641517331E+02 -0.52167929214E+02  0.81356193753E+02  0.00000000000E+00 0. -1.
         11    1    1    2    0    0 -0.51794794743E+01  0.10859819741E+02  0.59946859141E+01  0.13442431017E+02  0.00000000000E+00 0.  1.
</event>
<event>
 7    1  0.2943257E-009  0.1521879E+03  0.7561462E-02  0.1197810E+00
          2   -1    0    0  501    0  0.00000000000E+00  0.00000000000E+00  0.20274137703E+03  0.20274137703E+03  0.00000000000E+00 0. -1.
         -2   -1    0    0    0  501 -0.00000000000E+00 -0.00000000000E+00 -0.14835426694E+03  0.14835426694E+03  0.00000000000E+00 0.  1.
         25    2    1    2    0    0  0.45199147852E+01  0.13337382991E+03  0.20370657413E+02  0.18404685823E+03  0.12509705915E+03 0.  0.
          5    1    3    3  502    0  0.22090592838E+02  0.10422126850E+03  0.67180573876E+02  0.12601892320E+03  0.41800000000E+01 0.  1.
         -5    1    3    3    0  502 -0.17570678053E+02  0.29152561410E+02 -0.46809916463E+02  0.58027935025E+02  0.41800000000E+01 0.  1.
        -11    1    1    2    0    0  0.44968864479E+02 -0.66145128900E+02  0.13944509753E+02  0.81190062212E+02  0.00000000000E+00 0.  1.
         11    1    1    2    0    0 -0.49488779265E+02 -0.67228701008E+02  0.20071942926E+02  0.85858723524E+02  0.00000000000E+00 0. -1.
</event>
<event>
 7    1  0.2943257E-009  0.9586220E+02  0.7561462E-02  0.1289246E+00
         -2   -1    0    0    0  501 -0.00000000000E+00  0.00000000000E+00  0.56911110335E+02  0.56911110335E+02  0.00000000000E+00 0.  1.
          2   -1    0    0  501    0  0.00000000000E+00 -0.00000000000E+00 -0.52999073558E+03  0.52999073558E+03  0.00000000000E+00 0. -1.
         25    2    1    2    0    0  0.46757989252E+02 -0.60473892634E+02 -0.25784697444E+03  0.29660728186E+03  0.12508963256E+03 0.  0.
          5    1    3    3  502    0  0.47469618231E+02 -0.47000546856E+01 -0.19362510601E+02  0.51651083104E+02  0.41800000000E+01 0. -1.
         -5    1    3    3    0  502 -0.71162897849E+00 -0.55773837948E+02 -0.23848446384E+03  0.24495619876E+03  0.41800000000E+01 0. -1.
        -11    1    1    2    0    0 -0.41481223043E+01  0.40734342878E+02 -0.23558293208E+03  0.23911464090E+03  0.00000000000E+00 0. -1.
         11    1    1    2    0    0 -0.42609866948E+02  0.19739549756E+02  0.20350281275E+02  0.51179923152E+02  0.00000000000E+00 0.  1.
</event>
<event>
 7    1  0.2943257E-009  0.9329876E+02  0.7561462E-02  0.1295054E+00
          1   -1    0    0  501    0  0.00000000000E+00  0.00000000000E+00  0.69967637752E+03  0.69967637752E+03  0.00000000000E+00 0.  1.
         -1   -1    0    0    0  501 -0.00000000000E+00 -0.00000000000E+00 -0.20936954230E+02  0.20936954230E+02  0.00000000000E+00 0. -1.
         25    2    1    2    0    0  0.23988413098E+02 -0.12459902830E+02  0.51402196353E+03  0.52971366603E+03  0.12508915158E+03 0.  0.
          5    1    3    3  502    0  0.72528434818E+02 -0.19946257813E+02  0.24902511185E+03  0.26017149304E+03  0.41800000000E+01 0.  1.
         -5    1    3    3    0  502 -0.48540021720E+02  0.74863549825E+01  0.26499685168E+03  0.26954217299E+03  0.41800000000E+01 0.  1.
        -11    1    1    2    0    0 -0.42144103263E+02  0.53995152582E+01  0.16602507621E+03  0.17137562876E+03  0.00000000000E+00 0.  1.
         11    1    1    2    0    0  0.18155690165E+02  0.70603875722E+01 -0.13076164552E+01  0.19524036950E+02  0.00000000000E+00 0. -1.
</event>
<event>
 7    1  0.2943257E-009  0.1067042E+03  0.7561462E-02  0.1266798E+00
         -2   -1    0    0    0  501 -0.00000000000E+00  0.00000000000E+00  0.14765865866E+03  0.14765865866E+03  0.00000000000E+00 0. -1.
          2   -1    0    0  501    0  0.00000000000E+00 -0.00000000000E+00 -0.19825074491E+03  0.19825074491E+03  0.00000000000E+00 0.  1.
         25    2    1    2    0    0 -0.39153410338E+02 -0.90986117212E+02  0.60318286828E+02  0.17059282505E+03  0.12510856553E+03 0.  0.
          5    1    3    3  502    0  0.87174254930E+01 -0.50306195744E+01 -0.33105047250E+02  0.34852793202E+02  0.41800000000E+01 0.  1.
         -5    1    3    3    0  502 -0.47870835831E+02 -0.85955497638E+02  0.93423334078E+02  0.13574003185E+03  0.41800000000E+01 0.  1.
        -11    1    1    2    0    0  0.34592419019E+01  0.48158847452E+02 -0.10935888441E+03  0.11954332496E+03  0.00000000000E+00 0.  1.
         11    1    1    2    0    0  0.35694168436E+02  0.42827269760E+02 -0.15514886681E+01  0.55773253559E+02  0.00000000000E+00 0. -1.
</event>
<event>
 7    1  0.2943257E-009  0.1027311E+03  0.7561462E-02  0.1274655E+00
         -1   -1    0    0    0  501 -0.00000000000E+00  0.00000000000E+00  0.37431961618E+03  0.37431961618E+03  0.00000000000E+00 0.  1.
          1   -1    0    0  501    0  0.00000000000E+00 -0.00000000000E+00 -0.43291022175E+02  0.43291022175E+02  0.00000000000E+00 0. -1.
         25    2    1    2    0    0 -0.22470376188E+02 -0.98849966540E+00  0.28837773709E+03  0.31513582415E+03  0.12507187324E+03 0.  0.
          5    1    3    3  502    0  0.69369025706E+01  0.58480609188E+02  0.11124469965E+03  0.12594029485E+03  0.41800000000E+01 0. -1.
         -5    1    3    3    0  502 -0.29407278759E+02 -0.59469108854E+02  0.17713303745E+03  0.18919552930E+03  0.41800000000E+01 0. -1.
        -11    1    1    2    0    0 -0.27895796685E+02  0.81839779443E+01 -0.85413045030E+01  0.30300278057E+02  0.00000000000E+00 0.  1.
         11    1    1    2    0    0  0.50366172873E+02 -0.71954782789E+01  0.51192161420E+02  0.72174536150E+02  0.00000000000E+00 0. -1.
</event>
<event>
 7    1  0.2943257E-009  0.8452253E+02  0.7561462E-02  0.1316686E+00
          2   -1    0    0  501    0  0.00000000000E+00  0.00000000000E+00  0.11684678839E+04  0.11684678839E+04  0.00000000000E+00 0. -1.
         -2   -1    0    0    0  501 -0.00000000000E+00 -0.00000000000E+00 -0.14985092372E+02  0.14985092372E+02  0.00000000000E+00 0.  1.
         25    2    1    2    0    0  0.20163399819E+02 -0.47660944560E+02  0.87450651951E+03  0.88492215022E+03  0.12508969168E+03 0.  0.
          5    1    3    3  502    0  0.55571060496E+01 -0.58054408299E+02  0.16286176933E+03  0.17303937142E+03  0.41800000000E+01 0. -1.
         -5    1    3    3    0  502  0.14606293769E+02  0.10393463739E+02  0.71164475018E+03  0.71188277881E+03  0.41800000000E+01 0. -1.
        -11    1    1    2    0    0  0.19817750903E+02  0.48272595895E+02  0.79566292774E+02  0.95151362108E+02  0.00000000000E+00 0.  1.
         11    1    1    2    0    0 -0.39981150722E+02 -0.61165133472E+00  0.19940997926E+03  0.20337946396E+03  0.00000000000E+00 0. -1.
</event>
<event>
 7    1  0.2943257E-009  0.1802820E+03  0.7561462E-02  0.1167530E+00
         -2   -1    0    0    0  501 -0.00000000000E+00  0.00000000000E+00  0.33102102334E+02  0.33102102334E+02  0.00000000000E+00 0.  1.
          2   -1    0    0  501    0  0.00000000000E+00 -0.00000000000E+00 -0.10506049855E+04  0.10506049855E+04  0.00000000000E+00 0. -1.
         25    2    1    2    0    0  0.13170177517E+03  0.42955888802E+02 -0.44451326399E+03  0.48211035419E+03  0.12509110994E+03 0.  0.
          5    1    3    3  502    0 -0.14543032219E+02  0.26077359695E+02 -0.14795948300E+03  0.15100003140E+03  0.41800000000E+01 0.  1.
         -5    1    3    3    0  502  0.14624480739E+03  0.16878529108E+02 -0.29655378100E+03  0.33111032279E+03  0.41800000000E+01 0.  1.
        -11    1    1    2    0    0 -0.37084969294E+02  0.41964319770E+02 -0.16356511038E+03  0.17288679654E+03  0.00000000000E+00 0. -1.
         11    1    1    2    0    0 -0.94616805878E+02 -0.84920208572E+02 -0.40942450879E+03  0.42870993711E+03  0.00000000000E+00 0.  1.
</event>
<event>
 7    1  0.2943257E-009  0.1717763E+03  0.7561462E-02  0.1176008E+00
         -1   -1    0    0    0  501 -0.00000000000E+00  0.00000000000E+00  0.35830894178E+03  0.35830894178E+03  0.00000000000E+00 0.  1.
          1   -1    0    0  501    0  0.00000000000E+00 -0.00000000000E+00 -0.13767492409E+03  0.13767492409E+03  0.00000000000E+00 0. -1.
         25    2    1    2    0    0  0.12854808626E+03  0.11308570427E+03  0.14055468346E+02  0.21250315811E+03  0.12508816500E+03 0.  0.
          5    1    3    3  502    0  0.11242192629E+03  0.91245984067E+02 -0.41370926400E+02  0.15064376877E+03  0.41800000000E+01 0. -1.
         -5    1    3    3    0  502  0.16126159974E+02  0.21839720207E+02  0.55426394746E+02  0.61859389334E+02  0.41800000000E+01 0. -1.
        -11    1    1    2    0    0 -0.89131252257E+02 -0.76695377653E+02  0.70241256776E+02  0.13696859215E+03  0.00000000000E+00 0. -1.
         11    1    1    2    0    0 -0.39416834007E+02 -0.36390326621E+02  0.13633729257E+03  0.14651211561E+03  0.00000000000E+00 0.  1.
</event>
<event>
 7    1  0.2943257E-009  0.1150601E+03  0.7561462E-02  0.1251476E+00
          2   -1    0    0  501    0  0.00000000000E+00  0.00000000000E+00  0.13518944197E+04  0.13518944197E+04  0.00000000000E+00 0.  1.
         -2   -1    0    0    0  501 -0.00000000000E+00 -0.00000000000E+00 -0.11127913852E+02  0.11127913852E+02  0.00000000000E+00 0. -1.
         25    2    1    2    0    0 -0.37752369843E+02 -0.24998626064E+02  0.98031532187E+03  0.98930073389E+03  0.12509052349E+03 0.  0.
          5    1    3    3  502    0 -0.32881108633E+02 -0.74661877693E+02  0.67170673534E+03  0.67665572782E+03  0.41800000000E+01 0. -1.
         -5    1    3    3    0  502 -0.48712612104E+01  0.49663251630E+02  0.30860858652E+03  0.31264500608E+03  0.41800000000E+01 0. -1.
        -11    1    1    2    0    0  0.50914990558E+02 -0.17520648588E+02  0.21286718364E+03  0.21957173603E+03  0.00000000000E+00 0.  1.
         11    1    1    2    0    0 -0.13162620715E+02  0.42519274652E+02  0.14758400037E+03  0.15414986366E+03  0.00000000000E+00 0. -1.
</event>
<event>
 7    1  0.2943257E-009  0.1529342E+03  0.7561462E-02  0.1196913E+00
         -2   -1    0    0    0  501 -0.00000000000E+00  0.00000000000E+00  0.96320118836E+02  0.96320118836E+02  0.00000000000E+00 0.  1.
          2   -1    0    0  501    0  0.00000000000E+00 -0.00000000000E+00 -0.32530546731E+03  0.32530546731E+03  0.00000000000E+00 0. -1.
         25    2    1    2    0    0  0.82721597374E+02  0.78525095827E+02 -0.21558843332E+03  0.27410845922E+03  0.12509205207E+03 0.  0.
          5    1    3    3  502    0  0.11042861047E+03  0.77604911702E+02 -0.14491754336E+03  0.19807969887E+03  0.41800000000E+01 0. -1.
         -5    1    3    3    0  502 -0.27707013097E+02  0.92018412500E+00 -0.70670889955E+02  0.76028760351E+02  0.41800000000E+01 0. -1.
        -11    1    1    2    0    0 -0.70932797775E+02 -0.81012024855E+01 -0.24022449211E+02  0.75327082434E+02  0.00000000000E+00 0.  1.
         11    1    1    2    0    0 -0.11788799599E+02 -0.70423893342E+02  0.10625534055E+02  0.72190044489E+02  0.00000000000E+00 0. -1.
</event>
<event>
 7    1  0.2943257E-009  0.1628245E+03  0.7561462E-02  0.1185544E+00
         -2   -1    0    0    0  501 -0.00000000000E+00  0.00000000000E+00  0.21877214334E+03  0.21877214334E+03  0.00000000000E+00 0.  1.
          2   -1    0    0  501    0  0.00000000000E+00 -0.00000000000E+00 -0.14802715391E+03  0.14802715391E+03  0.00000000000E+00 0. -1.
         25    2    1    2    0    0 -0.12910310391E+03  0.19299589351E+02  0.76116661300E+02  0.19616582184E+03  0.12508876025E+03 0.  0.
          5    1    3    3  502    0 -0.13511145917E+03 -0.17648110561E+02  0.35702679879E+02  0.14092095641E+03  0.41800000000E+01 0.  1.
         -5    1    3    3    0  502  0.60083552594E+01  0.36947699912E+02  0.40413981420E+02  0.55244865426E+02  0.41800000000E+01 0.  1.
        -11    1    1    2    0    0  0.10630577079E+03 -0.46618612235E+02  0.30592655226E+02  0.12004216952E+03  0.00000000000E+00 0.  1.
         11    1    1    2    0    0  0.22797333116E+02  0.27319022884E+02 -0.35964327091E+02  0.50591305890E+02  0.00000000000E+00 0. -1.
</event>
<event>
 7    1  0.2943257E-009  0.2065152E+03  0.7561462E-02  0.1144356E+00
          1   -1    0    0  501    0  0.00000000000E+00  0.00000000000E+00  0.44483269729E+03  0.44483269729E+03  0.00000000000E+00 0. -1.
         -1   -1    0    0    0  501 -0.00000000000E+00 -0.00000000000E+00 -0.17432403936E+03  0.17432403936E+03  0.00000000000E+00 0.  1.
         25    2    1    2    0    0 -0.17200475563E+03  0.53484370702E+02  0.33854642898E+03  0.40336901340E+03  0.12508662010E+03 0.  0.
          5    1    3    3  502    0 -0.21465507435E+02 -0.29173080210E+02  0.11982315368E+03  0.12524734399E+03  0.41800000000E+01 0.  1.
         -5    1    3    3    0  502 -0.15053924819E+03  0.82657450912E+02  0.21872327530E+03  0.27812166941E+03  0.41800000000E+01 0.  1.
        -11    1    1    2    0    0  0.52301687779E+02  0.28625411607E+02 -0.19734404705E+02  0.62803880957E+02  0.00000000000E+00 0.  1.
         11    1    1    2    0    0  0.11970306785E+03 -0.82109782309E+02 -0.48303366342E+02  0.15298384229E+03  0.00000000000E+00 0. -1.
</event>
<event>
 7    1  0.2943257E-009  0.7146211E+02  0.7561462E-02  0.1355190E+00
          1   -1    0    0  501    0  0.00000000000E+00  0.00000000000E+00  0.12810633193E+03  0.12810633193E+03  0.00000000000E+00 0. -1.
         -1   -1    0    0    0  501 -0.00000000000E+00 -0.00000000000E+00 -0.11884179334E+03  0.11884179334E+03  0.00000000000E+00 0.  1.
         25    2    1    2    0    0 -0.27153521133E+01 -0.68396653572E+01 -0.49617257541E+02  0.13477209175E+03  0.12508992889E+03 0.  0.
          5    1    3    3  502    0 -0.19054351672E+02 -0.45472698655E+02  0.20014317606E+02  0.53374899998E+02  0.41800000000E+01 0.  1.
         -5    1    3    3    0  502  0.16338999558E+02  0.38633033297E+02 -0.69631575147E+02  0.81397191756E+02  0.41800000000E+01 0.  1.
        -11    1    1    2    0    0  0.10769574209E+02  0.27275282225E+02 -0.16507825432E+02  0.33651642599E+02  0.00000000000E+00 0.  1.
         11    1    1    2    0    0 -0.80542220961E+01 -0.20435616868E+02  0.75389621557E+02  0.78524390917E+02  0.00000000000E+00 0. -1.
</event>
<event>
 7    1  0.2943257E-009  0.8486869E+02  0.7561462E-02  0.1315776E+00
          1   -1    0    0  501    0  0.00000000000E+00  0.00000000000E+00  0.70717870534E+03  0.70717870534E+03  0.00000000000E+00 0. -1.
         -1   -1    0    0    0  501 -0.00000000000E+00 -0.00000000000E+00 -0.22795410550E+02  0.22795410550E+02  0.00000000000E+00 0.  1.
         25    2    1    2    0    0 -0.33830534413E+02 -0.41508618720E+02  0.48271533853E+03  0.50152771500E+03  0.12509388624E+03 0.  0.
          5    1    3    3  502    0 -0.40837786437E+02 -0.52396154710E+02  0.11004921382E+03  0.12861331071E+03  0.41800000000E+01 0. -1.
         -5    1    3    3    0  502  0.70072520231E+01  0.10887535990E+02  0.37266612471E+03  0.37291440429E+03  0.41800000000E+01 0. -1.
        -11    1    1    2    0    0  0.19660671630E+02  0.61782019698E+02  0.73914190127E+02  0.98320229195E+02  0.00000000000E+00 0.  1.
         11    1    1    2    0    0  0.14169862783E+02 -0.20273400978E+02  0.12775376614E+03  0.13012617170E+03  0.00000000000E+00 0. -1.
</event>
<event>
 7    1  0.2943257E-009  0.1659272E+03  0.7561462E-02  0.1182163E+00
         -2   -1    0    0    0  501 -0.00000000000E+00  0.00000000000E+00  0.74772093250E+02  0.74772093250E+02  0.00000000000E+00 0.  1.
          2   -1    0    0  501    0  0.00000000000E+00 -0.00000000000E+00 -0.39317462994E+03  0.39317462994E+03  0.00000000000E+00 0. -1.
         25    2    1    2    0    0  0.40746542504E+02  0.12167777815E+03 -0.21108732304E+03  0.27689609050E+03  0.12509126494E+03 0.  0.
          5    1    3    3  502    0  0.77381227164E+02  0.11728820776E+03 -0.15139769025E+03  0.20659891338E+03  0.41800000000E+01 0. -1.
         -5    1    3    3    0  502 -0.36634684660E+02  0.43895703870E+01 -0.59689632791E+02  0.70297177120E+02  0.41800000000E+01 0. -1.
        -11    1    1    2    0    0 -0.67067363998E+02 -0.75451302834E+02 -0.49318667619E+02  0.11235328829E+03  0.00000000000E+00 0.  1.
         11    1    1    2    0    0  0.26320821493E+02 -0.46226475317E+02 -0.57996546031E+02  0.78697344402E+02  0.00000000000E+00 0. -1.
</event>
<event>
 7    1  0.2943257E-009  0.1970592E+03  0.7561462E-02  0.1152244E+00
         -2   -1    0    0    0  501 -0.00000000000E+00  0.00000000000E+00  0.75460429315E+02  0.75460429315E+02  0.00000000000E+00 0.  1.
          2   -1    0    0  501    0  0.00000000000E+00 -0.00000000000E+00 -0.62407229289E+03  0.62407229289E+03  0.00000000000E+00 0. -1.
         25    2    1    2    0    0 -0.74231052450E+02 -0.16405707045E+03 -0.36662026766E+03  0.42718646122E+03  0.12511147222E+03 0.  0.
          5    1    3    3  502    0  0.14833796573E+02  0.91104082667E+01 -0.70602886783E+02  0.72837360479E+02  0.41800000000E+01 0. -1.
         -5    1    3    3    0  502 -0.89064849023E+02 -0.17316747871E+03 -0.29601738088E+03  0.35434910074E+03  0.41800000000E+01 0. -1.
        -11    1    1    2    0    0  0.10658646930E+02  0.47433073340E+02 -0.20078890519E+01  0.48657320305E+02  0.00000000000E+00 0.  1.
         11    1    1    2    0    0  0.63572405519E+02  0.11662399711E+03 -0.17998370686E+03  0.22368894068E+03  0.00000000000E+00 0. -1.
</event>
<event>
 7    1  0.2943257E-009  0.1227053E+03  0.7561462E-02  0.1238700E+00
         -2   -1    0    0    0  501 -0.00000000000E+00  0.00000000000E+00  0.11092033248E+02  0.11092033248E+02  0.00000000000E+00 0.  1.
          2   -1    0    0  501    0  0.00000000000E+00 -0.00000000000E+00 -0.24971708414E+04  0.24971708414E+04  0.00000000000E+00 0. -1.
         25    2    1    2    0    0  0.31636733316E+01  0.70117623465E+02 -0.21159829763E+04  0.21208390435E+04  0.12509117622E+03 0.  0.
          5    1    3    3  502    0  0.31576046791E+02 -0.21791468241E+02 -0.32754363974E+03  0.32980937396E+03  0.41800000000E+01 0. -1.
         -5    1    3    3    0  502 -0.28412373459E+02  0.91909091706E+02 -0.17884393366E+04  0.17910296695E+04  0.41800000000E+01 0. -1.
        -11    1    1    2    0    0 -0.26386458610E+02  0.91495024740E+01 -0.14468890658E+03  0.14735955443E+03  0.00000000000E+00 0. -1.
         11    1    1    2    0    0  0.23222785279E+02 -0.79267125939E+02 -0.22540692526E+03  0.24006427674E+03  0.00000000000E+00 0.  1.
</event>
<event>
 7    1  0.2943257E-009  0.1143354E+03  0.7561462E-02  0.1252746E+00
         -2   -1    0    0    0  501 -0.00000000000E+00  0.00000000000E+00  0.15072516713E+03  0.15072516713E+03  0.00000000000E+00 0.  1.
          2   -1    0    0  501    0  0.00000000000E+00 -0.00000000000E+00 -0.92987886492E+02  0.92987886492E+02  0.00000000000E+00 0. -1.
         25    2    1    2    0    0 -0.52729132981E+01  0.42062546207E+02  0.51938077415E+02  0.14192416314E+03  0.12509133779E+03 0.  0.
          5    1    3    3  502    0  0.38299972510E+01  0.83967439513E+02  0.15667767574E+02  0.85604620892E+02  0.41800000000E+01 0.  1.
         -5    1    3    3    0  502 -0.91029105491E+01 -0.41904893306E+02  0.36270309841E+02  0.56319542252E+02  0.41800000000E+01 0.  1.
        -11    1    1    2    0    0 -0.18400087106E+02  0.24580225092E+02  0.46702355453E+01  0.31057394789E+02  0.00000000000E+00 0. -1.
         11    1    1    2    0    0  0.23673000404E+02 -0.66642771298E+02  0.11289676783E+01  0.70731495689E+02  0.00000000000E+00 0.  1.
</event>
<event>
 7    1  0.2943257E-009  0.2516092E+03  0.7561462E-02  0.1112292E+00
          2   -1    0    0  501    0  0.00000000000E+00  0.00000000000E+00  0.14187234485E+04  0.14187234485E+04  0.00000000000E+00 0. -1.
         -2   -1    0    0    0  501 -0.00000000000E+00 -0.00000000000E+00 -0.10843117687E+03  0.10843117687E+03  0.00000000000E+00 0.  1.
         25    2    1    2    0    0  0.22034727151E+03  0.96752411744E+02  0.98613233087E+02  0.28859303986E+03  0.12508966253E+03 0.  0.
          5    1    3    3  502    0  0.17359423817E+03  0.11432672837E+03  0.11276186333E+03  0.23651272813E+03  0.41800000000E+01 0.  1.
         -5    1    3    3    0  502  0.46753033338E+02 -0.17574316631E+02 -0.14148630243E+02  0.52080311722E+02  0.41800000000E+01 0.  1.
        -11    1    1    2    0    0 -0.37914604231E+02  0.15831024017E+01  0.86538214118E+02  0.94492782422E+02  0.00000000000E+00 0. -1.
         11    1    1    2    0    0 -0.18243266728E+03 -0.98335514145E+02  0.11251408244E+04  0.11440688031E+04  0.00000000000E+00 0.  1.
</event>
<event>
 7    1  0.2943257E-009  0.1551645E+03  0.7561462E-02  0.1194267E+00
          2   -1    0    0  501    0  0.00000000000E+00  0.00000000000E+00  0.72440493144E+03  0.72440493144E+03  0.00000000000E+00 0. -1.
         -2   -1    0    0    0  501 -0.00000000000E+00 -0.00000000000E+00 -0.45766004644E+02  0.45766004644E+02  0.00000000000E+00 0.  1.
         25    2    1    2    0    0  0.11857160537E+03 -0.84763790328E+02  0.33126763328E+03  0.38292300020E+03  0.12509058109E+03 0.  0.
          5    1    3    3  502    0  0.99717357821E+02 -0.72312614280E+02  0.12558003176E+03  0.17595591042E+03  0.41800000000E+01 0. -1.
         -5    1    3    3    0  502  0.18854247545E+02 -0.12451176048E+02  0.20568760152E+03  0.20696708978E+03  0.41800000000E+01 0. -1.
        -11    1    1    2    0    0 -0.38693972396E+02 -0.10196098052E+02  0.13980012922E+03  0.14541409851E+03  0.00000000000E+00 0. -1.
         11    1    1    2    0    0 -0.79877632970E+02  0.94959888380E+02  0.20757116430E+03  0.24183383737E+03  0.00000000000E+00 0.  1.
</event>
<event>
 7    1  0.2943257E-009  0.9901381E+02  0.7561462E-02  0.1282384E+00
          2   -1    0    0  501    0  0.00000000000E+00  0.00000000000E+00  0.71296284877E+03  0.71296284877E+03  0.00000000000E+00 0. -1.
         -2   -1    0    0    0  501 -0.00000000000E+00 -0.00000000000E+00 -0.18832971450E+02  0.18832971450E+02  0.00000000000E+00 0.  1.
         25    2    1    2    0    0  0.88903132940E+01 -0.27706096595E+02  0.31185621612E+03  0.33726477280E+03  0.12508621819E+03 0.  0.
          5    1    3    3  502    0  0.21856980035E+02  0.32183064510E+02  0.23805666427E+03  0.24125075134E+03  0.41800000000E+01 0. -1.
         -5    1    3    3    0  502 -0.12966666741E+02 -0.59889161105E+02  0.73799551850E+02  0.96014021463E+02  0.41800000000E+01 0. -1.
        -11    1    1    2    0    0 -0.30078825498E+02 -0.25992353524E+02  0.14729508060E+03  0.15256532684E+03  0.00000000000E+00 0.  1.
         11    1    1    2    0    0  0.21188512204E+02  0.53698450119E+02  0.23497858059E+03  0.24196572057E+03  0.00000000000E+00 0. -1.
</event>
<event>
 7    1  0.2943257E-009  0.7931479E+02  0.7561462E-02  0.1331007E+00
         -2   -1    0    0    0  501 -0.00000000000E+00  0.00000000000E+00  0.29087908185E+02  0.29087908185E+02  0.00000000000E+00 0.  1.
          2   -1    0    0  501    0  0.00000000000E+00 -0.00000000000E+00 -0.48947080823E+03  0.48947080823E+03  0.00000000000E+00 0. -1.
         25    2    1    2    0    0 -0.27011580393E+02  0.38658589755E+02 -0.21920673130E+03  0.25675528123E+03  0.12509025284E+03 0.  0.
          5    1    3    3  502    0 -0.92235167732E+01 -0.54934278705E+01  0.14326264002E+02  0.18383831257E+02  0.41800000000E+01 0. -1.
         -5    1    3    3    0  502 -0.17788063620E+02  0.44152017625E+02 -0.23353299530E+03  0.23837144997E+03  0.41800000000E+01 0. -1.
        -11    1    1    2    0    0 -0.15175371691E+02  0.21213804831E+02 -0.91859310162E+02  0.95490576943E+02  0.00000000000E+00 0. -1.
         11    1    1    2    0    0  0.42186952085E+02 -0.59872394586E+02 -0.14931685858E+03  0.16631285824E+03  0.00000000000E+00 0.  1.
</event>
<event>
 7    1  0.2943257E-009  0.8462571E+02  0.7561462E-02  0.1316414E+00
          1   -1    0    0  501    0  0.00000000000E+00  0.00000000000E+00  0.73320328655E+03  0.73320328655E+03  0.00000000000E+00 0. -1.
         -1   -1    0    0    0  501 -0.00000000000E+00 -0.00000000000E+00 -0.20092512561E+02  0.20092512561E+02  0.00000000000E+00 0.  1.
         25    2    1    2    0    0 -0.32342565083E+02 -0.14491647764E+02  0.27604086235E+03  0.30512715649E+03  0.12509186452E+03 0.  0.
          5    1    3    3  502    0 -0.51682531996E+02 -0.55254954584E+01  0.34305260143E+02  0.62417453384E+02  0.41800000000E+01 0. -1.
         -5    1    3    3    0  502  0.19339966913E+02 -0.89661523053E+01  0.24173560220E+03  0.24270970310E+03  0.41800000000E+01 0. -1.
        -11    1    1    2    0    0 -0.15869023306E+02  0.38414132265E+02  0.13204007821E+03  0.13842707001E+03  0.00000000000E+00 0.  1.
         11    1    1    2    0    0  0.48211588389E+02 -0.23922484502E+02  0.30502983343E+03  0.30974157261E+03  0.00000000000E+00 0. -1.
</event>
<event>
 6    1  0.2943257E-009  0.1136792E+03  0.7561462E-02  0.1253904E+00
         -2   -1    0    0    0  501 -0.00000000000E+00  0.00000000000E+00  0.73663895579E+02  0.73663895579E+02  0.00000000000E+00 0. -1.
          2   -1    0    0  501    0  0.00000000000E+00 -0.00000000000E+00 -0.26260863629E+03  0.26260863629E+03  0.00000000000E+00 0.  1.
          5    1    1    2  502    0 -0.91023368688E+02 -0.33452708947E+02 -0.14097592803E+03  0.17116080763E+03  0.41800000000E+01 0.  1.
         -5    1    1    2    0  502  0.79859689139E+01  0.56002078131E+01  0.20553052274E+02  0.23130896758E+02  0.41800000000E+01 0.  1.
        -11    1    1    2    0    0  0.22552893327E-03  0.36222587528E+02 -0.39060705849E+01  0.36432584793E+02  0.00000000000E+00 0. -1.
         11    1    1    2    0    0  0.83037174246E+02 -0.83700863938E+01 -0.64615794369E+02  0.10554824269E+03  0.00000000000E+00 0.  1.
</event>
<event>
 7    1  0.2943257E-009  0.9419914E+02  0.7561462E-02  0.1292990E+00
          1   -1    0    0  501    0  0.00000000000E+00  0.00000000000E+00  0.45954265550E+03  0.45954265550E+03  0.00000000000E+00 0. -1.
         -1   -1    0    0    0  501 -0.00000000000E+00 -0.00000000000E+00 -0.35538788785E+02  0.35538788785E+02  0.00000000000E+00 0.  1.
         25    2    1    2    0    0  0.91416145957E+01 -0.39089914823E+02  0.33602037748E+03  0.36078852600E+03  0.12508827224E+03 0.  0.
          5    1    3    3  502    0  0.35261662593E+02  0.78424759068E+01  0.22694740019E+02  0.42865054552E+02  0.41800000000E+01 0. -1.
         -5    1    3    3    0  502 -0.26120047998E+02 -0.46932390730E+02  0.31332563747E+03  0.31792347145E+03  0.41800000000E+01 0. -1.
        -11    1    1    2    0    0  0.98772469404E+01 -0.27335747260E+02  0.11598770607E+02  0.31294321609E+02  0.00000000000E+00 0.  1.
         11    1    1    2    0    0 -0.19018861536E+02  0.66425662083E+02  0.76384718625E+02  0.10299859667E+03  0.00000000000E+00 0. -1.
</event>
<event>
 7    1  0.2943257E-009  0.2046127E+03  0.7561462E-02  0.1145905E+00
          2   -1    0    0  501    0  0.00000000000E+00  0.00000000000E+00  0.65782330813E+03  0.65782330813E+03  0.00000000000E+00 0. -1.
         -2   -1    0    0    0  501 -0.00000000000E+00 -0.00000000000E+00 -0.75037957108E+02  0.75037957108E+02  0.00000000000E+00 0.  1.
         25    2    1    2    0    0 -0.45937784630E+02  0.18774323317E+03  0.30198525001E+03  0.37973954754E+03  0.12509688679E+03 0.  0.
          5    1    3    3  502    0 -0.49134187853E+02  0.57665131568E+02  0.20141764399E+03  0.21523469871E+03  0.41800000000E+01 0.  1.
         -5    1    3    3    0  502  0.31964032231E+01  0.13007810160E+03  0.10056760601E+03  0.16450484883E+03  0.41800000000E+01 0.  1.
        -11    1    1    2    0    0  0.41318859968E+02 -0.47947815321E+02  0.14481057103E+03  0.15803905424E+03  0.00000000000E+00 0. -1.
         11    1    1    2    0    0  0.46189246617E+01 -0.13979541785E+03  0.13598952999E+03  0.19508266346E+03  0.00000000000E+00 0.  1.
</event>
<event>
 7    1  0.2943257E-009  0.1281303E+03  0.7561462E-02  0.1230257E+00
          2   -1    0    0  501    0  0.00000000000E+00  0.00000000000E+00  0.17352999036E+03  0.17352999036E+03  0.00000000000E+00 0. -1.
         -2   -1    0    0    0  501 -0.00000000000E+00 -0.00000000000E+00 -0.13518045314E+03  0.13518045314E+03  0.00000000000E+00 0.  1.
         25    2    1    2    0    0 -0.15120485845E+02 -0.10495683462E+03  0.39284888048E+02  0.16862869828E+03  0.12509104376E+03 0.  0.
          5    1    3    3  502    0  0.19371308405E+02 -0.23521053192E+02  0.68750419127E+02  0.75316532466E+02  0.41800000000E+01 0.  1.
         -5    1    3    3    0  502 -0.34491794250E+02 -0.81435781426E+02 -0.29465531079E+02  0.93312165814E+02  0.41800000000E+01 0.  1.
        -11    1    1    2    0    0  0.39282206780E+02  0.12228019403E+02 -0.13806431235E+02  0.43396241444E+02  0.00000000000E+00 0.  1.
         11    1    1    2    0    0 -0.24161720935E+02  0.92728815215E+02  0.12871080408E+02  0.96685503777E+02  0.00000000000E+00 0. -1.
</event>
<event>
 7    1  0.2943257E-009  0.8938842E+02  0.7561462E-02  0.1304340E+00
          2   -1    0    0  501    0  0.00000000000E+00  0.00000000000E+00  0.75149353081E+02  0.75149353081E+02  0.00000000000E+00 0.  1.
         -2   -1    0    0    0  501 -0.00000000000E+00 -0.00000000000E+00 -0.19307812527E+03  0.19307812527E+03  0.00000000000E+00 0. -1.
         25    2    1    2    0    0  0.27040687408E+02 -0.42254963448E+02 -0.89972443533E+02  0.16204748485E+03  0.12509063131E+03 0.  0.
          5    1    3    3  502    0 -0.27598713867E+02 -0.22476747641E+02  0.17437373659E+02  0.39855082383E+02  0.41800000000E+01 0.  1.
         -5    1    3    3    0  502  0.54639401275E+02 -0.19778215806E+02 -0.10740981719E+03  0.12219240247E+03  0.41800000000E+01 0.  1.
        -11    1    1    2    0    0 -0.19466905043E+02  0.61229452641E+02 -0.45922395453E+02  0.78973873318E+02  0.00000000000E+00 0. -1.
         11    1    1    2    0    0 -0.75737823654E+01 -0.18974489194E+02  0.17966066793E+02  0.27206120184E+02  0.00000000000E+00 0.  1.
</event>
<event>
 7    1  0.2943257E-009  0.8989051E+02  0.7561462E-02  0.1303117E+00
          3   -1    0    0  501    0  0.00000000000E+00  0.00000000000E+00  0.86099618621E+02  0.86099618621E+02  0.00000000000E+00 0. -1.
         -3   -1    0    0    0  501 -0.00000000000E+00 -0.00000000000E+00 -0.17976863210E+03  0.17976863210E+03  0.00000000000E+00 0.  1.
         25    2    1    2    0    0  0.54194544381E+02 -0.42029336061E+01 -0.84573716249E+02  0.16049947760E+03  0.12511057324E+03 0.  0.
          5    1    3    3  502    0  0.59119614911E+02  0.29066911409E+02  0.35264143550E+01  0.66105387105E+02  0.41800000000E+01 0. -1.
         -5    1    3    3    0  502 -0.49250705294E+01 -0.33269845016E+02 -0.88100130604E+02  0.94394090491E+02  0.41800000000E+01 0. -1.
        -11    1    1    2    0    0 -0.23472423266E+02  0.31156507037E+02  0.29691990029E+02  0.49023431710E+02  0.00000000000E+00 0. -1.
         11    1    1    2    0    0 -0.30722121115E+02 -0.26953573431E+02 -0.38787287263E+02  0.56345341420E+02  0.00000000000E+00 0.  1.
</event>
<event>
 7    1  0.2943257E-009  0.1668867E+03  0.7561462E-02  0.1181134E+00
         -2   -1    0    0    0  501 -0.00000000000E+00  0.00000000000E+00  0.76829453936E+02  0.76829453936E+02  0.00000000000E+00 0. -1.
          2   -1    0    0  501    0  0.00000000000E+00 -0.00000000000E+00 -0.44849395635E+03  0.44849395635E+03  0.00000000000E+00 0.  1.
         25    2    1    2    0    0  0.38413003420E+02  0.14517117528E+03 -0.18543575202E+03  0.26941446654E+03  0.12508999837E+03 0.  0.
          5    1    3    3  502    0  0.21430388021E+02  0.14605177461E+03 -0.19861396671E+03  0.24749820720E+03  0.41800000000E+01 0. -1.
         -5    1    3    3    0  502  0.16982615399E+02 -0.88059933139E+00  0.13178214691E+02  0.21916259339E+02  0.41800000000E+01 0. -1.
        -11    1    1    2    0    0  0.10745386214E+02 -0.10374828198E+03 -0.14818133473E+03  0.18120948458E+03  0.00000000000E+00 0.  1.
         11    1    1    2    0    0 -0.49158389634E+02 -0.41422893296E+02 -0.38047415660E+02  0.74699459160E+02  0.00000000000E+00 0. -1.
</event>
<event>
 7    1  0.2943257E-009  0.8926041E+02  0.7561462E-02  0.1304653E+00
         -1   -1    0    0    0  501 -0.00000000000E+00  0.00000000000E+00  0.15797304237E+03  0.15797304237E+03  0.00000000000E+00 0.  1.
          1   -1    0    0  501    0  0.00000000000E+00 -0.00000000000E+00 -0.82777698338E+02  0.82777698338E+02  0.00000000000E+00 0. -1.
         25    2    1    2    0    0 -0.25756432801E+02  0.25418508976E+02  0.45155780264E+02  0.13782538947E+03  0.12508916445E+03 0.  0.
          5    1    3    3  502    0 -0.11621358085E+02  0.53589279388E+02 -0.25295109994E+02  0.60532485648E+02  0.41800000000E+01 0. -1.
         -5    1    3    3    0  502 -0.14135074716E+02 -0.28170770412E+02  0.70450890259E+02  0.77292903821E+02  0.41800000000E+01 0. -1.
        -11    1    1    2    0    0 -0.21629303983E+02  0.17482809014E+02  0.27260498110E+02  0.38943679320E+02  0.00000000000E+00 0.  1.
         11    1    1    2    0    0  0.47385736783E+02 -0.42901317990E+02  0.27790656583E+01  0.63981671920E+02  0.00000000000E+00 0. -1.
</event>
<event>
 7    1  0.2943257E-009  0.1383481E+03  0.7561462E-02  0.1215569E+00
          2   -1    0    0  501    0  0.00000000000E+00  0.00000000000E+00  0.11251119051E+04  0.11251119051E+04  0.00000000000E+00 0.  1.
         -2   -1    0    0    0  501 -0.00000000000E+00 -0.00000000000E+00 -0.27415005774E+02  0.27415005774E+02  0.00000000000E+00 0. -1.
         25    2    1    2    0    0 -0.11537401532E+03 -0.22042664809E+02  0.82599934011E+03  0.84363440508E+03  0.12508819723E+03 0.  0.
          5    1    3    3  502    0 -0.69195738292E+02 -0.40025596583E+02  0.73979589443E+03  0.74411392703E+03  0.41800000000E+01 0.  1.
         -5    1    3    3    0  502 -0.46178277030E+02  0.17982931774E+02  0.86203445680E+02  0.99520478052E+02  0.41800000000E+01 0.  1.
        -11    1    1    2    0    0  0.11133130095E+03 -0.12597221958E+02  0.20427015276E+03  0.23297992163E+03  0.00000000000E+00 0. -1.
         11    1    1    2    0    0  0.40427143762E+01  0.34639886767E+02  0.67427406497E+02  0.75912584211E+02  0.00000000000E+00 0.  1.
</event>
<event>
 7    1  0.2943257E-009  0.1002979E+03  0.7561462E-02  0.1279671E+00
          3   -1    0    0  501    0  0.00000000000E+00  0.00000000000E+00  0.46186299943E+02  0.46186299943E+02  0.00000000000E+00 0. -1.
         -3   -1    0    0    0  501 -0.00000000000E+00 -0.00000000000E+00 -0.28400765308E+03  0.28400765308E+03  0.00000000000E+00 0.  1.
         25    2    1    2    0    0 -0.10130460383E+02  0.25857018736E+02 -0.18014513754E+03  0.22106768133E+03  0.12508971782E+03 0.  0.
          5    1    3    3  502    0  0.46938346980E+02  0.43419365762E+02 -0.64884350651E+02  0.91191562657E+02  0.41800000000E+01 0. -1.
         -5    1    3    3    0  502 -0.57068807363E+02 -0.17562347026E+02 -0.11526078689E+03  0.12987611867E+03  0.41800000000E+01 0. -1.
        -11    1    1    2    0    0  0.11203680350E+02 -0.50635611795E+02 -0.65105265245E+02  0.83235708670E+02  0.00000000000E+00 0.  1.
         11    1    1    2    0    0 -0.10732199668E+01  0.24778593059E+02  0.74290496478E+01  0.25890563025E+02  0.00000000000E+00 0. -1.
</event>
<event>
 7    1  0.2943257E-009  0.1159938E+03  0.7561462E-02  0.1249856E+00
         -2   -1    0    0    0  501 -0.00000000000E+00  0.00000000000E+00  0.34324140065E+02  0.34324140065E+02  0.00000000000E+00 0.  1.
          2   -1    0    0  501    0  0.00000000000E+00 -0.00000000000E+00 -0.46563982985E+03  0.46563982985E+03  0.00000000000E+00 0. -1.
         25    2    1    2    0    0 -0.17002704924E+02 -0.64127605107E+02 -0.22409403883E+03  0.26507956951E+03  0.12509036022E+03 0.  0.
          5    1    3    3  502    0 -0.21864280386E+02  0.29679759122E+02 -0.24535565948E+02  0.44479222731E+02  0.41800000000E+01 0.  1.
         -5    1    3    3    0  502  0.48615754627E+01 -0.93807364229E+02 -0.19955847289E+03  0.22060034678E+03  0.41800000000E+01 0.  1.
        -11    1    1    2    0    0  0.40612479600E+02  0.10024772965E+02 -0.13649184845E+03  0.14275816707E+03  0.00000000000E+00 0.  1.
         11    1    1    2    0    0 -0.23609774676E+02  0.54102832142E+02 -0.70729802505E+02  0.92126233335E+02  0.00000000000E+00 0. -1.
</event>
<event>
 7    1  0.2943257E-009  0.1113696E+03  0.7561462E-02  0.1258054E+00
         -2   -1    0    0    0  501 -0.00000000000E+00  0.00000000000E+00  0.87694220488E+02  0.87694220488E+02  0.00000000000E+00 0.  1.
          2   -1    0    0  501    0  0.00000000000E+00 -0.00000000000E+00 -0.17045595645E+03  0.17045595645E+03  0.00000000000E+00 0. -1.
         25    2    1    2    0    0 -0.52687590656E+02  0.19999827666E+02 -0.58812915676E+02  0.14930213486E+03  0.12512471021E+03 0.  0.
          5    1    3    3  502    0 -0.51140817011E+02 -0.34845682307E+02 -0.69601771792E+02  0.93228127604E+02  0.41800000000E+01 0. -1.
         -5    1    3    3    0  502 -0.15467736453E+01  0.54845509973E+02  0.10788856117E+02  0.56074007251E+02  0.41800000000E+01 0. -1.
        -11    1    1    2    0    0 -0.17220467094E+02  0.18995715670E+02 -0.10363643109E+02  0.27654778958E+02  0.00000000000E+00 0. -1.
         11    1    1    2    0    0  0.69908057750E+02 -0.38995543335E+02 -0.13585177180E+02  0.81193263128E+02  0.00000000000E+00 0.  1.
</event>
<event>
 7    1  0.2943257E-009  0.2279887E+03  0.7561462E-02  0.1128063E+00
          1   -1    0    0  501    0  0.00000000000E+00  0.00000000000E+00  0.84758609512E+03  0.84758609512E+03  0.00000000000E+00 0. -1.
         -1   -1    0    0    0  501 -0.00000000000E+00 -0.00000000000E+00 -0.70724459993E+02  0.70724459993E+02  0.00000000000E+00 0.  1.
         25    2    1    2    0    0 -0.17543322314E+03 -0.12353827341E+03  0.31572795325E+03  0.40170878113E+03  0.12508910261E+03 0.  0.
          5    1    3    3  502    0 -0.15241311363E+03 -0.75084028086E+02  0.14733335041E+03  0.22492655918E+03  0.41800000000E+01 0.  1.
         -5    1    3    3    0  502 -0.23020109511E+02 -0.48454245329E+02  0.16839460284E+03  0.17678222195E+03  0.41800000000E+01 0.  1.
        -11    1    1    2    0    0  0.48401321017E+02 -0.83298753455E+01  0.11424505928E+03  0.12435436570E+03  0.00000000000E+00 0.  1.
         11    1    1    2    0    0  0.12703190213E+03  0.13186814876E+03  0.34688862260E+03  0.39224740829E+03  0.00000000000E+00 0. -1.
</event>
<event>
 7    1  0.2943257E-009  0.8010777E+02  0.7561462E-02  0.1328746E+00
          1   -1    0    0  501    0  0.00000000000E+00  0.00000000000E+00  0.43521546524E+03  0.43521546524E+03  0.00000000000E+00 0. -1.
         -1   -1    0    0    0  501 -0.00000000000E+00 -0.00000000000E+00 -0.28821643995E+02  0.28821643995E+02  0.00000000000E+00 0.  1.
         25    2    1    2    0    0 -0.21077127438E+02  0.20231162204E+02  0.24384108083E+03  0.27560877640E+03  0.12509268445E+03 0.  0.
          5    1    3    3  502    0 -0.47795587313E+02 -0.34169222861E+02  0.17042233656E+03  0.18031416793E+03  0.41800000000E+01 0.  1.
         -5    1    3    3    0  502  0.26718459875E+02  0.54400385065E+02  0.73418744265E+02  0.95294608466E+02  0.41800000000E+01 0.  1.
        -11    1    1    2    0    0  0.27252225489E+02 -0.10853521579E+02  0.17155009640E+03  0.17403999052E+03  0.00000000000E+00 0. -1.
         11    1    1    2    0    0 -0.61750980509E+01 -0.93776406247E+01 -0.89973559906E+01  0.14388342311E+02  0.00000000000E+00 0.  1.
</event>
<event>
 7    1  0.2943257E-009  0.1284944E+03  0.7561462E-02  0.1229707E+00
         -1   -1    0    0    0  501 -0.00000000000E+00  0.00000000000E+00  0.16909875537E+04  0.16909875537E+04  0.00000000000E+00 0.  1.
          1   -1    0    0  501    0  0.00000000000E+00 -0.00000000000E+00 -0.10429675517E+02  0.10429675517E+02  0.00000000000E+00 0. -1.
         25    2    1    2    0    0  0.75682135813E+02  0.10583455054E+02  0.10689112976E+04  0.10789153764E+04  0.12508889681E+03 0.  0.
          5    1    3    3  502    0 -0.32573863385E+02 -0.26030458093E+01  0.15182257427E+03  0.15535571725E+03  0.41800000000E+01 0.  1.
         -5    1    3    3    0  502  0.10825599920E+03  0.13186500863E+02  0.91708872331E+03  0.92355965914E+03  0.41800000000E+01 0.  1.
        -11    1    1    2    0    0 -0.24472842462E+02 -0.46371500617E+02  0.24226037131E+03  0.24786956973E+03  0.00000000000E+00 0. -1.
         11    1    1    2    0    0 -0.51209293351E+02  0.35788045563E+02  0.36938620927E+03  0.37463228308E+03  0.00000000000E+00 0.  1.
</event>
<event>
 7    1  0.2943257E-009  0.1749184E+03  0.7561462E-02  0.1172814E+00
         -1   -1    0    0    0  501 -0.00000000000E+00  0.00000000000E+00  0.10859055444E+03  0.10859055444E+03  0.00000000000E+00 0.  1.
          1   -1    0    0  501    0  0.00000000000E+00 -0.00000000000E+00 -0.33899474991E+03  0.33899474991E+03  0.00000000000E+00 0. -1.
         25    2    1    2    0    0  0.14054870134E+03  0.64623797691E+02 -0.85312855263E+02  0.21646109459E+03  0.12508776727E+03 0.  0.
          5    1    3    3  502    0  0.12557305508E+02  0.37948173286E+02 -0.75195587929E+02  0.85261941224E+02  0.41800000000E+01 0. -1.
         -5    1    3    3    0  502  0.12799139584E+03  0.26675624405E+02 -0.10117267334E+02  0.13119915336E+03  0.41800000000E+01 0. -1.
        -11    1    1    2    0    0 -0.42448055670E+02 -0.68584607565E+02 -0.78044820599E+02  0.11223493149E+03  0.00000000000E+00 0.  1.
         11    1    1    2    0    0 -0.98100645674E+02  0.39608098743E+01 -0.67046519610E+02  0.11888927827E+03  0.00000000000E+00 0. -1.
</event>
<event>
 7    1  0.4192678E-009  0.2086058E+03  0.7561462E-02  0.1142675E+00
         -2   -1    0    0    0  501 -0.00000000000E+00  0.00000000000E+00  0.26649504267E+03  0.26649504267E+03  0.00000000000E+00 0.  1.
          2   -1    0    0  501    0  0.00000000000E+00 -0.00000000000E+00 -0.22730841412E+03  0.22730841412E+03  0.00000000000E+00 0. -1.
         25    2    1    2    0    0  0.13393304891E+03  0.13969910121E+03  0.12638417297E+03  0.26282776542E+03  0.12510625335E+03 0.  0.
          5    1    3    3  502    0  0.13366504363E+03  0.15428896732E+03  0.13556767130E+03  0.24508670961E+03  0.41800000000E+01 0.  1.
         -5    1    3    3    0  502  0.26800527434E+00 -0.14589866104E+02 -0.91834983237E+01  0.17741055809E+02  0.41800000000E+01 0.  1.
        -11    1    1    2    0    0 -0.96402545821E+02 -0.71549094848E+02 -0.94568592456E+02  0.15282651109E+03  0.00000000000E+00 0. -1.
         11    1    1    2    0    0 -0.37530503087E+02 -0.68150006363E+02  0.73710480297E+01  0.78149180279E+02  0.00000000000E+00 0.  1.
</event>
<event>
 7    1  0.2943257E-009  0.2673728E+03  0.7561462E-02  0.1102793E+00
          1   -1    0    0  501    0  0.00000000000E+00  0.00000000000E+00  0.12066567469E+04  0.12066567469E+04  0.00000000000E+00 0. -1.
         -1   -1    0    0    0  501 -0.00000000000E+00 -0.00000000000E+00 -0.78334602728E+02  0.78334602728E+02  0.00000000000E+00 0.  1.
         25    2    1    2    0    0  0.26350964530E+01  0.25236848839E+03  0.86250339211E+03  0.90733534706E+03  0.12509409640E+03 0.  0.
          5    1    3    3  502    0  0.21063172480E+02 -0.62557357692E+01  0.69593068062E+02  0.73098967074E+02  0.41800000000E+01 0. -1.
         -5    1    3    3    0  502 -0.18428076027E+02  0.25862422416E+03  0.79291032405E+03  0.83423637999E+03  0.41800000000E+01 0. -1.
        -11    1    1    2    0    0 -0.10644512474E+02 -0.13002235303E+03  0.73952821621E+02  0.14996045398E+03  0.00000000000E+00 0.  1.
         11    1    1    2    0    0  0.80094160206E+01 -0.12234613537E+03  0.19186593046E+03  0.22769554861E+03  0.00000000000E+00 0. -1.
</event>
<event>
 7    1  0.2943257E-009  0.1276670E+03  0.7561462E-02  0.1230959E+00
          1   -1    0    0  501    0  0.00000000000E+00  0.00000000000E+00  0.32730348724E+03  0.32730348724E+03  0.00000000000E+00 0. -1.
         -1   -1    0    0    0  501 -0.00000000000E+00 -0.00000000000E+00 -0.88034704917E+02  0.88034704917E+02  0.00000000000E+00 0.  1.
         25    2    1    2    0    0 -0.62664957925E+02  0.32378940036E+02  0.25977593142E+03  0.29683146851E+03  0.12510033350E+03 0.  0.
          5    1    3    3  502    0 -0.95318136030E+02 -0.20751540409E+01  0.18495783540E+03  0.20812670804E+03  0.41800000000E+01 0. -1.
         -5    1    3    3    0  502  0.32653178105E+02  0.34454094077E+02  0.74818096012E+02  0.88704760469E+02  0.41800000000E+01 0. -1.
        -11    1    1    2    0    0  0.53046146360E+02  0.21705934015E+02 -0.26692524952E+02  0.63226039757E+02  0.00000000000E+00 0.  1.
         11    1    1    2    0    0  0.96188115655E+01 -0.54084874051E+02  0.61853758564E+01  0.55280683891E+02  0.00000000000E+00 0. -1.
</event>
<event>
 7    1  0.4124718E-009  0.9858823E+02  0.7561462E-02  0.1283293E+00
          2   -1    0    0  501    0  0.00000000000E+00  0.00000000000E+00  0.22877308601E+03  0.22877308601E+03  0.00000000000E+00 0. -1.
         -2   -1    0    0    0  501 -0.00000000000E+00 -0.00000000000E+00 -0.82091327547E+02  0.82091327547E+02  0.00000000000E+00 0.  1.
         25    2    1    2    0    0 -0.60418841579E+02 -0.20193072003E+02  0.18653102059E+02  0.14160953845E+03  0.12508847505E+03 0.  0.
          5    1    3    3  502    0 -0.17315803132E+02  0.48636479882E+02  0.29439760677E+02  0.59577815687E+02  0.41800000000E+01 0.  1.
         -5    1    3    3    0  502 -0.43103038447E+02 -0.68829551884E+02 -0.10786658617E+02  0.82031722767E+02  0.41800000000E+01 0.  1.
        -11    1    1    2    0    0  0.38314127010E+02  0.16201852069E+02  0.13839811919E+03  0.14451474574E+03  0.00000000000E+00 0. -1.
         11    1    1    2    0    0  0.22104714569E+02  0.39912199336E+01 -0.10369462787E+02  0.24740129370E+02  0.00000000000E+00 0.  1.
</event>
<event>
 7    1  0.2943257E-009  0.9999199E+02  0.7561462E-02  0.1280313E+00
          1   -1    0    0  501    0  0.00000000000E+00  0.00000000000E+00  0.59320761205E+02  0.59320761205E+02  0.00000000000E+00 0. -1.
         -1   -1    0    0    0  501 -0.00000000000E+00 -0.00000000000E+00 -0.44758568026E+03  0.44758568026E+03  0.00000000000E+00 0.  1.
         25    2    1    2    0    0 -0.21446167023E+02  0.67584373515E+02 -0.54771657009E+02  0.15386750131E+03  0.12509071878E+03 0.  0.
          5    1    3    3  502    0 -0.15212806730E+02  0.73895010465E+02  0.20234727422E+02  0.78222878073E+02  0.41800000000E+01 0.  1.
         -5    1    3    3    0  502 -0.62333602926E+01 -0.63106369501E+01 -0.75006384430E+02  0.75644623236E+02  0.41800000000E+01 0.  1.
        -11    1    1    2    0    0  0.32556950165E+02 -0.86642537768E+02 -0.28744084793E+03  0.30197537220E+03  0.00000000000E+00 0.  1.
         11    1    1    2    0    0 -0.11110783142E+02  0.19058164253E+02 -0.46052414118E+02  0.51063567960E+02  0.00000000000E+00 0. -1.
</event>
<event>
 7    1  0.2943257E-009  0.1102548E+03  0.7561462E-02  0.1260099E+00
         -2   -1    0    0    0  501 -0.00000000000E+00  0.00000000000E+00  0.29031339392E+02  0.29031339392E+02  0.00000000000E+00 0.  1.
          2   -1    0    0  501    0  0.00000000000E+00 -0.00000000000E+00 -0.14591104344E+04  0.14591104344E+04  0.00000000000E+00 0. -1.
         25    2    1    2    0    0 -0.32756171910E+02 -0.51297061938E+02 -0.13373201458E+04  0.13445367561E+04  0.12509820468E+03 0.  0.
          5    1    3    3  502    0  0.33766064699E+02 -0.54058889547E+02 -0.88763813339E+03  0.88993339015E+03  0.41800000000E+01 0. -1.
         -5    1    3    3    0  502 -0.66522236609E+02  0.27618276085E+01 -0.44968201237E+03  0.45460336592E+03  0.41800000000E+01 0. -1.
        -11    1    1    2    0    0 -0.20320528236E+02  0.98512115142E+01 -0.68337180533E+02  0.71971803363E+02  0.00000000000E+00 0. -1.
         11    1    1    2    0    0  0.53076700146E+02  0.41445850424E+02 -0.24421768756E+02  0.71633214397E+02  0.00000000000E+00 0.  1.
</event>
<event>
 7    1  0.2943257E-009  0.1184580E+03  0.7561462E-02  0.1245663E+00
          1   -1    0    0  501    0  0.00000000000E+00  0.00000000000E+00  0.77239714978E+03  0.77239714978E+03  0.00000000000E+00 0. -1.
         -1   -1    0    0    0  501 -0.00000000000E+00 -0.00000000000E+00 -0.28199573731E+02  0.28199573731E+02  0.00000000000E+00 0.  1.
         25    2    1    2    0    0 -0.78575232083E+02 -0.31822188186E+02  0.54605103378E+03  0.56658002810E+03  0.12511785640E+03 0.  0.
          5    1    3    3  502    0  0.16007342914E+02 -0.24235207303E+02  0.32059007273E+03  0.32193019031E+03  0.41800000000E+01 0.  1.
         -5    1    3    3    0  502 -0.94582574997E+02 -0.75869808834E+01  0.22546096105E+03  0.24464983778E+03  0.41800000000E+01 0.  1.
        -11    1    1    2    0    0  0.22581941274E+01  0.36087266537E+02  0.11734771736E+03  0.12279200713E+03  0.00000000000E+00 0.  1.
         11    1    1    2    0    0  0.76317037955E+02 -0.42650783505E+01  0.80798824911E+02  0.11122468828E+03  0.00000000000E+00 0. -1.
</event>
<event>
 7    1  0.2943257E-009  0.9980228E+02  0.7561462E-02  0.1280712E+00
          1   -1    0    0  501    0  0.00000000000E+00  0.00000000000E+00  0.10730183451E+03  0.10730183451E+03  0.00000000000E+00 0. -1.
         -1   -1    0    0    0  501 -0.00000000000E+00 -0.00000000000E+00 -0.12444135300E+03  0.12444135300E+03  0.00000000000E+00 0.  1.
         25    2    1    2    0    0 -0.20111659447E+02 -0.18196077062E+02  0.20750641453E+02  0.12966804058E+03  0.12509050948E+03 0.  0.
          5    1    3    3  502    0 -0.65619901899E+02 -0.17825673421E+02 -0.17199729756E+02  0.70263996911E+02  0.41800000000E+01 0. -1.
         -5    1    3    3    0  502  0.45508242452E+02 -0.37040364127E+00  0.37950371209E+02  0.59404043674E+02  0.41800000000E+01 0. -1.
        -11    1    1    2    0    0 -0.23856637599E+02 -0.17134656387E+02  0.67560860083E+01  0.30139348122E+02  0.00000000000E+00 0.  1.
         11    1    1    2    0    0  0.43968297046E+02  0.35330733450E+02 -0.44646245952E+02  0.71935798799E+02  0.00000000000E+00 0. -1.
</event>
<event>
 7    1  0.2943257E-009  0.8120766E+02  0.7561462E-02  0.1325659E+00
         -1   -1    0    0    0  501 -0.00000000000E+00  0.00000000000E+00  0.22693900017E+02  0.22693900017E+02  0.00000000000E+00 0.  1.
          1   -1    0    0  501    0  0.00000000000E+00 -0.00000000000E+00 -0.59055463455E+03  0.59055463455E+03  0.00000000000E+00 0. -1.
         25    2    1    2    0    0  0.39946794371E+02  0.97228497355E+01 -0.32091528990E+03  0.34687807683E+03  0.12508995443E+03 0.  0.
          5    1    3    3  502    0  0.20837591176E+02 -0.24685291386E+02 -0.30065468371E+03  0.30241408706E+03  0.41800000000E+01 0. -1.
         -5    1    3    3    0  502  0.19109203195E+02  0.34408141121E+02 -0.20260606193E+02  0.44463989761E+02  0.41800000000E+01 0. -1.
        -11    1    1    2    0    0  0.23114966704E+02 -0.14053234579E+02 -0.29961112111E+02  0.40366611534E+02  0.00000000000E+00 0.  1.
         11    1    1    2    0    0 -0.63061761075E+02  0.43303848434E+01 -0.21698433251E+03  0.22600384621E+03  0.00000000000E+00 0. -1.
</event>
<event>
 7    1  0.2943257E-009  0.1789554E+03  0.7561462E-02  0.1168818E+00
         -1   -1    0    0    0  501 -0.00000000000E+00  0.00000000000E+00  0.34107891579E+03  0.34107891579E+03  0.00000000000E+00 0.  1.
          1   -1    0    0  501    0  0.00000000000E+00 -0.00000000000E+00 -0.11033808435E+03  0.11033808435E+03  0.00000000000E+00 0. -1.
         25    2    1    2    0    0  0.14284855333E+03 -0.67353261728E+02  0.15328247044E+03  0.25315067223E+03  0.12509027161E+03 0.  0.
          5    1    3    3  502    0  0.82653117451E+02  0.27547057257E+02  0.83814775913E+02  0.12096597558E+03  0.41800000000E+01 0. -1.
         -5    1    3    3    0  502  0.60195435880E+02 -0.94900318985E+02  0.69467694528E+02  0.13218469665E+03  0.41800000000E+01 0. -1.
        -11    1    1    2    0    0 -0.28240707176E+02  0.91324014549E+01 -0.20988223147E+02  0.36351668586E+02  0.00000000000E+00 0.  1.
         11    1    1    2    0    0 -0.11460784615E+03  0.58220860273E+02  0.98446584148E+02  0.16191465932E+03  0.00000000000E+00 0. -1.
</event>
<event>
 7    1  0.2943257E-009  0.1776419E+03  0.7561462E-02  0.1170105E+00
         -4   -1    0    0    0  501 -0.00000000000E+00  0.00000000000E+00  0.31830456453E+03  0.31830456453E+03  0.00000000000E+00 0.  1.
          4   -1    0    0  501    0  0.00000000000E+00 -0.00000000000E+00 -0.10930626003E+03  0.10930626003E+03  0.00000000000E+00 0. -1.
         25    2    1    2    0    0  0.14156864849E+03 -0.48424535408E+02  0.83643065433E+02  0.21219905103E+03  0.12508260069E+03 0.  0.
          5    1    3    3  502    0  0.14736134265E+02  0.36887882412E+02  0.50141219749E+01  0.40255227501E+02  0.41800000000E+01 0.  1.
         -5    1    3    3    0  502  0.12683251422E+03 -0.85312417821E+02  0.78628943458E+02  0.17194382352E+03  0.41800000000E+01 0.  1.
        -11    1    1    2    0    0 -0.12849093451E+03  0.18556215950E+02  0.12848697988E+03  0.18265584414E+03  0.00000000000E+00 0. -1.
         11    1    1    2    0    0 -0.13077713983E+02  0.29868319459E+02 -0.31317408087E+01  0.32755929399E+02  0.00000000000E+00 0.  1.
</event>
<event>
 7    1  0.2943257E-009  0.1025066E+03  0.7561462E-02  0.1275112E+00
         -2   -1    0    0    0  501 -0.00000000000E+00  0.00000000000E+00  0.11858205459E+03  0.11858205459E+03  0.00000000000E+00 0. -1.
          2   -1    0    0  501    0  0.00000000000E+00 -0.00000000000E+00 -0.13900400575E+03  0.13900400575E+03  0.00000000000E+00 0.  1.
         25    2    1    2    0    0  0.55123984280E+01 -0.58368206934E+02  0.29643713848E+02  0.14128969895E+03  0.12508715019E+03 0.  0.
          5    1    3    3  502    0  0.14464176129E+02  0.35968722564E+02  0.25009000778E+02  0.46323686316E+02  0.41800000000E+01 0. -1.
         -5    1    3    3    0  502 -0.89517777007E+01 -0.94336929497E+02  0.46347130694E+01  0.94966012637E+02  0.41800000000E+01 0. -1.
        -11    1    1    2    0    0 -0.22847173111E+02  0.27379552411E+02  0.17685355069E+02  0.39804585079E+02  0.00000000000E+00 0. -1.
         11    1    1    2    0    0  0.17334774683E+02  0.30988654523E+02 -0.67751020078E+02  0.76491776316E+02  0.00000000000E+00 0.  1.
</event>
<event>
 7    1  0.2943257E-009  0.1319364E+03  0.7561462E-02  0.1224610E+00
          1   -1    0    0  501    0  0.00000000000E+00  0.00000000000E+00  0.53928265646E+03  0.53928265646E+03  0.00000000000E+00 0. -1.
         -1   -1    0    0    0  501 -0.00000000000E+00 -0.00000000000E+00 -0.35486628377E+02  0.35486628377E+02  0.00000000000E+00 0.  1.
         25    2    1    2    0    0  0.72927514354E+02 -0.19471859809E+02  0.19168190185E+03  0.24101306530E+03  0.12509104874E+03 0.  0.
          5    1    3    3  502    0  0.72151254658E+02 -0.66676831903E+02  0.13723422373E+03  0.16882626580E+03  0.41800000000E+01 0.  1.
         -5    1    3    3    0  502  0.77625969620E+00  0.47204972093E+02  0.54447678117E+02  0.72186799498E+02  0.41800000000E+01 0.  1.
        -11    1    1    2    0    0 -0.21318806707E+02 -0.36338547323E+02  0.11735708871E+03  0.12469028755E+03  0.00000000000E+00 0.  1.
         11    1    1    2    0    0 -0.51608707647E+02  0.55810407132E+02  0.19475703753E+03  0.20906593198E+03  0.00000000000E+00 0. -1.
</event>
<event>
 7    1  0.2943257E-009  0.1063743E+03  0.7561462E-02  0.1267435E+00
         -1   -1    0    0    0  501 -0.00000000000E+00  0.00000000000E+00  0.49874048679E+02  0.49874048679E+02  0.00000000000E+00 0. -1.
          1   -1    0    0  501    0  0.00000000000E+00 -0.00000000000E+00 -0.27326763870E+03  0.27326763870E+03  0.00000000000E+00 0.  1.
         25    2    1    2    0    0  0.20666417948E+02 -0.65943852617E+02 -0.16535520131E+03  0.21855075278E+03  0.12508555636E+03 0.  0.
          5    1    3    3  502    0 -0.43083166790E+02  0.91982020236E+01 -0.49362421258E+02  0.66293945527E+02  0.41800000000E+01 0.  1.
         -5    1    3    3    0  502  0.63749584737E+02 -0.75142054641E+02 -0.11599278005E+03  0.15225680725E+03  0.41800000000E+01 0.  1.
        -11    1    1    2    0    0 -0.20692701562E+02  0.52612806191E+02 -0.67644536299E+02  0.88159392944E+02  0.00000000000E+00 0.  1.
         11    1    1    2    0    0  0.26283614350E-01  0.13331046426E+02  0.96061475897E+01  0.16431541655E+02  0.00000000000E+00 0. -1.
</event>
<event>
 7    1  0.2943257E-009  0.1183629E+03  0.7561462E-02  0.1245822E+00
         -1   -1    0    0    0  501 -0.00000000000E+00  0.00000000000E+00  0.58268155129E+03  0.58268155129E+03  0.00000000000E+00 0.  1.
          1   -1    0    0  501    0  0.00000000000E+00 -0.00000000000E+00 -0.26690973480E+02  0.26690973480E+02  0.00000000000E+00 0. -1.
         25    2    1    2    0    0 -0.50175576248E+02  0.29084786390E+02  0.25902145329E+03  0.29343357681E+03  0.12509051716E+03 0.  0.
          5    1    3    3  502    0 -0.35375757620E+02  0.74073906730E+02  0.20821096122E+03  0.22384741378E+03  0.41800000000E+01 0. -1.
         -5    1    3    3    0  502 -0.14799818628E+02 -0.44989120339E+02  0.50810492070E+02  0.69586163026E+02  0.41800000000E+01 0. -1.
        -11    1    1    2    0    0 -0.16201912553E+02  0.19038973048E+02  0.53907542678E+02  0.59422282207E+02  0.00000000000E+00 0. -1.
         11    1    1    2    0    0  0.66377488801E+02 -0.48123759439E+02  0.24306158184E+03  0.25651666576E+03  0.00000000000E+00 0.  1.
</event>
<event>
 7    1  0.2943257E-009  0.8867401E+02  0.7561462E-02  0.1306095E+00
          4   -1    0    0  501    0  0.00000000000E+00  0.00000000000E+00  0.76529110682E+02  0.76529110682E+02  0.00000000000E+00 0. -1.
         -4   -1    0    0    0  501 -0.00000000000E+00 -0.00000000000E+00 -0.18753292576E+03  0.18753292576E+03  0.00000000000E+00 0.  1.
         25    2    1    2    0    0 -0.40625068137E+02  0.16600085738E+02 -0.92042392578E+02  0.16138337194E+03  0.12508729631E+03 0.  0.
          5    1    3    3  502    0  0.31152513705E+02  0.21646933957E+02  0.70906684956E+01  0.38817764484E+02  0.41800000000E+01 0.  1.
         -5    1    3    3    0  502 -0.71777581842E+02 -0.50468482187E+01 -0.99133061073E+02  0.12256560745E+03  0.41800000000E+01 0.  1.
        -11    1    1    2    0    0  0.52651774461E+02 -0.10770239796E+02  0.23136021081E+02  0.58510536578E+02  0.00000000000E+00 0. -1.
         11    1    1    2    0    0 -0.12026706324E+02 -0.58298459419E+01 -0.42097443584E+02  0.44168127932E+02  0.00000000000E+00 0.  1.
</event>
<event>
 7    1  0.2943257E-009  0.2719723E+03  0.7561462E-02  0.1100156E+00
         -2   -1    0    0    0  501 -0.00000000000E+00  0.00000000000E+00  0.16402829178E+04  0.16402829178E+04  0.00000000000E+00 0.  1.
          2   -1    0    0  501    0  0.00000000000E+00 -0.00000000000E+00 -0.11745896444E+03  0.11745896444E+03  0.00000000000E+00 0. -1.
         25    2    1    2    0    0 -0.20128717122E+03  0.18099659289E+03  0.14252287883E+04  0.14560908083E+04  0.12508817290E+03 0.  0.
          5    1    3    3  502    0 -0.94591437689E+02  0.86733786918E+02  0.98648409996E+03  0.99480583118E+03  0.41800000000E+01 0. -1.
         -5    1    3    3    0  502 -0.10669573353E+03  0.94262805974E+02  0.43874468834E+03  0.46128497709E+03  0.41800000000E+01 0. -1.
        -11    1    1    2    0    0  0.53539197914E+02 -0.70932905159E+02  0.74510320172E+02  0.11597288717E+03  0.00000000000E+00 0.  1.
         11    1    1    2    0    0  0.14774797330E+03 -0.11006368773E+03  0.23084844848E+02  0.18567818675E+03  0.00000000000E+00 0. -1.
</event>
<event>
 7    1  0.2943257E-009  0.1377609E+03  0.7561462E-02  0.1216374E+00
         -1   -1    0    0    0  501 -0.00000000000E+00  0.00000000000E+00  0.20367715036E+02  0.20367715036E+02  0.00000000000E+00 0.  1.
          1   -1    0    0  501    0  0.00000000000E+00 -0.00000000000E+00 -0.11822595226E+04  0.11822595226E+04  0.00000000000E+00 0. -1.
         25    2    1    2    0    0 -0.63148455969E+02  0.67224432168E+02 -0.85298171604E+03  0.86702526551E+03  0.12509257116E+03 0.  0.
          5    1    3    3  502    0  0.32109744500E+02  0.18296685059E+02 -0.39150502495E+03  0.39326767136E+03  0.41800000000E+01 0. -1.
         -5    1    3    3    0  502 -0.95258200468E+02  0.48927747109E+02 -0.46147669109E+03  0.47375759415E+03  0.41800000000E+01 0. -1.
        -11    1    1    2    0    0 -0.81895289434E+01 -0.58751333612E+02 -0.13871510829E+03  0.15086639405E+03  0.00000000000E+00 0.  1.
         11    1    1    2    0    0  0.71337984912E+02 -0.84730985562E+01 -0.17019498325E+03  0.18473557810E+03  0.00000000000E+00 0. -1.
</event>
<event>
 7    1  0.2943257E-009  0.1242413E+03  0.7561462E-02  0.1236260E+00
          1   -1    0    0  501    0  0.00000000000E+00  0.00000000000E+00  0.14505233788E+03  0.14505233788E+03  0.00000000000E+00 0. -1.
         -1   -1    0    0    0  501 -0.00000000000E+00 -0.00000000000E+00 -0.12043180540E+03  0.12043180540E+03  0.00000000000E+00 0.  1.
         25    2    1    2    0    0  0.56691606160E+02  0.36476628948E+02 -0.18095738845E+02  0.14324662774E+03  0.12509059887E+03 0.  0.
          5    1    3    3  502    0  0.91836308136E+02  0.77853458837E+01  0.45405900842E+01  0.92372119499E+02  0.41800000000E+01 0. -1.
         -5    1    3    3    0  502 -0.35144701975E+02  0.28691283065E+02 -0.22636328929E+02  0.50874508236E+02  0.41800000000E+01 0. -1.
        -11    1    1    2    0    0 -0.28387685583E+02 -0.64722457566E+02  0.11710028327E+02  0.71637852910E+02  0.00000000000E+00 0.  1.
         11    1    1    2    0    0 -0.28303920578E+02  0.28245828618E+02  0.31006242996E+02  0.50599662638E+02  0.00000000000E+00 0. -1.
</event>
<event>
 7    1  0.2965676E-009  0.1748490E+03  0.7561462E-02  0.1172883E+00
          2   -1    0    0  501    0  0.00000000000E+00  0.00000000000E+00  0.73139129301E+03  0.73139129301E+03  0.00000000000E+00 0. -1.
         -2   -1    0    0    0  501 -0.00000000000E+00 -0.00000000000E+00 -0.94481085972E+02  0.94481085972E+02  0.00000000000E+00 0.  1.
         25    2    1    2    0    0  0.14528038443E+03 -0.90861228201E+02  0.64913196485E+02  0.22185219783E+03  0.12507006722E+03 0.  0.
          5    1    3    3  502    0  0.12455680544E+03 -0.94227329423E+02  0.29194128059E+01  0.15626638398E+03  0.41800000000E+01 0.  1.
         -5    1    3    3    0  502  0.20723578993E+02  0.33661012217E+01  0.61993783679E+02  0.65585813851E+02  0.41800000000E+01 0.  1.
        -11    1    1    2    0    0 -0.86229715819E+02  0.44879475995E+02  0.45399375856E+03  0.46428446460E+03  0.00000000000E+00 0. -1.
         11    1    1    2    0    0 -0.59050668613E+02  0.45981752206E+02  0.11800325199E+03  0.13973571655E+03  0.00000000000E+00 0.  1.
</event>
<event>
 7    1  0.2943257E-009  0.7373976E+02  0.7561462E-02  0.1347819E+00
          1   -1    0    0  501    0  0.00000000000E+00  0.00000000000E+00  0.45710175039E+03  0.45710175039E+03  0.00000000000E+00 0.  1.
         -1   -1    0    0    0  501 -0.00000000000E+00 -0.00000000000E+00 -0.36338964111E+02  0.36338964111E+02  0.00000000000E+00 0. -1.
         25    2    1    2    0    0 -0.56145157792E+02  0.17918541050E+02  0.16293814545E+03  0.21370635272E+03  0.12509281791E+03 0.  0.
          5    1    3    3  502    0 -0.46033960835E+02 -0.16463816196E+00  0.18043908254E+03  0.18626563710E+03  0.41800000000E+01 0.  1.
         -5    1    3    3    0  502 -0.10111196957E+02  0.18083179212E+02 -0.17500937095E+02  0.27440715616E+02  0.41800000000E+01 0.  1.
        -11    1    1    2    0    0  0.66165976989E+02 -0.91324867895E+01  0.25789800940E+03  0.26640706087E+03  0.00000000000E+00 0.  1.
         11    1    1    2    0    0 -0.10020819197E+02 -0.87860542606E+01 -0.73368568586E-01  0.13327300919E+02  0.00000000000E+00 0. -1.
</event>
<event>
 7    1  0.2943257E-009  0.1104055E+03  0.7561462E-02  0.1259821E+00
         -2   -1    0    0    0  501 -0.00000000000E+00  0.00000000000E+00  0.87893740846E+02  0.87893740846E+02  0.00000000000E+00 0.  1.
          2   -1    0    0  501    0  0.00000000000E+00 -0.00000000000E+00 -0.16871661233E+03  0.16871661233E+03  0.00000000000E+00 0. -1.
         25    2    1    2    0    0 -0.42480359317E+02  0.35210437051E+02 -0.43949215248E+02  0.14361144906E+03  0.12509340100E+03 0.  0.
          5    1    3    3  502    0  0.97001078792E+01 -0.35855281273E+02 -0.40739050765E+02  0.55288660187E+02  0.41800000000E+01 0.  1.
         -5    1    3    3    0  502 -0.52180467196E+02  0.71065718324E+02 -0.32101644832E+01  0.88322788870E+02  0.41800000000E+01 0.  1.
        -11    1    1    2    0    0  0.59943097098E+02 -0.48441394757E+01 -0.47233245765E+02  0.76469733114E+02  0.00000000000E+00 0.  1.
         11    1    1    2    0    0 -0.17462737781E+02 -0.30366297575E+02  0.10359589528E+02  0.36529171007E+02  0.00000000000E+00 0. -1.
</event>
<event>
 7    1  0.3666657E-009  0.1129029E+03  0.7561462E-02  0.1255287E+00
         -1   -1    0    0    0  501 -0.00000000000E+00  0.00000000000E+00  0.24616360481E+02  0.24616360481E+02  0.00000000000E+00 0.  1.
          1   -1    0    0  501    0  0.00000000000E+00 -0.00000000000E+00 -0.97370177066E+03  0.97370177066E+03  0.00000000000E+00 0. -1.
         25    2    1    2    0    0  0.83936326140E+02  0.62564935374E+02 -0.61614614149E+03  0.63737212964E+03  0.12508991159E+03 0.  0.
          5    1    3    3  502    0  0.76724855195E+02  0.22316880942E+02 -0.15533663783E+03  0.17473319671E+03  0.41800000000E+01 0.  1.
         -5    1    3    3    0  502  0.72114709454E+01  0.40248054432E+02 -0.46080950366E+03  0.46263893293E+03  0.41800000000E+01 0.  1.
        -11    1    1    2    0    0 -0.31037722268E+02 -0.23460756908E+02 -0.25432828342E+02  0.46481997330E+02  0.00000000000E+00 0.  1.
         11    1    1    2    0    0 -0.52898603872E+02 -0.39104178466E+02 -0.30750644035E+03  0.31446400417E+03  0.00000000000E+00 0. -1.
</event>
<event>
 7    1  0.2943257E-009  0.8497343E+02  0.7561462E-02  0.1315502E+00
          2   -1    0    0  501    0  0.00000000000E+00  0.00000000000E+00  0.75000900676E+03  0.75000900676E+03  0.00000000000E+00 0. -1.
         -2   -1    0    0    0  501 -0.00000000000E+00 -0.00000000000E+00 -0.20560046620E+02  0.20560046620E+02  0.00000000000E+00 0.  1.
         25    2    1    2    0    0  0.32868316347E+02  0.22874538466E+02  0.57012715881E+03  0.58506104200E+03  0.12509146623E+03 0.  0.
          5    1    3    3  502    0 -0.96767502150E+01 -0.18121823116E+02  0.12732334034E+02  0.24528039011E+02  0.41800000000E+01 0. -1.
         -5    1    3    3    0  502  0.42545066562E+02  0.40996361581E+02  0.55739482477E+03  0.56053300299E+03  0.41800000000E+01 0. -1.
        -11    1    1    2    0    0 -0.56389484533E+02  0.77792433985E+00  0.68341760837E+02  0.88605730099E+02  0.00000000000E+00 0.  1.
         11    1    1    2    0    0  0.23521168185E+02 -0.23652462805E+02  0.90980040497E+02  0.96902281286E+02  0.00000000000E+00 0. -1.
</event>
<event>
 7    1  0.2943257E-009  0.1753341E+03  0.7561462E-02  0.1172397E+00
         -2   -1    0    0    0  501 -0.00000000000E+00  0.00000000000E+00  0.57294773501E+02  0.57294773501E+02  0.00000000000E+00 0.  1.
          2   -1    0    0  501    0  0.00000000000E+00 -0.00000000000E+00 -0.60471809161E+03  0.60471809161E+03  0.00000000000E+00 0. -1.
         25    2    1    2    0    0 -0.86590660955E+02  0.11815027306E+03 -0.35336540434E+03  0.40245663815E+03  0.12508719767E+03 0.  0.
          5    1    3    3  502    0 -0.81356781495E+02  0.14419018097E+03 -0.30887952981E+03  0.35047649068E+03  0.41800000000E+01 0. -1.
         -5    1    3    3    0  502 -0.52338794607E+01 -0.26039907916E+02 -0.44485874529E+02  0.51980147470E+02  0.41800000000E+01 0. -1.
        -11    1    1    2    0    0  0.11133232888E+02  0.61790844844E+01  0.44365021073E+01  0.13483786951E+02  0.00000000000E+00 0.  1.
         11    1    1    2    0    0  0.75457428067E+02 -0.12432935754E+03 -0.19849441588E+03  0.24607244001E+03  0.00000000000E+00 0. -1.
</event>
<event>
 7    1  0.2943257E-009  0.1128755E+03  0.7561462E-02  0.1255336E+00
          1   -1    0    0  501    0  0.00000000000E+00  0.00000000000E+00  0.46875793970E+03  0.46875793970E+03  0.00000000000E+00 0. -1.
         -1   -1    0    0    0  501 -0.00000000000E+00 -0.00000000000E+00 -0.36142271817E+02  0.36142271817E+02  0.00000000000E+00 0.  1.
         25    2    1    2    0    0  0.37854693423E+02  0.31471769030E+02  0.34227725052E+03  0.36772867007E+03  0.12508880248E+03 0.  0.
          5    1    3    3  502    0 -0.28232199752E+02 -0.31795173544E+02  0.10182881204E+03  0.11042902483E+03  0.41800000000E+01 0. -1.
         -5    1    3    3    0  502  0.66086893174E+02  0.63266942574E+02  0.24044843848E+03  0.25729964524E+03  0.41800000000E+01 0. -1.
        -11    1    1    2    0    0  0.12837921328E+02 -0.38204416695E+02  0.72613909299E+02  0.83049199290E+02  0.00000000000E+00 0. -1.
         11    1    1    2    0    0 -0.50692614751E+02  0.67326476652E+01  0.17724508068E+02  0.54122342162E+02  0.00000000000E+00 0.  1.
</event>
<event>
 7    1  0.2943257E-009  0.1909800E+03  0.7561462E-02  0.1157580E+00
         -4   -1    0    0    0  501 -0.00000000000E+00  0.00000000000E+00  0.12427465811E+04  0.12427465811E+04  0.00000000000E+00 0.  1.
          4   -1    0    0  501    0  0.00000000000E+00 -0.00000000000E+00 -0.37465961738E+02  0.37465961738E+02  0.00000000000E+00 0. -1.
         25    2    1    2    0    0  0.26171205483E+02  0.16574833484E+03  0.38655825662E+03  0.43958220643E+03  0.12509111858E+03 0.  0.
          5    1    3    3  502    0 -0.44521608733E+02  0.29208252695E+02  0.12856067072E+03  0.13921427415E+03  0.41800000000E+01 0.  1.
         -5    1    3    3    0  502  0.70692814216E+02  0.13654008215E+03  0.25799758590E+03  0.30036793228E+03  0.41800000000E+01 0.  1.
        -11    1    1    2    0    0 -0.40704983373E+02 -0.11782475555E+03  0.71088618846E+03  0.72173315126E+03  0.00000000000E+00 0.  1.
         11    1    1    2    0    0  0.14533777890E+02 -0.47923579290E+02  0.10783617431E+03  0.11889718517E+03  0.00000000000E+00 0. -1.
</event>
<event>
 7    1  0.2943257E-009  0.1892918E+03  0.7561462E-02  0.1159102E+00
          1   -1    0    0  501    0  0.00000000000E+00  0.00000000000E+00  0.87544127389E+03  0.87544127389E+03  0.00000000000E+00 0. -1.
         -1   -1    0    0    0  501 -0.00000000000E+00 -0.00000000000E+00 -0.52492825529E+02  0.52492825529E+02  0.00000000000E+00 0.  1.
         25    2    1    2    0    0 -0.12318694218E+03 -0.13058398529E+03  0.51930083645E+03  0.56351552478E+03  0.12509671453E+03 0.  0.
          5    1    3    3  502    0 -0.10019619515E+03 -0.12531869172E+03  0.27783240682E+03  0.32086191843E+03  0.41800000000E+01 0.  1.
         -5    1    3    3    0  502 -0.22990747027E+02 -0.52652935723E+01  0.24146842963E+03  0.24265360635E+03  0.41800000000E+01 0.  1.
        -11    1    1    2    0    0  0.73011135797E+02  0.24907750276E+02  0.75049215069E+02  0.10762623591E+03  0.00000000000E+00 0.  1.
         11    1    1    2    0    0  0.50175806379E+02  0.10567623502E+03  0.22859839684E+03  0.25679233873E+03  0.00000000000E+00 0. -1.
</event>
<event>
 7    1  0.2943257E-009  0.1076559E+03  0.7561462E-02  0.1264973E+00
          1   -1    0    0  501    0  0.00000000000E+00  0.00000000000E+00  0.93826000456E+02  0.93826000456E+02  0.00000000000E+00 0. -1.
         -1   -1    0    0    0  501 -0.00000000000E+00 -0.00000000000E+00 -0.19067967344E+03  0.19067967344E+03  0.00000000000E+00 0.  1.
         25    2    1    2    0    0 -0.24147483225E+02  0.16602189275E+02 -0.70666310477E+02  0.14663133272E+03  0.12509311198E+03 0.  0.
          5    1    3    3  502    0  0.49313572214E+02  0.61500349999E+01 -0.10390124479E+02  0.50941912230E+02  0.41800000000E+01 0. -1.
         -5    1    3    3    0  502 -0.73461055438E+02  0.10452154275E+02 -0.60276185998E+02  0.95689420489E+02  0.41800000000E+01 0. -1.
        -11    1    1    2    0    0  0.52746706024E+02 -0.28723243480E+02 -0.64777155376E+02  0.88336400034E+02  0.00000000000E+00 0.  1.
         11    1    1    2    0    0 -0.28599222799E+02  0.12121054205E+02  0.38589792865E+02  0.49537941147E+02  0.00000000000E+00 0. -1.
</event>
<event>
 7    1  0.2943257E-009  0.1408235E+03  0.7561462E-02  0.1212225E+00
          2   -1    0    0  501    0  0.00000000000E+00  0.00000000000E+00  0.36549756638E+03  0.36549756638E+03  0.00000000000E+00 0. -1.
         -2   -1    0    0    0  501 -0.00000000000E+00 -0.00000000000E+00 -0.92607681664E+02  0.92607681664E+02  0.00000000000E+00 0.  1.
         25    2    1    2    0    0 -0.17147267059E+00 -0.11233278586E+03  0.23233665558E+02  0.16972152517E+03  0.12508760414E+03 0.  0.
          5    1    3    3  502    0  0.20285670797E+02  0.42430514937E+01  0.44619711775E+02  0.49375125362E+02  0.41800000000E+01 0. -1.
         -5    1    3    3    0  502 -0.20457143467E+02 -0.11657583735E+03 -0.21386046218E+02  0.12034639981E+03  0.41800000000E+01 0. -1.
        -11    1    1    2    0    0  0.41305660091E+02  0.33609007719E+02  0.11927036122E+03  0.13061830661E+03  0.00000000000E+00 0. -1.
         11    1    1    2    0    0 -0.41134187421E+02  0.78723778142E+02  0.13038585794E+03  0.15776541627E+03  0.00000000000E+00 0.  1.
</event>
<event>
 6    1  0.2943257E-009  0.9291763E+02  0.7561462E-02  0.1295936E+00
         -2   -1    0    0    0  501 -0.00000000000E+00  0.00000000000E+00  0.30495344049E+02  0.30495344049E+02  0.00000000000E+00 0.  1.
          2   -1    0    0  501    0  0.00000000000E+00 -0.00000000000E+00 -0.47266403459E+03  0.47266403459E+03  0.00000000000E+00 0. -1.
          5    1    1    2  502    0 -0.61927015254E+02  0.39573599663E+01 -0.23125375815E+03  0.23947106083E+03  0.41800000000E+01 0. -1.
         -5    1    1    2    0  502  0.28978382361E+02  0.23378048373E+02 -0.12415932936E+02  0.39470337985E+02  0.41800000000E+01 0. -1.
        -11    1    1    2    0    0 -0.11409072801E+02 -0.38731073031E+02 -0.31954739525E+02  0.51491439467E+02  0.00000000000E+00 0. -1.
         11    1    1    2    0    0  0.44357705695E+02  0.11395664692E+02 -0.16654425994E+03  0.17272654036E+03  0.00000000000E+00 0.  1.
</event>
<event>
 7    1  0.2943257E-009  0.1918985E+03  0.7561462E-02  0.1156760E+00
         -2   -1    0    0    0  501 -0.00000000000E+00  0.00000000000E+00  0.25658859711E+03  0.25658859711E+03  0.00000000000E+00 0.  1.
          2   -1    0    0  501    0  0.00000000000E+00 -0.00000000000E+00 -0.19166590999E+03  0.19166590999E+03  0.00000000000E+00 0. -1.
         25    2    1    2    0    0  0.11339853698E+03 -0.13235356145E+03 -0.52585987509E+02  0.22088447646E+03  0.12509185601E+03 0.  0.
          5    1    3    3  502    0 -0.22827843154E+01 -0.42111254278E+02 -0.60532244564E+02  0.73893124668E+02  0.41800000000E+01 0.  1.
         -5    1    3    3    0  502  0.11568132129E+03 -0.90242307171E+02  0.79462570558E+01  0.14699135179E+03  0.41800000000E+01 0.  1.
        -11    1    1    2    0    0 -0.85998141363E+02  0.33888425586E+02  0.54668269727E+02  0.10739052762E+03  0.00000000000E+00 0.  1.
         11    1    1    2    0    0 -0.27400395614E+02  0.98465135863E+02  0.62840404899E+02  0.11997950303E+03  0.00000000000E+00 0. -1.
</event>
<event>
 7    1  0.2943257E-009  0.1452322E+03  0.7561462E-02  0.1206457E+00
          1   -1    0    0  501    0  0.00000000000E+00  0.00000000000E+00  0.38109070186E+03  0.38109070186E+03  0.00000000000E+00 0. -1.
         -1   -1    0    0    0  501 -0.00000000000E+00 -0.00000000000E+00 -0.86686342020E+02  0.86686342020E+02  0.00000000000E+00 0.  1.
         25    2    1    2    0    0 -0.10712894331E+03 -0.64009061859E+02  0.25865536958E+03  0.31324736889E+03  0.12509014115E+03 0.  0.
          5    1    3    3  502    0 -0.60078942294E+02 -0.92178595147E+02  0.22002629707E+03  0.24603946129E+03  0.41800000000E+01 0. -1.
         -5    1    3    3    0  502 -0.47050001015E+02  0.28169533289E+02  0.38629072509E+02  0.67207907602E+02  0.41800000000E+01 0. -1.
        -11    1    1    2    0    0  0.75255743529E+02  0.51130511834E+02 -0.16024575271E+02  0.92382591364E+02  0.00000000000E+00 0.  1.
         11    1    1    2    0    0  0.31873199780E+02  0.12878550025E+02  0.51773565532E+02  0.62147083624E+02  0.00000000000E+00 0. -1.
</event>
<event>
 7    1  0.2943257E-009  0.3042225E+03  0.7561462E-02  0.1083149E+00
          2   -1    0    0  501    0  0.00000000000E+00  0.00000000000E+00  0.13018386618E+03  0.13018386618E+03  0.00000000000E+00 0. -1.
         -2   -1    0    0    0  501 -0.00000000000E+00 -0.00000000000E+00 -0.72963863915E+03  0.72963863915E+03  0.00000000000E+00 0.  1.
         25    2    1    2    0    0 -0.20113826297E+03 -0.20580260342E+03 -0.27622354027E+03  0.41804310405E+03  0.12509708323E+03 0.  0.
          5    1    3    3  502    0 -0.17503452412E+03 -0.21878766673E+03 -0.26731438689E+03  0.38727197366E+03  0.41800000000E+01 0. -1.
         -5    1    3    3    0  502 -0.26103738853E+02  0.12985063304E+02 -0.89091533805E+01  0.30771130383E+02  0.41800000000E+01 0. -1.
        -11    1    1    2    0    0  0.12803570394E+03  0.73540079587E+02 -0.18745945461E+03  0.23862592464E+03  0.00000000000E+00 0.  1.
         11    1    1    2    0    0  0.73102559036E+02  0.13226252383E+03 -0.13577177808E+03  0.20315347664E+03  0.00000000000E+00 0. -1.
</event>
<event>
 7    1  0.2943257E-009  0.1420210E+03  0.7561462E-02  0.1210635E+00
         -1   -1    0    0    0  501 -0.00000000000E+00  0.00000000000E+00  0.57497959063E+03  0.57497959063E+03  0.00000000000E+00 0.  1.
          1   -1    0    0  501    0  0.00000000000E+00 -0.00000000000E+00 -0.39129968919E+02  0.39129968919E+02  0.00000000000E+00 0. -1.
         25    2    1    2    0    0  0.96705432538E+02  0.15339022754E+02  0.24178657334E+03  0.28930122957E+03  0.12508888072E+03 0.  0.
          5    1    3    3  502    0 -0.16714111825E+02 -0.26376941615E+02  0.89266138275E+02  0.94662666482E+02  0.41800000000E+01 0. -1.
         -5    1    3    3    0  502  0.11341954436E+03  0.41715964369E+02  0.15252043507E+03  0.19463856309E+03  0.41800000000E+01 0. -1.
        -11    1    1    2    0    0 -0.73602917650E+02 -0.50702019118E+02  0.24065158656E+03  0.25671242733E+03  0.00000000000E+00 0.  1.
         11    1    1    2    0    0 -0.23102514888E+02  0.35362996364E+02  0.53411461803E+02  0.68095902651E+02  0.00000000000E+00 0. -1.
</event>
<event>
 7    1  0.2943257E-009  0.1182006E+03  0.7561462E-02  0.1246095E+00
          2   -1    0    0  501    0  0.00000000000E+00  0.00000000000E+00  0.78592474109E+03  0.78592474109E+03  0.00000000000E+00 0. -1.
         -2   -1    0    0    0  501 -0.00000000000E+00 -0.00000000000E+00 -0.32347052083E+02  0.32347052083E+02  0.00000000000E+00 0.  1.
         25    2    1    2    0    0 -0.89162270975E+02  0.66855309080E+02  0.47605216149E+03  0.50467110788E+03  0.12509086199E+03 0.  0.
          5    1    3    3  502    0 -0.10337979566E+01  0.23401287034E+02  0.61345117449E+01  0.24572212099E+02  0.41800000000E+01 0. -1.
         -5    1    3    3    0  502 -0.88128473019E+02  0.43454022045E+02  0.46991764975E+03  0.48009889578E+03  0.41800000000E+01 0. -1.
        -11    1    1    2    0    0  0.52979295108E+02 -0.23972307462E+02  0.23791688777E+03  0.24492023747E+03  0.00000000000E+00 0. -1.
         11    1    1    2    0    0  0.36182975868E+02 -0.42883001618E+02  0.39608639740E+02  0.68680447817E+02  0.00000000000E+00 0.  1.
</event>
<event>
 7    1  0.2943257E-009  0.8210650E+02  0.7561462E-02  0.1323178E+00
          2   -1    0    0  501    0  0.00000000000E+00  0.00000000000E+00  0.53468398414E+02  0.53468398414E+02  0.00000000000E+00 0. -1.
         -2   -1    0    0    0  501 -0.00000000000E+00 -0.00000000000E+00 -0.22166618137E+03  0.22166618137E+03  0.00000000000E+00 0.  1.
         25    2    1    2    0    0 -0.43393589704E+01  0.40340364195E+02 -0.13474799319E+03  0.18827866680E+03  0.12508261143E+03 0.  0.
          5    1    3    3  502    0  0.38449133092E+02  0.27358749741E+02 -0.13531235958E+03  0.14336577025E+03  0.41800000000E+01 0. -1.
         -5    1    3    3    0  502 -0.42788492063E+02  0.12981614454E+02  0.56436639076E+00  0.44912896547E+02  0.41800000000E+01 0. -1.
        -11    1    1    2    0    0  0.25099670637E+02  0.15808349017E+01 -0.31128242852E+02  0.40018245940E+02  0.00000000000E+00 0.  1.
         11    1    1    2    0    0 -0.20760311667E+02 -0.41921199097E+02 -0.23215469081E+01  0.46837667045E+02  0.00000000000E+00 0. -1.
</event>
<event>
 7    1  0.2943257E-009  0.1418204E+03  0.7561462E-02  0.1210900E+00
         -1   -1    0    0    0  501 -0.00000000000E+00  0.00000000000E+00  0.27406119294E+02  0.27406119294E+02  0.00000000000E+00 0.  1.
          1   -1    0    0  501    0  0.00000000000E+00 -0.00000000000E+00 -0.10576995110E+04  0.10576995110E+04  0.00000000000E+00 0. -1.
         25    2    1    2    0    0  0.10153499329E+03  0.35508206473E+02 -0.78419709973E+03  0.80136084892E+03  0.12507570257E+03 0.  0.
          5    1    3    3  502    0  0.98623198016E+02  0.61915662055E+02 -0.74353044075E+03  0.75260552291E+03  0.41800000000E+01 0.  1.
         -5    1    3    3    0  502  0.29117952767E+01 -0.26407455582E+02 -0.40666658983E+02  0.48755326016E+02  0.41800000000E+01 0.  1.
        -11    1    1    2    0    0  0.14350210114E+02  0.80127302889E+01 -0.41211771332E+02  0.44368259751E+02  0.00000000000E+00 0.  1.
         11    1    1    2    0    0 -0.11588520341E+03 -0.43520936762E+02 -0.20488452068E+03  0.23937652165E+03  0.00000000000E+00 0. -1.
</event>
<event>
 7    1  0.2943257E-009  0.1743655E+03  0.7561462E-02  0.1173370E+00
         -2   -1    0    0    0  501 -0.00000000000E+00  0.00000000000E+00  0.67028222596E+02  0.67028222596E+02  0.00000000000E+00 0.  1.
          2   -1    0    0  501    0  0.00000000000E+00 -0.00000000000E+00 -0.63138186715E+03  0.63138186715E+03  0.00000000000E+00 0. -1.
         25    2    1    2    0    0 -0.13414901777E+03  0.86051053858E+02 -0.41413101961E+03  0.46103243653E+03  0.12508262586E+03 0.  0.
          5    1    3    3  502    0 -0.45847871494E+02 -0.19733606662E+02 -0.20142079425E+03  0.20755541744E+03  0.41800000000E+01 0. -1.
         -5    1    3    3    0  502 -0.88301146273E+02  0.10578466052E+03 -0.21271022537E+03  0.25347701910E+03  0.41800000000E+01 0. -1.
        -11    1    1    2    0    0  0.64630685098E+02 -0.54052209321E+02 -0.20418397376E+02  0.86693008600E+02  0.00000000000E+00 0.  1.
         11    1    1    2    0    0  0.69518332669E+02 -0.31998844538E+02 -0.12980422757E+03  0.15068464462E+03  0.00000000000E+00 0. -1.
</event>
<event>
 7    1  0.2943257E-009  0.8700683E+02  0.7561462E-02  0.1310266E+00
         -2   -1    0    0    0  501 -0.00000000000E+00  0.00000000000E+00  0.23506946775E+02  0.23506946775E+02  0.00000000000E+00 0.  1.
          2   -1    0    0  501    0  0.00000000000E+00 -0.00000000000E+00 -0.11046033473E+04  0.11046033473E+04  0.00000000000E+00 0. -1.
         25    2    1    2    0    0 -0.64826580123E+02  0.40354545298E+01 -0.92784561010E+03  0.93849030236E+03  0.12509117097E+03 0.  0.
          5    1    3    3  502    0 -0.83168769083E+01  0.24865156260E+02 -0.75387433905E+03  0.75434172490E+03  0.41800000000E+01 0.  1.
         -5    1    3    3    0  502 -0.56509703215E+02 -0.20829701730E+02 -0.17397127104E+03  0.18414857746E+03  0.41800000000E+01 0.  1.
        -11    1    1    2    0    0  0.58843782270E+02  0.20134096349E+02 -0.40650517092E+02  0.74299643926E+02  0.00000000000E+00 0.  1.
         11    1    1    2    0    0  0.59827978533E+01 -0.24169550879E+02 -0.11260027331E+03  0.11532034777E+03  0.00000000000E+00 0. -1.
</event>
<event>
 7    1  0.2943257E-009  0.1076836E+03  0.7561462E-02  0.1264921E+00
          2   -1    0    0  501    0  0.00000000000E+00  0.00000000000E+00  0.16340949059E+04  0.16340949059E+04  0.00000000000E+00 0. -1.
         -2   -1    0    0    0  501 -0.00000000000E+00 -0.00000000000E+00 -0.90258046259E+01  0.90258046259E+01  0.00000000000E+00 0.  1.
         25    2    1    2    0    0 -0.31161019109E+02 -0.39255716240E+02  0.10584670933E+04  0.10670096468E+04  0.12507988792E+03 0.  0.
          5    1    3    3  502    0 -0.62679041676E+02 -0.46957376891E+02  0.39357995647E+03  0.40131821794E+03  0.41800000000E+01 0.  1.
         -5    1    3    3    0  502  0.31518022568E+02  0.77016606511E+01  0.66488713687E+03  0.66569142889E+03  0.41800000000E+01 0.  1.
        -11    1    1    2    0    0  0.96605422813E+00  0.64719076345E+02  0.35676156967E+03  0.36258558948E+03  0.00000000000E+00 0.  1.
         11    1    1    2    0    0  0.30194964881E+02 -0.25463360105E+02  0.20984043827E+03  0.21352547423E+03  0.00000000000E+00 0. -1.
</event>
<event>
 7    1  0.2943257E-009  0.1065221E+03  0.7561462E-02  0.1267149E+00
          3   -1    0    0  501    0  0.00000000000E+00  0.00000000000E+00  0.13923013973E+03  0.13923013973E+03  0.00000000000E+00 0. -1.
         -3   -1    0    0    0  501 -0.00000000000E+00 -0.00000000000E+00 -0.10712229882E+03  0.10712229882E+03  0.00000000000E+00 0.  1.
         25    2    1    2    0    0  0.35781768549E+02 -0.38401600988E+02  0.11558962591E+02  0.13614628133E+03  0.12508869807E+03 0.  0.
          5    1    3    3  502    0  0.16092831431E+01 -0.78469350869E+02  0.23404638571E+02  0.82007794292E+02  0.41800000000E+01 0.  1.
         -5    1    3    3    0  502  0.34172485406E+02  0.40067749881E+02 -0.11845675980E+02  0.54138487038E+02  0.41800000000E+01 0.  1.
        -11    1    1    2    0    0  0.16292013491E+02  0.21287639387E+02  0.43244809182E+02  0.50879335839E+02  0.00000000000E+00 0. -1.
         11    1    1    2    0    0 -0.52073782040E+02  0.17113961601E+02 -0.22695930859E+02  0.59326821381E+02  0.00000000000E+00 0.  1.
</event>
<event>
 7    1  0.2943257E-009  0.1239324E+03  0.7561462E-02  0.1236747E+00
         -2   -1    0    0    0  501 -0.00000000000E+00  0.00000000000E+00  0.18318297093E+03  0.18318297093E+03  0.00000000000E+00 0. -1.
          2   -1    0    0  501    0  0.00000000000E+00 -0.00000000000E+00 -0.98074930670E+02  0.98074930670E+02  0.00000000000E+00 0.  1.
         25    2    1    2    0    0  0.50715576934E+02  0.59104367919E+02  0.52374692402E+02  0.15638414159E+03  0.12508994877E+03 0.  0.
          5    1    3    3  502    0  0.44159426853E+02  0.91797383027E+02  0.10204418970E+02  0.10246178350E+03  0.41800000000E+01 0.  1.
         -5    1    3    3    0  502  0.65561500810E+01 -0.32693015107E+02  0.42170273431E+02  0.53922358090E+02  0.41800000000E+01 0.  1.
        -11    1    1    2    0    0 -0.16579788461E+02  0.20102699086E+02 -0.10863558420E+02  0.28231627610E+02  0.00000000000E+00 0.  1.
         11    1    1    2    0    0 -0.34135788473E+02 -0.79207067006E+02  0.43596906277E+02  0.96642132402E+02  0.00000000000E+00 0. -1.
</event>
<event>
 7    1  0.2943257E-009  0.1164115E+03  0.7561462E-02  0.1249137E+00
         -4   -1    0    0    0  501 -0.00000000000E+00  0.00000000000E+00  0.44833870796E+03  0.44833870796E+03  0.00000000000E+00 0.  1.
          4   -1    0    0  501    0  0.00000000000E+00 -0.00000000000E+00 -0.31717547908E+02  0.31717547908E+02  0.00000000000E+00 0. -1.
         25    2    1    2    0    0  0.38164524653E+02  0.35843944985E+02  0.21837649554E+03  0.25705440260E+03  0.12508937907E+03 0.  0.
          5    1    3    3  502    0  0.81399897577E+02  0.13246167259E+02  0.16570013147E+03  0.18513619377E+03  0.41800000000E+01 0.  1.
         -5    1    3    3    0  502 -0.43235372924E+02  0.22597777726E+02  0.52676364064E+02  0.71918208829E+02  0.41800000000E+01 0.  1.
        -11    1    1    2    0    0  0.13251772304E+02 -0.46861735902E+02  0.81130612329E+02  0.94624563502E+02  0.00000000000E+00 0. -1.
         11    1    1    2    0    0 -0.51416296957E+02  0.11017790918E+02  0.11711405218E+03  0.12837728977E+03  0.00000000000E+00 0.  1.
</event>
<event>
 7    1  0.2943257E-009  0.1581864E+03  0.7561462E-02  0.1190760E+00
         -1   -1    0    0    0  501 -0.00000000000E+00  0.00000000000E+00  0.21319340456E+03  0.21319340456E+03  0.00000000000E+00 0.  1.
          1   -1    0    0  501    0  0.00000000000E+00 -0.00000000000E+00 -0.15524398542E+03  0.15524398542E+03  0.00000000000E+00 0. -1.
         25    2    1    2    0    0  0.10270095075E+03 -0.99554005922E+02  0.58459792941E+02  0.19880379053E+03  0.12508762672E+03 0.  0.
          5    1    3    3  502    0  0.42177786414E+02  0.71656189219E+01 -0.25592388829E+02  0.50027537690E+02  0.41800000000E+01 0.  1.
         -5    1    3    3    0  502  0.60523164336E+02 -0.10671962484E+03  0.84052181770E+02  0.14877625284E+03  0.41800000000E+01 0.  1.
        -11    1    1    2    0    0 -0.75548087127E+02  0.40701864408E+02  0.38424258919E+02  0.94024352740E+02  0.00000000000E+00 0.  1.
         11    1    1    2    0    0 -0.27152863624E+02  0.58852141515E+02 -0.38934632720E+02  0.75609246715E+02  0.00000000000E+00 0. -1.
</event>
<event>
 7    1  0.2943257E-009  0.1102943E+03  0.7561462E-02  0.1260026E+00
          1   -1    0    0  501    0  0.00000000000E+00  0.00000000000E+00  0.35595911445E+03  0.35595911445E+03  0.00000000000E+00 0.  1.
         -1   -1    0    0    0  501 -0.00000000000E+00 -0.00000000000E+00 -0.38890996071E+02  0.38890996071E+02  0.00000000000E+00 0. -1.
         25    2    1    2    0    0 -0.12350006496E+02 -0.22132251297E+02  0.11622667113E+03  0.17262039190E+03  0.12508717525E+03 0.  0.
          5    1    3    3  502    0 -0.47809281982E+02 -0.58743235045E+02  0.77748067815E+02  0.10862195706E+03  0.41800000000E+01 0.  1.
         -5    1    3    3    0  502  0.35459275487E+02  0.36610983747E+02  0.38478603317E+02  0.63998434842E+02  0.41800000000E+01 0.  1.
        -11    1    1    2    0    0  0.34421148561E+02 -0.24333393710E+02  0.11052896406E+03  0.11829446908E+03  0.00000000000E+00 0.  1.
         11    1    1    2    0    0 -0.22071142065E+02  0.46465645007E+02  0.90312483185E+02  0.10393524954E+03  0.00000000000E+00 0. -1.
</event>
<event>
 7    1  0.3281460E-009  0.1472563E+03  0.7561462E-02  0.1203885E+00
         -1   -1    0    0    0  501 -0.00000000000E+00  0.00000000000E+00  0.32673438572E+03  0.32673438572E+03  0.00000000000E+00 0.  1.
          1   -1    0    0  501    0  0.00000000000E+00 -0.00000000000E+00 -0.11254827980E+03  0.11254827980E+03  0.00000000000E+00 0. -1.
         25    2    1    2    0    0 -0.13432973308E+03 -0.15208911058E+02  0.19436465800E+02  0.18520424014E+03  0.12508815371E+03 0.  0.
          5    1    3    3  502    0 -0.52653985138E+02  0.60916996613E+01  0.69094125241E+02  0.87183837370E+02  0.41800000000E+01 0. -1.
         -5    1    3    3    0  502 -0.81675747938E+02 -0.21300610720E+02 -0.49657659442E+02  0.98020402771E+02  0.41800000000E+01 0. -1.
        -11    1    1    2    0    0  0.72118859749E+02  0.47878172276E+02  0.14164119133E+03  0.16599902528E+03  0.00000000000E+00 0.  1.
         11    1    1    2    0    0  0.62210873327E+02 -0.32669261218E+02  0.53108448790E+02  0.88079400098E+02  0.00000000000E+00 0. -1.
</event>
<event>
 7    1  0.2943257E-009  0.1653359E+03  0.7561462E-02  0.1182801E+00
         -2   -1    0    0    0  501 -0.00000000000E+00  0.00000000000E+00  0.70814538248E+02  0.70814538248E+02  0.00000000000E+00 0.  1.
          2   -1    0    0  501    0  0.00000000000E+00 -0.00000000000E+00 -0.59210909268E+03  0.59210909268E+03  0.00000000000E+00 0. -1.
         25    2    1    2    0    0 -0.81173806672E+02  0.10776531851E+03 -0.96789693514E+02  0.20788847788E+03  0.12508726434E+03 0.  0.
          5    1    3    3  502    0 -0.93218734293E+02  0.34599732712E+02 -0.20874098621E+02  0.10168615599E+03  0.41800000000E+01 0. -1.
         -5    1    3    3    0  502  0.12044927621E+02  0.73165585795E+02 -0.75915594893E+02  0.10620232189E+03  0.41800000000E+01 0. -1.
        -11    1    1    2    0    0 -0.15040696318E+02 -0.28489017472E+02 -0.43347772560E+02  0.54008110948E+02  0.00000000000E+00 0.  1.
         11    1    1    2    0    0  0.96214502990E+02 -0.79276301035E+02 -0.38115708836E+03  0.40102704210E+03  0.00000000000E+00 0. -1.
</event>
<event>
 7    1  0.3554166E-009  0.1703777E+03  0.7561462E-02  0.1177455E+00
          1   -1    0    0  501    0  0.00000000000E+00  0.00000000000E+00  0.12197859119E+04  0.12197859119E+04  0.00000000000E+00 0. -1.
         -1   -1    0    0    0  501 -0.00000000000E+00 -0.00000000000E+00 -0.33615976229E+02  0.33615976229E+02  0.00000000000E+00 0.  1.
         25    2    1    2    0    0 -0.12528359069E+03  0.86400404211E+02  0.85722688326E+03  0.87957163368E+03  0.12508925393E+03 0.  0.
          5    1    3    3  502    0 -0.13290410116E+03  0.84099202879E+02  0.85618452875E+03  0.87052030172E+03  0.41800000000E+01 0.  1.
         -5    1    3    3    0  502  0.76205104660E+01  0.23012013323E+01  0.10423545044E+01  0.90513319599E+01  0.41800000000E+01 0.  1.
        -11    1    1    2    0    0  0.12547147555E+02 -0.56389664719E+02  0.77694694401E+02  0.96817822414E+02  0.00000000000E+00 0.  1.
         11    1    1    2    0    0  0.11273644314E+03 -0.30010739492E+02  0.25124835798E+03  0.27701243201E+03  0.00000000000E+00 0. -1.
</event>
<event>
 7    1  0.2943257E-009  0.9483194E+02  0.7561462E-02  0.1291555E+00
          1   -1    0    0  501    0  0.00000000000E+00  0.00000000000E+00  0.38376703154E+03  0.38376703154E+03  0.00000000000E+00 0. -1.
         -1   -1    0    0    0  501 -0.00000000000E+00 -0.00000000000E+00 -0.61708043249E+02  0.61708043249E+02  0.00000000000E+00 0.  1.
         25    2    1    2    0    0 -0.48529727850E+02 -0.18692540162E+02  0.32972311047E+03  0.35646902722E+03  0.12509313430E+03 0.  0.
          5    1    3    3  502    0 -0.90533652976E+02 -0.63264016702E+01  0.23781736648E+03  0.25457992434E+03  0.41800000000E+01 0.  1.
         -5    1    3    3    0  502  0.42003925127E+02 -0.12366138492E+02  0.91905743987E+02  0.10188910288E+03  0.41800000000E+01 0.  1.
        -11    1    1    2    0    0  0.19164854872E+02 -0.14482566630E+01  0.30980203589E+02  0.36457675790E+02  0.00000000000E+00 0. -1.
         11    1    1    2    0    0  0.29364872978E+02  0.20140796825E+02 -0.38644325771E+02  0.52548371773E+02  0.00000000000E+00 0.  1.
</event>
<event>
 7    1  0.2943257E-009  0.6942957E+02  0.7561462E-02  0.1362044E+00
          2   -1    0    0  501    0  0.00000000000E+00  0.00000000000E+00  0.15344639244E+03  0.15344639244E+03  0.00000000000E+00 0.  1.
         -2   -1    0    0    0  501 -0.00000000000E+00 -0.00000000000E+00 -0.16951062529E+03  0.16951062529E+03  0.00000000000E+00 0. -1.
         25    2    1    2    0    0 -0.19979396811E+02 -0.42762369829E+02 -0.11834327019E+03  0.17855026085E+03  0.12508904620E+03 0.  0.
          5    1    3    3  502    0 -0.91580458513E+01  0.80043596594E+01  0.23863432485E+02  0.27108585123E+02  0.41800000000E+01 0.  1.
         -5    1    3    3    0  502 -0.10821350960E+02 -0.50766729488E+02 -0.14220670268E+03  0.15144167573E+03  0.41800000000E+01 0.  1.
        -11    1    1    2    0    0 -0.68509220911E+01 -0.11501924981E+02 -0.10093564522E+02  0.16766319111E+02  0.00000000000E+00 0. -1.
         11    1    1    2    0    0  0.26830318902E+02  0.54264294809E+02  0.11237260187E+03  0.12764043777E+03  0.00000000000E+00 0.  1.
</event>
<event>
 7    1  0.2943257E-009  0.1111792E+03  0.7561462E-02  0.1258402E+00
         -3   -1    0    0    0  501 -0.00000000000E+00  0.00000000000E+00  0.36782502897E+03  0.36782502897E+03  0.00000000000E+00 0.  1.
          3   -1    0    0  501    0  0.00000000000E+00 -0.00000000000E+00 -0.38602591555E+02  0.38602591555E+02  0.00000000000E+00 0. -1.
         25    2    1    2    0    0  0.67684237309E+01 -0.44608492363E+02  0.17235381431E+03  0.21768463556E+03  0.12508011073E+03 0.  0.
          5    1    3    3  502    0  0.37018908719E+02  0.31371278463E+02  0.45209341067E+02  0.66452341079E+02  0.41800000000E+01 0. -1.
         -5    1    3    3    0  502 -0.30250484988E+02 -0.75979770826E+02  0.12714447324E+03  0.15123229448E+03  0.41800000000E+01 0. -1.
        -11    1    1    2    0    0  0.30224907572E+02 -0.42096666556E+01  0.14559290063E+02  0.33811821279E+02  0.00000000000E+00 0. -1.
         11    1    1    2    0    0 -0.36993331303E+02  0.48818159019E+02  0.14230933304E+03  0.15493116369E+03  0.00000000000E+00 0.  1.
</event>
<event>
 7    1  0.2943257E-009  0.1694057E+03  0.7561462E-02  0.1178469E+00
          1   -1    0    0  501    0  0.00000000000E+00  0.00000000000E+00  0.58140051954E+03  0.58140051954E+03  0.00000000000E+00 0. -1.
         -1   -1    0    0    0  501 -0.00000000000E+00 -0.00000000000E+00 -0.55121656133E+02  0.55121656133E+02  0.00000000000E+00 0.  1.
         25    2    1    2    0    0 -0.13410194942E+03 -0.35579456041E+02  0.34190927657E+03  0.38961361707E+03  0.12509031406E+03 0.  0.
          5    1    3    3  502    0 -0.12232004136E+03  0.16320204817E+02  0.17354041240E+03  0.21298424529E+03  0.41800000000E+01 0.  1.
         -5    1    3    3    0  502 -0.11781908057E+02 -0.51899660858E+02  0.16836886417E+03  0.17662937178E+03  0.41800000000E+01 0.  1.
        -11    1    1    2    0    0 -0.44037285946E+01  0.22391449784E+02  0.13336463024E+02  0.26431630577E+02  0.00000000000E+00 0.  1.
         11    1    1    2    0    0  0.13850567801E+03  0.13188006257E+02  0.17103312381E+03  0.22047692802E+03  0.00000000000E+00 0. -1.
</event>
<event>
 7    1  0.2943257E-009  0.8131852E+02  0.7561462E-02  0.1325351E+00
         -1   -1    0    0    0  501 -0.00000000000E+00  0.00000000000E+00  0.15473141129E+03  0.15473141129E+03  0.00000000000E+00 0. -1.
          1   -1    0    0  501    0  0.00000000000E+00 -0.00000000000E+00 -0.80047025998E+02  0.80047025998E+02  0.00000000000E+00 0.  1.
         25    2    1    2    0    0  0.20847425449E+02 -0.18624823981E+02  0.37943408116E+02  0.13367277602E+03  0.12508880691E+03 0.  0.
          5    1    3    3  502    0  0.44146609390E+02 -0.87997925540E+01  0.75621192400E+02  0.88104464187E+02  0.41800000000E+01 0.  1.
         -5    1    3    3    0  502 -0.23299183941E+02 -0.98250314274E+01 -0.37677784285E+02  0.45568311835E+02  0.41800000000E+01 0.  1.
        -11    1    1    2    0    0  0.10574732497E+02 -0.31172202103E+02  0.25477561583E+01  0.33015484440E+02  0.00000000000E+00 0.  1.
         11    1    1    2    0    0 -0.31422157946E+02  0.49797026085E+02  0.34193221020E+02  0.68090176829E+02  0.00000000000E+00 0. -1.
</event>
<event>
 7    1  0.2943257E-009  0.1311085E+03  0.7561462E-02  0.1225820E+00
         -2   -1    0    0    0  501 -0.00000000000E+00  0.00000000000E+00  0.10382440327E+03  0.10382440327E+03  0.00000000000E+00 0.  1.
          2   -1    0    0  501    0  0.00000000000E+00 -0.00000000000E+00 -0.26944280524E+03  0.26944280524E+03  0.00000000000E+00 0. -1.
         25    2    1    2    0    0  0.96652284242E+02  0.59877096587E+02 -0.27018160479E+02  0.17118657462E+03  0.12509169273E+03 0.  0.
          5    1    3    3  502    0  0.86514396164E+02  0.14584512246E+02  0.34192610015E+02  0.94255268928E+02  0.41800000000E+01 0. -1.
         -5    1    3    3    0  502  0.10137888078E+02  0.45292584341E+02 -0.61210770494E+02  0.76931305692E+02  0.41800000000E+01 0. -1.
        -11    1    1    2    0    0 -0.26289260372E+02 -0.50318215508E+02 -0.11324791248E+03  0.12668124448E+03  0.00000000000E+00 0. -1.
         11    1    1    2    0    0 -0.70363023869E+02 -0.95588810792E+01 -0.25352329010E+02  0.75399389399E+02  0.00000000000E+00 0.  1.
</event>
<event>
 7    1  0.2943257E-009  0.6920211E+02  0.7561462E-02  0.1362828E+00
          1   -1    0    0  501    0  0.00000000000E+00  0.00000000000E+00  0.53902795459E+02  0.53902795459E+02  0.00000000000E+00 0.  1.
         -1   -1    0    0    0  501 -0.00000000000E+00 -0.00000000000E+00 -0.22425103415E+03  0.22425103415E+03  0.00000000000E+00 0. -1.
         25    2    1    2    0    0 -0.19421627694E+02  0.60016036056E+01 -0.91992862836E+02  0.15660216834E+03  0.12509329898E+03 0.  0.
          5    1    3    3  502    0 -0.29187863266E+02  0.42827085712E+02  0.50737075293E+01  0.52242755869E+02  0.41800000000E+01 0.  1.
         -5    1    3    3    0  502  0.97662355726E+01 -0.36825482107E+02 -0.97066570365E+02  0.10435941247E+03  0.41800000000E+01 0.  1.
        -11    1    1    2    0    0  0.24476232662E+02 -0.21002321552E+02 -0.93949507677E+02  0.99331231084E+02  0.00000000000E+00 0. -1.
         11    1    1    2    0    0 -0.50546049687E+01  0.15000717946E+02  0.15594131820E+02  0.22220430183E+02  0.00000000000E+00 0.  1.
</event>
<event>
 7    1  0.2943257E-009  0.8184657E+02  0.7561462E-02  0.1323891E+00
          2   -1    0    0  501    0  0.00000000000E+00  0.00000000000E+00  0.65320930803E+03  0.65320930803E+03  0.00000000000E+00 0. -1.
         -2   -1    0    0    0  501 -0.00000000000E+00 -0.00000000000E+00 -0.20004870248E+02  0.20004870248E+02  0.00000000000E+00 0.  1.
         25    2    1    2    0    0  0.14055173688E+02  0.29524703196E+02  0.38774943724E+03  0.40874065246E+03  0.12510011545E+03 0.  0.
          5    1    3    3  502    0  0.32544836336E+02  0.88687368863E+00  0.36731307879E+03  0.36877679315E+03  0.41800000000E+01 0. -1.
         -5    1    3    3    0  502 -0.18489662649E+02  0.28637829507E+02  0.20436358447E+02  0.39963859302E+02  0.41800000000E+01 0. -1.
        -11    1    1    2    0    0  0.38622610411E+02 -0.70827735425E+01  0.12651503977E+03  0.13246858874E+03  0.00000000000E+00 0. -1.
         11    1    1    2    0    0 -0.52677784099E+02 -0.22441929653E+02  0.11893996078E+03  0.13200493708E+03  0.00000000000E+00 0.  1.
</event>
<event>
 7    1  0.2943257E-009  0.1293030E+03  0.7561462E-02  0.1228494E+00
         -2   -1    0    0    0  501 -0.00000000000E+00  0.00000000000E+00  0.63219887955E+02  0.63219887955E+02  0.00000000000E+00 0. -1.
          2   -1    0    0  501    0  0.00000000000E+00 -0.00000000000E+00 -0.37118336205E+03  0.37118336205E+03  0.00000000000E+00 0.  1.
         25    2    1    2    0    0  0.29752550600E+02  0.98228424731E+02 -0.11667910178E+03  0.19951897147E+03  0.12513900068E+03 0.  0.
          5    1    3    3  502    0  0.41069102017E+02  0.24126180637E+02 -0.11486482972E+03  0.12441923179E+03  0.41800000000E+01 0.  1.
         -5    1    3    3    0  502 -0.11316551418E+02  0.74102244094E+02 -0.18142720539E+01  0.75099739673E+02  0.41800000000E+01 0.  1.
        -11    1    1    2    0    0  0.31918426118E+02 -0.31301830156E+02 -0.73633104477E+02  0.86141886279E+02  0.00000000000E+00 0.  1.
         11    1    1    2    0    0 -0.61670976717E+02 -0.66926594576E+02 -0.11765126784E+03  0.14874239226E+03  0.00000000000E+00 0. -1.
</event>
<event>
 7    1  0.3348284E-009  0.8797386E+02  0.7561462E-02  0.1307834E+00
         -1   -1    0    0    0  501 -0.00000000000E+00  0.00000000000E+00  0.39862540185E+02  0.39862540185E+02  0.00000000000E+00 0.  1.
          1   -1    0    0  501    0  0.00000000000E+00 -0.00000000000E+00 -0.32265075839E+03  0.32265075839E+03  0.00000000000E+00 0. -1.
         25    2    1    2    0    0 -0.18053801932E+02 -0.23803922244E+02 -0.18379063264E+03  0.22431771524E+03  0.12508746638E+03 0.  0.
          5    1    3    3  502    0 -0.16159299774E+02  0.46324485829E+02 -0.37069765868E+02  0.61633764269E+02  0.41800000000E+01 0. -1.
         -5    1    3    3    0  502 -0.18945021577E+01 -0.70128408073E+02 -0.14672086677E+03  0.16268395097E+03  0.41800000000E+01 0. -1.
        -11    1    1    2    0    0 -0.15552754608E+02  0.15182656978E+02 -0.10112624449E+03  0.10343557693E+03  0.00000000000E+00 0. -1.
         11    1    1    2    0    0  0.33606556540E+02  0.86212652662E+01  0.21286589202E+01  0.34760006416E+02  0.00000000000E+00 0.  1.
</event>
<event>
 7    1  0.3377828E-009  0.2097800E+03  0.7561462E-02  0.1141740E+00
          2   -1    0    0  501    0  0.00000000000E+00  0.00000000000E+00  0.30368996780E+03  0.30368996780E+03  0.00000000000E+00 0. -1.
         -2   -1    0    0    0  501 -0.00000000000E+00 -0.00000000000E+00 -0.24008253369E+03  0.24008253369E+03  0.00000000000E+00 0.  1.
         25    2    1    2    0    0  0.10401769646E+03  0.18013275444E+03 -0.10120193795E+03  0.26297853389E+03  0.12509351160E+03 0.  0.
          5    1    3    3  502    0  0.10115112372E+03  0.17991412458E+03 -0.12319618859E+03  0.24040677057E+03  0.41800000000E+01 0. -1.
         -5    1    3    3    0  502  0.28665727362E+01  0.21862986399E+00  0.21994250640E+02  0.22571763323E+02  0.41800000000E+01 0. -1.
        -11    1    1    2    0    0 -0.49053686089E+02 -0.88865777818E+02  0.24146911587E+02  0.10433821891E+03  0.00000000000E+00 0.  1.
         11    1    1    2    0    0 -0.54964010368E+02 -0.91266976625E+02  0.14066246047E+03  0.17645574868E+03  0.00000000000E+00 0. -1.
</event>
<event>
 7    1  0.2943257E-009  0.1354901E+03  0.7561462E-02  0.1219530E+00
         -2   -1    0    0    0  501 -0.00000000000E+00  0.00000000000E+00  0.64148852223E+02  0.64148852223E+02  0.00000000000E+00 0.  1.
          2   -1    0    0  501    0  0.00000000000E+00 -0.00000000000E+00 -0.71635453720E+03  0.71635453720E+03  0.00000000000E+00 0. -1.
         25    2    1    2    0    0 -0.17908718459E+02 -0.11743236884E+03 -0.59422210253E+03  0.61875641079E+03  0.12509398588E+03 0.  0.
          5    1    3    3  502    0  0.86897362704E+01  0.11936901330E+02 -0.70289368414E+01  0.16878373231E+02  0.41800000000E+01 0. -1.
         -5    1    3    3    0  502 -0.26598454729E+02 -0.12936927017E+03 -0.58719316569E+03  0.60187803755E+03  0.41800000000E+01 0. -1.
        -11    1    1    2    0    0 -0.79201245912E+01  0.88280744903E+01  0.21605591243E+02  0.24646801937E+02  0.00000000000E+00 0.  1.
         11    1    1    2    0    0  0.25828843050E+02  0.10860429435E+03 -0.79589173692E+02  0.13710017670E+03  0.00000000000E+00 0. -1.
</event>
<event>
 7    1  0.2943257E-009  0.1299215E+03  0.7561462E-02  0.1227572E+00
          2   -1    0    0  501    0  0.00000000000E+00  0.00000000000E+00  0.60228478415E+02  0.60228478415E+02  0.00000000000E+00 0. -1.
         -2   -1    0    0    0  501 -0.00000000000E+00 -0.00000000000E+00 -0.40960820358E+03  0.40960820358E+03  0.00000000000E+00 0.  1.
         25    2    1    2    0    0 -0.79891742063E+02 -0.10096315215E+02 -0.72584609904E+02  0.16553227993E+03  0.12509110309E+03 0.  0.
          5    1    3    3  502    0 -0.11121450494E+03 -0.55910199686E+01 -0.73686922401E+02  0.13359326535E+03  0.41800000000E+01 0.  1.
         -5    1    3    3    0  502  0.31322762878E+02 -0.45052952460E+01  0.11023124963E+01  0.31939014581E+02  0.41800000000E+01 0.  1.
        -11    1    1    2    0    0  0.83907695861E+01 -0.32294635250E+02 -0.33841644548E+02  0.47524787069E+02  0.00000000000E+00 0. -1.
         11    1    1    2    0    0  0.71500972477E+02  0.42390950465E+02 -0.24295347071E+03  0.25677961499E+03  0.00000000000E+00 0.  1.
</event>
<event>
 7    1  0.2943257E-009  0.9404750E+02  0.7561462E-02  0.1293336E+00
          2   -1    0    0  501    0  0.00000000000E+00  0.00000000000E+00  0.47094450437E+03  0.47094450437E+03  0.00000000000E+00 0. -1.
         -2   -1    0    0    0  501 -0.00000000000E+00 -0.00000000000E+00 -0.30824269232E+02  0.30824269232E+02  0.00000000000E+00 0.  1.
         25    2    1    2    0    0  0.31925776362E+02 -0.13732451159E+02  0.29090058239E+03  0.31855746729E+03  0.12509146940E+03 0.  0.
          5    1    3    3  502    0 -0.14881626791E+00 -0.66950471516E+02  0.13725744830E+03  0.15277259995E+03  0.41800000000E+01 0.  1.
         -5    1    3    3    0  502  0.32074592630E+02  0.53218020357E+02  0.15364313409E+03  0.16578486733E+03  0.41800000000E+01 0.  1.
        -11    1    1    2    0    0  0.35401779278E+01  0.22030677679E+02 -0.65380515929E+01  0.23251445921E+02  0.00000000000E+00 0.  1.
         11    1    1    2    0    0 -0.35465954290E+02 -0.82982265199E+01  0.15575770434E+03  0.15995986040E+03  0.00000000000E+00 0. -1.
</event>
<event>
 7    1  0.2943257E-009  0.1944782E+03  0.7561462E-02  0.1154483E+00
         -1   -1    0    0    0  501 -0.00000000000E+00  0.00000000000E+00  0.33372701147E+03  0.33372701147E+03  0.00000000000E+00 0.  1.
          1   -1    0    0  501    0  0.00000000000E+00 -0.00000000000E+00 -0.11864452842E+03  0.11864452842E+03  0.00000000000E+00 0. -1.
         25    2    1    2    0    0 -0.95031760107E+01  0.16311698793E+03  0.77607178988E+02  0.21992663564E+03  0.12508952287E+03 0.  0.
          5    1    3    3  502    0 -0.52582365403E+02  0.23302394107E+02  0.93005478694E+01  0.58411294398E+02  0.41800000000E+01 0.  1.
         -5    1    3    3    0  502  0.43079189393E+02  0.13981459382E+03  0.68306631118E+02  0.16151534125E+03  0.41800000000E+01 0.  1.
        -11    1    1    2    0    0 -0.34322436268E+02 -0.11422743749E+03  0.69996908046E+02  0.13829498994E+03  0.00000000000E+00 0.  1.
         11    1    1    2    0    0  0.43825612278E+02 -0.48889550435E+02  0.67478396018E+02  0.94149914299E+02  0.00000000000E+00 0. -1.
</event>
<event>
 7    1  0.2943257E-009  0.8819553E+02  0.7561462E-02  0.1307281E+00
         -1   -1    0    0    0  501 -0.00000000000E+00  0.00000000000E+00  0.22426667764E+03  0.22426667764E+03  0.00000000000E+00 0.  1.
          1   -1    0    0  501    0  0.00000000000E+00 -0.00000000000E+00 -0.51568131304E+02  0.51568131304E+02  0.00000000000E+00 0. -1.
         25    2    1    2    0    0 -0.27744318238E+00 -0.48034604180E+01  0.90021876397E+02  0.15419316957E+03  0.12509374527E+03 0.  0.
          5    1    3    3  502    0 -0.13609223783E+01 -0.54943009261E+02  0.49367360491E+01  0.55339227852E+02  0.41800000000E+01 0.  1.
         -5    1    3    3    0  502  0.10834791959E+01  0.50139548843E+02  0.85085140348E+02  0.98853941719E+02  0.41800000000E+01 0.  1.
        -11    1    1    2    0    0 -0.34974285917E+02 -0.20550078009E+01  0.77896152719E+02  0.85412143990E+02  0.00000000000E+00 0.  1.
         11    1    1    2    0    0  0.35251729100E+02  0.68584682189E+01  0.47805172199E+01  0.36229495383E+02  0.00000000000E+00 0. -1.
</event>
<event>
 7    1  0.2943257E-009  0.1277415E+03  0.7561462E-02  0.1230846E+00
         -3   -1    0    0    0  501 -0.00000000000E+00  0.00000000000E+00  0.40681739491E+02  0.40681739491E+02  0.00000000000E+00 0.  1.
          3   -1    0    0  501    0  0.00000000000E+00 -0.00000000000E+00 -0.73554283456E+03  0.73554283456E+03  0.00000000000E+00 0. -1.
         25    2    1    2    0    0 -0.80942044085E+02  0.21362205562E+02 -0.60164117247E+03  0.62018430987E+03  0.12509404249E+03 0.  0.
          5    1    3    3  502    0 -0.66727468853E+02  0.64926380114E+02 -0.27604145807E+03  0.29134918724E+03  0.41800000000E+01 0. -1.
         -5    1    3    3    0  502 -0.14214575232E+02 -0.43564174553E+02 -0.32559971440E+03  0.32883512262E+03  0.41800000000E+01 0. -1.
        -11    1    1    2    0    0  0.83928751207E+02  0.10220469832E+02 -0.91035560645E+02  0.12424156545E+03  0.00000000000E+00 0.  1.
         11    1    1    2    0    0 -0.29867071226E+01 -0.31582675394E+02 -0.21843619591E+01  0.31798698741E+02  0.00000000000E+00 0. -1.
</event>
<event>
 7    1  0.2943257E-009  0.1018735E+03  0.7561462E-02  0.1276405E+00
          2   -1    0    0  501    0  0.00000000000E+00  0.00000000000E+00  0.29620827839E+03  0.29620827839E+03  0.00000000000E+00 0. -1.
         -2   -1    0    0    0  501 -0.00000000000E+00 -0.00000000000E+00 -0.45551321915E+02  0.45551321915E+02  0.00000000000E+00 0.  1.
         25    2    1    2    0    0 -0.23447189576E+02 -0.28740230740E+02  0.17095253111E+03  0.21505340248E+03  0.12508967370E+03 0.  0.
          5    1    3    3  502    0  0.14915497191E+02  0.43286801268E+02  0.83814913003E+02  0.95596188533E+02  0.41800000000E+01 0. -1.
         -5    1    3    3    0  502 -0.38362686768E+02 -0.72027032008E+02  0.87137618104E+02  0.11945721395E+03  0.41800000000E+01 0. -1.
        -11    1    1    2    0    0  0.37132643702E+02  0.42647144207E+02  0.88723168591E+02  0.10521127688E+03  0.00000000000E+00 0.  1.
         11    1    1    2    0    0 -0.13685454126E+02 -0.13906913468E+02 -0.90187432272E+01  0.21494920940E+02  0.00000000000E+00 0. -1.
</event>
<event>
 7    1  0.2943257E-009  0.1228694E+03  0.7561462E-02  0.1238437E+00
          1   -1    0    0  501    0  0.00000000000E+00  0.00000000000E+00  0.22032368205E+03  0.22032368205E+03  0.00000000000E+00 0. -1.
         -1   -1    0    0    0  501 -0.00000000000E+00 -0.00000000000E+00 -0.86745045105E+02  0.86745045105E+02  0.00000000000E+00 0.  1.
         25    2    1    2    0    0  0.54056551855E+02  0.63531702608E+02  0.93923051629E+02  0.17726730571E+03  0.12507505751E+03 0.  0.
          5    1    3    3  502    0  0.68354082212E+02  0.78168242702E+02  0.10968838377E+03  0.15110118682E+03  0.41800000000E+01 0.  1.
         -5    1    3    3    0  502 -0.14297530357E+02 -0.14636540095E+02 -0.15765332144E+02  0.26166118892E+02  0.41800000000E+01 0.  1.
        -11    1    1    2    0    0  0.24273967019E+02 -0.11232339910E+02 -0.19877325630E+01  0.26820552109E+02  0.00000000000E+00 0. -1.
         11    1    1    2    0    0 -0.78330518875E+02 -0.52299362698E+02  0.41643317878E+02  0.10298086934E+03  0.00000000000E+00 0.  1.
</event>
<event>
 7    1  0.2943257E-009  0.9944161E+02  0.7561462E-02  0.1281475E+00
          2   -1    0    0  501    0  0.00000000000E+00  0.00000000000E+00  0.28722372663E+03  0.28722372663E+03  0.00000000000E+00 0. -1.
         -2   -1    0    0    0  501 -0.00000000000E+00 -0.00000000000E+00 -0.50155270453E+02  0.50155270453E+02  0.00000000000E+00 0.  1.
         25    2    1    2    0    0  0.14975804212E+02  0.41195811594E+02  0.96394715672E+02  0.16388870944E+03  0.12508476433E+03 0.  0.
          5    1    3    3  502    0  0.94647296651E+01  0.71734806514E+02  0.11474932095E+02  0.73379902152E+02  0.41800000000E+01 0. -1.
         -5    1    3    3    0  502  0.55110745472E+01 -0.30538994920E+02  0.84919783576E+02  0.90508807284E+02  0.41800000000E+01 0. -1.
        -11    1    1    2    0    0 -0.12275434345E+02 -0.67522235150E+02  0.70027998132E+02  0.98050288375E+02  0.00000000000E+00 0.  1.
         11    1    1    2    0    0 -0.27003698674E+01  0.26326423556E+02  0.70645742372E+02  0.75439999270E+02  0.00000000000E+00 0. -1.
</event>
<event>
 7    1  0.2943257E-009  0.8210985E+02  0.7561462E-02  0.1323168E+00
          2   -1    0    0  501    0  0.00000000000E+00  0.00000000000E+00  0.49582372364E+02  0.49582372364E+02  0.00000000000E+00 0. -1.
         -2   -1    0    0    0  501 -0.00000000000E+00 -0.00000000000E+00 -0.27812528992E+03  0.27812528992E+03  0.00000000000E+00 0.  1.
         25    2    1    2    0    0  0.41612756712E+02 -0.16968814637E+02 -0.12743834456E+03  0.18414239862E+03  0.12509328166E+03 0.  0.
          5    1    3    3  502    0  0.33725348752E+02 -0.33226358173E+02  0.73425949373E+01  0.48091331093E+02  0.41800000000E+01 0. -1.
         -5    1    3    3    0  502  0.78874079597E+01  0.16257543536E+02 -0.13478093949E+03  0.13605106753E+03  0.41800000000E+01 0. -1.
        -11    1    1    2    0    0  0.24016521402E+02 -0.11475159890E+02 -0.11716703557E+02  0.29081845488E+02  0.00000000000E+00 0. -1.
         11    1    1    2    0    0 -0.65629278113E+02  0.28443974527E+02 -0.89387869446E+02  0.11448341817E+03  0.00000000000E+00 0.  1.
</event>
<event>
 7    1  0.2943257E-009  0.1056175E+03  0.7561462E-02  0.1268908E+00
         -1   -1    0    0    0  501 -0.00000000000E+00  0.00000000000E+00  0.23444297796E+02  0.23444297796E+02  0.00000000000E+00 0.  1.
          1   -1    0    0  501    0  0.00000000000E+00 -0.00000000000E+00 -0.11954740295E+04  0.11954740295E+04  0.00000000000E+00 0. -1.
         25    2    1    2    0    0  0.76951682353E+02 -0.72538533726E+01 -0.98921058622E+03  0.10000793826E+04  0.12508800028E+03 0.  0.
          5    1    3    3  502    0  0.59357238959E+01  0.37955852764E+02 -0.62704121073E+03  0.62823087470E+03  0.41800000000E+01 0.  1.
         -5    1    3    3    0  502  0.71015958457E+02 -0.45209706136E+02 -0.36216937549E+03  0.37184850790E+03  0.41800000000E+01 0.  1.
        -11    1    1    2    0    0 -0.17905885748E+02  0.21080661843E+02 -0.15584253314E+01  0.27702774909E+02  0.00000000000E+00 0.  1.
         11    1    1    2    0    0 -0.59045796605E+02 -0.13826808470E+02 -0.18126072015E+03  0.19113616978E+03  0.00000000000E+00 0. -1.
</event>
<event>
 7    1  0.2943257E-009  0.1557089E+03  0.7561462E-02  0.1193628E+00
         -2   -1    0    0    0  501 -0.00000000000E+00  0.00000000000E+00  0.53519180452E+02  0.53519180452E+02  0.00000000000E+00 0.  1.
          2   -1    0    0  501    0  0.00000000000E+00 -0.00000000000E+00 -0.53690614635E+03  0.53690614635E+03  0.00000000000E+00 0. -1.
         25    2    1    2    0    0  0.94123646900E+02 -0.88086743961E+02 -0.27758228048E+03  0.33063330237E+03  0.12509165773E+03 0.  0.
          5    1    3    3  502    0  0.65717856148E+02 -0.11988612564E+03 -0.21235577032E+03  0.25259446812E+03  0.41800000000E+01 0.  1.
         -5    1    3    3    0  502  0.28405790752E+02  0.31799381677E+02 -0.65226510158E+02  0.78038834248E+02  0.41800000000E+01 0.  1.
        -11    1    1    2    0    0 -0.58218659890E+02  0.71606399751E+02 -0.63292954273E+02  0.11190570542E+03  0.00000000000E+00 0.  1.
         11    1    1    2    0    0 -0.35904987009E+02  0.16480344210E+02 -0.14251173115E+03  0.14788631902E+03  0.00000000000E+00 0. -1.
</event>
<event>
 7    1  0.2943257E-009  0.1162629E+03  0.7561462E-02  0.1249393E+00
          2   -1    0    0  501    0  0.00000000000E+00  0.00000000000E+00  0.38624690551E+03  0.38624690551E+03  0.00000000000E+00 0. -1.
         -2   -1    0    0    0  501 -0.00000000000E+00 -0.00000000000E+00 -0.47497189669E+02  0.47497189669E+02  0.00000000000E+00 0.  1.
         25    2    1    2    0    0 -0.79545365631E+02  0.13879066386E+02  0.15915976308E+03  0.21794197048E+03  0.12508708421E+03 0.  0.
          5    1    3    3  502    0  0.33720817701E+02  0.98425260620E+01  0.41201240201E+02  0.54304543639E+02  0.41800000000E+01 0. -1.
         -5    1    3    3    0  502 -0.11326618333E+03  0.40365403236E+01  0.11795852288E+03  0.16363742684E+03  0.41800000000E+01 0. -1.
        -11    1    1    2    0    0  0.25780631900E+02 -0.15248935770E+02  0.17457746749E+01  0.30003645653E+02  0.00000000000E+00 0.  1.
         11    1    1    2    0    0  0.53764733732E+02  0.13698693846E+01  0.17784417808E+03  0.18579847904E+03  0.00000000000E+00 0. -1.
</event>
<event>
 7    1  0.2943257E-009  0.8903857E+02  0.7561462E-02  0.1305197E+00
         -2   -1    0    0    0  501 -0.00000000000E+00  0.00000000000E+00  0.47716351742E+02  0.47716351742E+02  0.00000000000E+00 0.  1.
          2   -1    0    0  501    0  0.00000000000E+00 -0.00000000000E+00 -0.45708046639E+03  0.45708046639E+03  0.00000000000E+00 0. -1.
         25    2    1    2    0    0 -0.34488606123E+02  0.70962359924E+02 -0.11468329884E+03  0.18714930796E+03  0.12508990349E+03 0.  0.
          5    1    3    3  502    0 -0.85429549041E+01  0.24463667913E+02  0.25831005988E+02  0.36826164565E+02  0.41800000000E+01 0.  1.
         -5    1    3    3    0  502 -0.25945651219E+02  0.46498692012E+02 -0.14051430483E+03  0.15032314339E+03  0.41800000000E+01 0.  1.
        -11    1    1    2    0    0 -0.50143840695E+00 -0.62391970452E+02 -0.88143665719E+02  0.10799219983E+03  0.00000000000E+00 0.  1.
         11    1    1    2    0    0  0.34990044530E+02 -0.85703894722E+01 -0.20653715008E+03  0.20965531035E+03  0.00000000000E+00 0. -1.
</event>
<event>
 7    1  0.2943257E-009  0.2303570E+03  0.7561462E-02  0.1126389E+00
          1   -1    0    0  501    0  0.00000000000E+00  0.00000000000E+00  0.10634297631E+04  0.10634297631E+04  0.00000000000E+00 0. -1.
         -1   -1    0    0    0  501 -0.00000000000E+00 -0.00000000000E+00 -0.58101630847E+02  0.58101630847E+02  0.00000000000E+00 0.  1.
         25    2    1    2    0    0  0.21333169464E+03  0.28982767996E+02  0.65149928787E+03  0.69745903392E+03  0.12508944449E+03 0.  0.
          5    1    3    3  502    0  0.19316754777E+03  0.64927355451E+02  0.48939790140E+03  0.53014813146E+03  0.41800000000E+01 0. -1.
         -5    1    3    3    0  502  0.20164146875E+02 -0.35944587455E+02  0.16210138647E+03  0.16731090246E+03  0.41800000000E+01 0. -1.
        -11    1    1    2    0    0 -0.28222380294E+02 -0.67522128105E+01  0.12789667296E+03  0.13114745168E+03  0.00000000000E+00 0. -1.
         11    1    1    2    0    0 -0.18510931435E+03 -0.22230555185E+02  0.22593217138E+03  0.29292490831E+03  0.00000000000E+00 0.  1.
</event>
<event>
 7    1  0.2943257E-009  0.9436902E+02  0.7561462E-02  0.1292604E+00
          4   -1    0    0  501    0  0.00000000000E+00  0.00000000000E+00  0.14960218880E+03  0.14960218880E+03  0.00000000000E+00 0. -1.
         -4   -1    0    0    0  501 -0.00000000000E+00 -0.00000000000E+00 -0.10243090727E+03  0.10243090727E+03  0.00000000000E+00 0.  1.
         25    2    1    2    0    0 -0.33856941724E+02  0.52909486577E+01 -0.23128808107E+02  0.13174933461E+03  0.12509459926E+03 0.  0.
          5    1    3    3  502    0 -0.27388922650E+02 -0.47822834761E+02  0.24065767048E+02  0.60281092824E+02  0.41800000000E+01 0. -1.
         -5    1    3    3    0  502 -0.64680190745E+01  0.53113783419E+02 -0.47194575155E+02  0.71468241785E+02  0.41800000000E+01 0. -1.
        -11    1    1    2    0    0  0.41210870589E+01 -0.36477240979E+02  0.67825078702E+02  0.77122070570E+02  0.00000000000E+00 0. -1.
         11    1    1    2    0    0  0.29735854665E+02  0.31186292322E+02  0.24750109372E+01  0.43161690891E+02  0.00000000000E+00 0.  1.
</event>
<event>
 7    1  0.3064384E-009  0.1045992E+03  0.7561462E-02  0.1270911E+00
         -1   -1    0    0    0  501 -0.00000000000E+00  0.00000000000E+00  0.17099343043E+02  0.17099343043E+02  0.00000000000E+00 0.  1.
          1   -1    0    0  501    0  0.00000000000E+00 -0.00000000000E+00 -0.11187341558E+04  0.11187341558E+04  0.00000000000E+00 0. -1.
         25    2    1    2    0    0  0.31516616670E+02 -0.75386043702E+02 -0.71501764647E+03  0.73046128641E+03  0.12508838259E+03 0.  0.
          5    1    3    3  502    0  0.10109329585E+02 -0.90555865190E+02 -0.27685631555E+03  0.29149520600E+03  0.41800000000E+01 0.  1.
         -5    1    3    3    0  502  0.21407287084E+02  0.15169821488E+02 -0.43816133093E+03  0.43896608040E+03  0.41800000000E+01 0.  1.
        -11    1    1    2    0    0 -0.24859304795E+02  0.11862408797E+02 -0.22136156391E+02  0.35337107934E+02  0.00000000000E+00 0.  1.
         11    1    1    2    0    0 -0.66573118745E+01  0.63523634905E+02 -0.36448100993E+03  0.37003510454E+03  0.00000000000E+00 0. -1.
</event>
<event>
 7    1  0.2943257E-009  0.1517202E+03  0.7561462E-02  0.1198375E+00
         -2   -1    0    0    0  501 -0.00000000000E+00  0.00000000000E+00  0.14364224136E+03  0.14364224136E+03  0.00000000000E+00 0.  1.
          2   -1    0    0  501    0  0.00000000000E+00 -0.00000000000E+00 -0.17148072367E+03  0.17148072367E+03  0.00000000000E+00 0. -1.
         25    2    1    2    0    0 -0.10961438764E+03 -0.34679491856E+01  0.51770211021E+00  0.16635434529E+03  0.12508460949E+03 0.  0.
          5    1    3    3  502    0 -0.73161659752E+02  0.53303798301E+02  0.25746094242E+02  0.94203275632E+02  0.41800000000E+01 0. -1.
         -5    1    3    3    0  502 -0.36452727890E+02 -0.56771747487E+02 -0.25228392132E+02  0.72151069659E+02  0.41800000000E+01 0. -1.
        -11    1    1    2    0    0  0.36303933150E+02  0.47442402371E+02 -0.39712654591E+01  0.59870928290E+02  0.00000000000E+00 0. -1.
         11    1    1    2    0    0  0.73310454493E+02 -0.43974453186E+02 -0.24384918960E+02  0.88897691441E+02  0.00000000000E+00 0.  1.
</event>
<event>
 7    1  0.3366569E-009  0.2078795E+03  0.7561462E-02  0.1143256E+00
          2   -1    0    0  501    0  0.00000000000E+00  0.00000000000E+00  0.16445789972E+04  0.16445789972E+04  0.00000000000E+00 0. -1.
         -2   -1    0    0    0  501 -0.00000000000E+00 -0.00000000000E+00 -0.31862800548E+02  0.31862800548E+02  0.00000000000E+00 0.  1.
         25    2    1    2    0    0 -0.19888343977E+03  0.12999454904E+02  0.72937291682E+03  0.76639028250E+03  0.12508239235E+03 0.  0.
          5    1    3    3  502    0 -0.74221808400E+02  0.96426216666E+01  0.10117063927E+03  0.12591595469E+03  0.41800000000E+01 0.  1.
         -5    1    3    3    0  502 -0.12466163137E+03  0.33568332373E+01  0.62820227755E+03  0.64047432781E+03  0.41800000000E+01 0.  1.
        -11    1    1    2    0    0  0.12690256680E+03 -0.48382214756E+02  0.62306716288E+03  0.63769725546E+03  0.00000000000E+00 0.  1.
         11    1    1    2    0    0  0.71980872974E+02  0.35382759852E+02  0.26027611699E+03  0.27235425982E+03  0.00000000000E+00 0. -1.
</event>
<event>
 7    1  0.2943257E-009  0.1388550E+03  0.7561462E-02  0.1214878E+00
         -4   -1    0    0    0  501 -0.00000000000E+00  0.00000000000E+00  0.18850929827E+03  0.18850929827E+03  0.00000000000E+00 0.  1.
          4   -1    0    0  501    0  0.00000000000E+00 -0.00000000000E+00 -0.13169950393E+03  0.13169950393E+03  0.00000000000E+00 0. -1.
         25    2    1    2    0    0 -0.98210595111E+01 -0.10639031670E+03  0.69803815541E+02  0.17870485666E+03  0.12508996935E+03 0.  0.
          5    1    3    3  502    0  0.31208885362E+02  0.78650253623E+00  0.54369544605E+02  0.62834169783E+02  0.41800000000E+01 0. -1.
         -5    1    3    3    0  502 -0.41029944873E+02 -0.10717681924E+03  0.15434270936E+02  0.11587068688E+03  0.41800000000E+01 0. -1.
        -11    1    1    2    0    0 -0.16905881378E+02 -0.43482814846E+01  0.16296065560E+02  0.23880496850E+02  0.00000000000E+00 0.  1.
         11    1    1    2    0    0  0.26726940890E+02  0.11073859819E+03 -0.29290086755E+02  0.11762344868E+03  0.00000000000E+00 0. -1.
</event>
<event>
 7    1  0.2943257E-009  0.1040007E+03  0.7561462E-02  0.1272101E+00
         -2   -1    0    0    0  501 -0.00000000000E+00  0.00000000000E+00  0.44233460689E+02  0.44233460689E+02  0.00000000000E+00 0.  1.
          2   -1    0    0  501    0  0.00000000000E+00 -0.00000000000E+00 -0.28913087057E+03  0.28913087057E+03  0.00000000000E+00 0. -1.
         25    2    1    2    0    0 -0.23089582985E+02 -0.14550767997E+02 -0.16874998231E+03  0.21182076761E+03  0.12508647957E+03 0.  0.
          5    1    3    3  502    0  0.39632609369E+02 -0.28354337421E+02 -0.26359289603E+02  0.55560748054E+02  0.41800000000E+01 0.  1.
         -5    1    3    3    0  502 -0.62722192354E+02  0.13803569424E+02 -0.14239069271E+03  0.15626001956E+03  0.41800000000E+01 0.  1.
        -11    1    1    2    0    0 -0.15734627510E+01 -0.37290354609E+02 -0.29724055836E+02  0.47713371577E+02  0.00000000000E+00 0.  1.
         11    1    1    2    0    0  0.24663045736E+02  0.51841122607E+02 -0.46423371738E+02  0.73830192073E+02  0.00000000000E+00 0. -1.
</event>
<event>
 7    1  0.2943257E-009  0.8602699E+02  0.7561462E-02  0.1312768E+00
         -2   -1    0    0    0  501 -0.00000000000E+00  0.00000000000E+00  0.20427352504E+02  0.20427352504E+02  0.00000000000E+00 0.  1.
          2   -1    0    0  501    0  0.00000000000E+00 -0.00000000000E+00 -0.79606050252E+03  0.79606050252E+03  0.00000000000E+00 0. -1.
         25    2    1    2    0    0 -0.26441227847E+02  0.56448831692E+02 -0.50925636699E+03  0.52808655386E+03  0.12509097454E+03 0.  0.
          5    1    3    3  502    0 -0.12797400208E+02 -0.23589714749E+01 -0.42016189452E+03  0.42038414362E+03  0.41800000000E+01 0.  1.
         -5    1    3    3    0  502 -0.13643827639E+02  0.58807803167E+02 -0.89094472471E+02  0.10770241024E+03  0.41800000000E+01 0.  1.
        -11    1    1    2    0    0  0.53190753282E+02 -0.38367369192E+02 -0.23262358694E+03  0.24169204467E+03  0.00000000000E+00 0.  1.
         11    1    1    2    0    0 -0.26749525435E+02 -0.18081462500E+02 -0.33753196078E+02  0.46709256499E+02  0.00000000000E+00 0. -1.
</event>
<event>
 7    1  0.2943257E-009  0.8247333E+02  0.7561462E-02  0.1322175E+00
         -2   -1    0    0    0  501 -0.00000000000E+00  0.00000000000E+00  0.10658155455E+02  0.10658155455E+02  0.00000000000E+00 0.  1.
          2   -1    0    0  501    0  0.00000000000E+00 -0.00000000000E+00 -0.23278775662E+04  0.23278775662E+04  0.00000000000E+00 0. -1.
         25    2    1    2    0    0  0.15108432022E+02  0.67041627255E+02 -0.19142794269E+04  0.19195925913E+04  0.12508856095E+03 0.  0.
          5    1    3    3  502    0 -0.83884155955E+01  0.36078532600E+02 -0.17613863805E+04  0.17617807695E+04  0.41800000000E+01 0. -1.
         -5    1    3    3    0  502  0.23496847618E+02  0.30963094655E+02 -0.15289304642E+03  0.15781182187E+03  0.41800000000E+01 0. -1.
        -11    1    1    2    0    0  0.42364131020E+01 -0.69003381602E+02 -0.38880691524E+03  0.39490534461E+03  0.00000000000E+00 0. -1.
         11    1    1    2    0    0 -0.19344845124E+02  0.19617543470E+01 -0.14133068669E+02  0.24037785734E+02  0.00000000000E+00 0.  1.
</event>
<event>
 7    1  0.2943257E-009  0.1051757E+03  0.7561462E-02  0.1269774E+00
         -2   -1    0    0    0  501 -0.00000000000E+00  0.00000000000E+00  0.25495975978E+03  0.25495975978E+03  0.00000000000E+00 0.  1.
          2   -1    0    0  501    0  0.00000000000E+00 -0.00000000000E+00 -0.77258981893E+02  0.77258981893E+02  0.00000000000E+00 0. -1.
         25    2    1    2    0    0 -0.46803048965E+02  0.40570154932E+02  0.21375014800E+02  0.14120691650E+03  0.12508412828E+03 0.  0.
          5    1    3    3  502    0 -0.34681365301E+02 -0.29627979793E+02 -0.28679403688E+02  0.54042528453E+02  0.41800000000E+01 0.  1.
         -5    1    3    3    0  502 -0.12121683665E+02  0.70198134725E+02  0.50054418488E+02  0.87164388048E+02  0.41800000000E+01 0.  1.
        -11    1    1    2    0    0  0.86411504915E+01 -0.52498080771E+02  0.36057714735E+02  0.64271897112E+02  0.00000000000E+00 0. -1.
         11    1    1    2    0    0  0.38161898474E+02  0.11927925839E+02  0.12026804835E+03  0.12673992805E+03  0.00000000000E+00 0.  1.
</event>
<event>
 7    1  0.2943257E-009  0.1078683E+03  0.7561462E-02  0.1264569E+00
          2   -1    0    0  501    0  0.00000000000E+00  0.00000000000E+00  0.58786965447E+02  0.58786965447E+02  0.00000000000E+00 0. -1.
         -2   -1    0    0    0  501 -0.00000000000E+00 -0.00000000000E+00 -0.23443765080E+03  0.23443765080E+03  0.00000000000E+00 0.  1.
         25    2    1    2    0    0  0.44883067937E+01 -0.18758871854E+02 -0.13814238327E+03  0.18735287253E+03  0.12508293496E+03 0.  0.
          5    1    3    3  502    0 -0.50490727879E+02  0.20165552304E+02 -0.37517300889E+02  0.66188997329E+02  0.41800000000E+01 0.  1.
         -5    1    3    3    0  502  0.54979034673E+02 -0.38924424158E+02 -0.10062508238E+03  0.12116387520E+03  0.41800000000E+01 0.  1.
        -11    1    1    2    0    0  0.43386195475E+02  0.14071854963E+02 -0.35374277889E+02  0.57721041190E+02  0.00000000000E+00 0.  1.
         11    1    1    2    0    0 -0.47874502268E+02  0.46870168910E+01 -0.21340241949E+01  0.48150702529E+02  0.00000000000E+00 0. -1.
</event>
<event>
 7    1  0.6220471E-009  0.1282956E+03  0.7561462E-02  0.1230007E+00
         -1   -1    0    0    0  501 -0.00000000000E+00  0.00000000000E+00  0.52616457238E+02  0.52616457238E+02  0.00000000000E+00 0.  1.
          1   -1    0    0  501    0  0.00000000000E+00 -0.00000000000E+00 -0.49637211937E+03  0.49637211937E+03  0.00000000000E+00 0. -1.
         25    2    1    2    0    0  0.66459739332E+01  0.10869850432E+03 -0.15502384813E+03  0.22702192999E+03  0.12508808656E+03 0.  0.
          5    1    3    3  502    0  0.35951262835E+02  0.17917403051E+01 -0.93268894896E+02  0.10006129515E+03  0.41800000000E+01 0. -1.
         -5    1    3    3    0  502 -0.29305288901E+02  0.10690676402E+03 -0.61754953231E+02  0.12696063484E+03  0.41800000000E+01 0. -1.
        -11    1    1    2    0    0  0.17052365138E+01 -0.59299605561E+02 -0.25441674536E+03  0.26124171062E+03  0.00000000000E+00 0. -1.
         11    1    1    2    0    0 -0.83512104471E+01 -0.49398898761E+02 -0.34315068646E+02  0.60724935989E+02  0.00000000000E+00 0.  1.
</event>
<event>
 6    1  0.2943257E-009  0.2040924E+03  0.7561462E-02  0.1146331E+00
          1   -1    0    0  501    0  0.00000000000E+00  0.00000000000E+00  0.14317828367E+04  0.14317828367E+04  0.00000000000E+00 0. -1.
         -1   -1    0    0    0  501 -0.00000000000E+00 -0.00000000000E+00 -0.35378841625E+02  0.35378841625E+02  0.00000000000E+00 0.  1.
          5    1    1    2  502    0 -0.13434262919E+03 -0.79436217472E+02  0.38113365341E+03  0.41187181116E+03  0.41800000000E+01 0. -1.
         -5    1    1    2    0  502 -0.50798326699E+02  0.17300737548E+02  0.38015382113E+03  0.38394555035E+03  0.41800000000E+01 0. -1.
        -11    1    1    2    0    0  0.67474509336E+02  0.40188646744E+02  0.39861711695E+03  0.40628012831E+03  0.00000000000E+00 0. -1.
         11    1    1    2    0    0  0.11766644655E+03  0.21946833180E+02  0.23649940357E+03  0.26506418848E+03  0.00000000000E+00 0.  1.
</event>
<event>
 7    1  0.2943257E-009  0.1249430E+03  0.7561462E-02  0.1235158E+00
          2   -1    0    0  501    0  0.00000000000E+00  0.00000000000E+00  0.57717623191E+03  0.57717623191E+03  0.00000000000E+00 0. -1.
         -2   -1    0    0    0  501 -0.00000000000E+00 -0.00000000000E+00 -0.31240137050E+02  0.31240137050E+02  0.00000000000E+00 0.  1.
         25    2    1    2    0    0 -0.66727116124E+02  0.42408598530E+02  0.30388958298E+03  0.33800624562E+03  0.12509334986E+03 0.  0.
          5    1    3    3  502    0 -0.43116248821E+02 -0.41906896688E+02  0.11935205940E+03  0.13370708801E+03  0.41800000000E+01 0.  1.
         -5    1    3    3    0  502 -0.23610867304E+02  0.84315495218E+02  0.18453752358E+03  0.20429915761E+03  0.41800000000E+01 0.  1.
        -11    1    1    2    0    0  0.95133390588E+01  0.16997318937E+02  0.60191206788E+01  0.20387306954E+02  0.00000000000E+00 0.  1.
         11    1    1    2    0    0  0.57213777066E+02 -0.59405917467E+02  0.23602739120E+03  0.25002281638E+03  0.00000000000E+00 0. -1.
</event>
<event>
 7    1  0.2943257E-009  0.1069802E+03  0.7561462E-02  0.1266266E+00
          2   -1    0    0  501    0  0.00000000000E+00  0.00000000000E+00  0.20982551239E+03  0.20982551239E+03  0.00000000000E+00 0. -1.
         -2   -1    0    0    0  501 -0.00000000000E+00 -0.00000000000E+00 -0.65328143199E+02  0.65328143199E+02  0.00000000000E+00 0.  1.
         25    2    1    2    0    0  0.26057205583E+02 -0.19974294347E+02  0.83866653572E+02  0.15413828104E+03  0.12508814373E+03 0.  0.
          5    1    3    3  502    0  0.54783992034E+02  0.21320879200E+02  0.85253969661E+02  0.10364158150E+03  0.41800000000E+01 0. -1.
         -5    1    3    3    0  502 -0.28726786451E+02 -0.41295173547E+02 -0.13873160886E+01  0.50496699536E+02  0.41800000000E+01 0. -1.
        -11    1    1    2    0    0 -0.61187671950E+02  0.29814859277E+02  0.36027713463E+02  0.77012032629E+02  0.00000000000E+00 0.  1.
         11    1    1    2    0    0  0.35130466366E+02 -0.98405649294E+01  0.24603002153E+02  0.44003341921E+02  0.00000000000E+00 0. -1.
</event>
<event>
 7    1  0.2943257E-009  0.2084434E+03  0.7561462E-02  0.1142805E+00
          1   -1    0    0  501    0  0.00000000000E+00  0.00000000000E+00  0.11294087748E+04  0.11294087748E+04  0.00000000000E+00 0. -1.
         -1   -1    0    0    0  501 -0.00000000000E+00 -0.00000000000E+00 -0.50822754901E+02  0.50822754901E+02  0.00000000000E+00 0.  1.
         25    2    1    2    0    0 -0.17386589314E+03 -0.99002630165E+02  0.36785515892E+03  0.43703136833E+03  0.12509248330E+03 0.  0.
          5    1    3    3  502    0 -0.28771969484E+02 -0.11904914556E+02  0.18579312830E+03  0.18843065606E+03  0.41800000000E+01 0.  1.
         -5    1    3    3    0  502 -0.14509392365E+03 -0.87097715610E+02  0.18206203062E+03  0.24860071227E+03  0.41800000000E+01 0.  1.
        -11    1    1    2    0    0  0.10629006555E+03  0.10364033195E+03  0.52115681823E+03  0.54188866535E+03  0.00000000000E+00 0.  1.
         11    1    1    2    0    0  0.67575827585E+02 -0.46377017878E+01  0.18957404274E+03  0.20131149602E+03  0.00000000000E+00 0. -1.
</event>
<event>
 7    1  0.2943257E-009  0.1429927E+03  0.7561462E-02  0.1209358E+00
         -1   -1    0    0    0  501 -0.00000000000E+00  0.00000000000E+00  0.35201233833E+02  0.35201233833E+02  0.00000000000E+00 0.  1.
          1   -1    0    0  501    0  0.00000000000E+00 -0.00000000000E+00 -0.75070588899E+03  0.75070588899E+03  0.00000000000E+00 0. -1.
         25    2    1    2    0    0 -0.36198604624E+02 -0.11732656310E+03 -0.38003625133E+03  0.41850926563E+03  0.12508633700E+03 0.  0.
          5    1    3    3  502    0 -0.49732398449E+02 -0.63742833181E+01 -0.20265090634E+03  0.20880326909E+03  0.41800000000E+01 0.  1.
         -5    1    3    3    0  502  0.13533793825E+02 -0.11095227979E+03 -0.17738534499E+03  0.20970599654E+03  0.41800000000E+01 0. -1.
        -11    1    1    2    0    0  0.17606586016E+02  0.82322564712E+02 -0.11023580533E+03  0.13870446752E+03  0.00000000000E+00 0.  1.
         11    1    1    2    0    0  0.18592018608E+02  0.35003998392E+02 -0.22523259849E+03  0.22869338968E+03  0.00000000000E+00 0. -1.
</event>
<event>
 7    1  0.2943257E-009  0.1157348E+03  0.7561462E-02  0.1250304E+00
          1   -1    0    0  501    0  0.00000000000E+00  0.00000000000E+00  0.24639636000E+03  0.24639636000E+03  0.00000000000E+00 0. -1.
         -1   -1    0    0    0  501 -0.00000000000E+00 -0.00000000000E+00 -0.10349977321E+03  0.10349977321E+03  0.00000000000E+00 0.  1.
         25    2    1    2    0    0  0.18751236670E+02 -0.36690740031E+02 -0.37543075861E+02  0.13694867333E+03  0.12509051644E+03 0.  0.
          5    1    3    3  502    0 -0.47051001621E+02  0.12817561466E+02 -0.95038521381E+01  0.49858622534E+02  0.41800000000E+01 0. -1.
         -5    1    3    3    0  502  0.65802238292E+02 -0.49508301497E+02 -0.28039223723E+02  0.87090050800E+02  0.41800000000E+01 0. -1.
        -11    1    1    2    0    0  0.13230786019E+02  0.59394921284E+02  0.15416166542E+03  0.16573662679E+03  0.00000000000E+00 0. -1.
         11    1    1    2    0    0 -0.31982022690E+02 -0.22704181253E+02  0.26277997227E+02  0.47210833078E+02  0.00000000000E+00 0.  1.
</event>
<event>
 7    1  0.2943257E-009  0.2005325E+03  0.7561462E-02  0.1149291E+00
         -2   -1    0    0    0  501 -0.00000000000E+00  0.00000000000E+00  0.46988727413E+03  0.46988727413E+03  0.00000000000E+00 0.  1.
          2   -1    0    0  501    0  0.00000000000E+00 -0.00000000000E+00 -0.10090756378E+03  0.10090756378E+03  0.00000000000E+00 0. -1.
         25    2    1    2    0    0 -0.16034517741E+03  0.65026254064E+02  0.28994478529E+03  0.36007597083E+03  0.12509091340E+03 0.  0.
          5    1    3    3  502    0 -0.88487746703E+02  0.99703500264E+02  0.17296415940E+03  0.21841461059E+03  0.41800000000E+01 0.  1.
         -5    1    3    3    0  502 -0.71857430707E+02 -0.34677246200E+02  0.11698062589E+03  0.14166136024E+03  0.41800000000E+01 0.  1.
        -11    1    1    2    0    0  0.96497175093E+02  0.23272481620E+00  0.11548657288E+02  0.97186060970E+02  0.00000000000E+00 0. -1.
         11    1    1    2    0    0  0.63848002317E+02 -0.65258978881E+02  0.67486267782E+02  0.11353280611E+03  0.00000000000E+00 0.  1.
</event>
<event>
 7    1  0.2943257E-009  0.1953242E+03  0.7561462E-02  0.1153745E+00
         -1   -1    0    0    0  501 -0.00000000000E+00  0.00000000000E+00  0.14852855589E+03  0.14852855589E+03  0.00000000000E+00 0.  1.
          1   -1    0    0  501    0  0.00000000000E+00 -0.00000000000E+00 -0.31157871469E+03  0.31157871469E+03  0.00000000000E+00 0. -1.
         25    2    1    2    0    0 -0.73197431352E+02  0.16248563759E+03 -0.13900022672E+03  0.25831504381E+03  0.12508458118E+03 0.  0.
          5    1    3    3  502    0  0.27770170300E+02  0.41809356994E+02 -0.70531452553E+02  0.86668119225E+02  0.41800000000E+01 0. -1.
         -5    1    3    3    0  502 -0.10096760165E+03  0.12067628060E+03 -0.68468774167E+02  0.17164692458E+03  0.41800000000E+01 0. -1.
        -11    1    1    2    0    0  0.10554722185E+02 -0.72358351772E+02 -0.50529863146E+02  0.88884196014E+02  0.00000000000E+00 0. -1.
         11    1    1    2    0    0  0.62642709168E+02 -0.90127285819E+02  0.26479931060E+02  0.11290803076E+03  0.00000000000E+00 0.  1.
</event>
<event>
 7    1  0.2943257E-009  0.1880647E+03  0.7561462E-02  0.1160218E+00
         -2   -1    0    0    0  501 -0.00000000000E+00  0.00000000000E+00  0.47526054178E+02  0.47526054178E+02  0.00000000000E+00 0.  1.
          2   -1    0    0  501    0  0.00000000000E+00 -0.00000000000E+00 -0.15217089920E+04  0.15217089920E+04  0.00000000000E+00 0. -1.
         25    2    1    2    0    0  0.58613183963E+02  0.15751736829E+03 -0.12749886798E+04  0.12920878022E+04  0.12509008000E+03 0.  0.
          5    1    3    3  502    0  0.59336058749E+02  0.26155822938E+02 -0.23468631672E+03  0.24351598427E+03  0.41800000000E+01 0. -1.
         -5    1    3    3    0  502 -0.72287478598E+00  0.13136154535E+03 -0.10403023631E+04  0.10485718179E+04  0.41800000000E+01 0. -1.
        -11    1    1    2    0    0 -0.93059246306E+01 -0.11271318350E+03 -0.73481564231E+02  0.13487179931E+03  0.00000000000E+00 0.  1.
         11    1    1    2    0    0 -0.49307259332E+02 -0.44804184786E+02 -0.12571269376E+03  0.14227544472E+03  0.00000000000E+00 0. -1.
</event>
<event>
 7    1  0.2943257E-009  0.7416632E+02  0.7561462E-02  0.1346472E+00
          1   -1    0    0  501    0  0.00000000000E+00  0.00000000000E+00  0.67197105063E+02  0.67197105063E+02  0.00000000000E+00 0. -1.
         -1   -1    0    0    0  501 -0.00000000000E+00 -0.00000000000E+00 -0.18423327767E+03  0.18423327767E+03  0.00000000000E+00 0.  1.
         25    2    1    2    0    0  0.12303779857E+02 -0.15626542550E+02 -0.50430031583E+02  0.13632602484E+03  0.12508407225E+03 0.  0.
          5    1    3    3  502    0 -0.38938166778E+01 -0.59912066549E+02  0.84513804727E+01  0.60774301793E+02  0.41800000000E+01 0.  1.
         -5    1    3    3    0  502  0.16197596535E+02  0.44285523999E+02 -0.58881412055E+02  0.75551723045E+02  0.41800000000E+01 0.  1.
        -11    1    1    2    0    0  0.63528350483E+01  0.20553550007E+02  0.18170264463E+02  0.28159642073E+02  0.00000000000E+00 0. -1.
         11    1    1    2    0    0 -0.18656614906E+02 -0.49270074573E+01 -0.84776405489E+02  0.86944715825E+02  0.00000000000E+00 0.  1.
</event>
<event>
 7    1  0.2943257E-009  0.1587920E+03  0.7561462E-02  0.1190067E+00
         -1   -1    0    0    0  501 -0.00000000000E+00  0.00000000000E+00  0.13628176270E+03  0.13628176270E+03  0.00000000000E+00 0.  1.
          1   -1    0    0  501    0  0.00000000000E+00 -0.00000000000E+00 -0.26310166696E+03  0.26310166696E+03  0.00000000000E+00 0. -1.
         25    2    1    2    0    0  0.13528312291E+03  0.25729961780E+02  0.12092380930E+02  0.18643327426E+03  0.12509031057E+03 0.  0.
          5    1    3    3  502    0  0.12904458051E+03 -0.11651004445E+02  0.43808008999E+02  0.13683882386E+03  0.41800000000E+01 0. -1.
         -5    1    3    3    0  502  0.62385424077E+01  0.37380966225E+02 -0.31715628069E+02  0.49594450406E+02  0.41800000000E+01 0. -1.
        -11    1    1    2    0    0 -0.78398804148E+02 -0.44214277206E+02 -0.42606260319E+02  0.99581967339E+02  0.00000000000E+00 0. -1.
         11    1    1    2    0    0 -0.56884318765E+02  0.18484315427E+02 -0.96306024873E+02  0.11336818806E+03  0.00000000000E+00 0.  1.
</event>
<event>
 7    1  0.2943257E-009  0.1174446E+03  0.7561462E-02  0.1247373E+00
         -1   -1    0    0    0  501 -0.00000000000E+00  0.00000000000E+00  0.79244679279E+02  0.79244679279E+02  0.00000000000E+00 0.  1.
          1   -1    0    0  501    0  0.00000000000E+00 -0.00000000000E+00 -0.31973033853E+03  0.31973033853E+03  0.00000000000E+00 0. -1.
         25    2    1    2    0    0 -0.10746072023E+03  0.23052523407E+02 -0.17695200973E+03  0.24297993705E+03  0.12509200947E+03 0.  0.
          5    1    3    3  502    0 -0.44896205558E+01  0.15329473361E+02  0.16695815626E+02  0.23481313968E+02  0.41800000000E+01 0.  1.
         -5    1    3    3    0  502 -0.10297109968E+03  0.77230500456E+01 -0.19364782536E+03  0.21949862308E+03  0.41800000000E+01 0.  1.
        -11    1    1    2    0    0  0.65510433901E+02  0.31254948372E+01 -0.80393135357E+02  0.10375182832E+03  0.00000000000E+00 0. -1.
         11    1    1    2    0    0  0.41950286331E+02 -0.26178018244E+02  0.16859485834E+02  0.52243252436E+02  0.00000000000E+00 0.  1.
</event>
<event>
 7    1  0.2943257E-009  0.1068396E+03  0.7561462E-02  0.1266537E+00
         -2   -1    0    0    0  501 -0.00000000000E+00  0.00000000000E+00  0.47791370029E+02  0.47791370029E+02  0.00000000000E+00 0.  1.
          2   -1    0    0  501    0  0.00000000000E+00 -0.00000000000E+00 -0.28557649991E+03  0.28557649991E+03  0.00000000000E+00 0. -1.
         25    2    1    2    0    0 -0.23224485421E+02 -0.22790134263E+02 -0.18050938486E+03  0.22200843986E+03  0.12508134315E+03 0.  0.
          5    1    3    3  502    0  0.47590158781E+02 -0.16449726001E+02 -0.11341856398E+03  0.12416384238E+03  0.41800000000E+01 0.  1.
         -5    1    3    3    0  502 -0.70814644202E+02 -0.63404082612E+01 -0.67090820880E+02  0.97844597483E+02  0.41800000000E+01 0.  1.
        -11    1    1    2    0    0 -0.32254357431E+02  0.82865299110E+00 -0.62836092919E+01  0.32871172550E+02  0.00000000000E+00 0.  1.
         11    1    1    2    0    0  0.55478842852E+02  0.21961481271E+02 -0.50992135727E+02  0.78488257528E+02  0.00000000000E+00 0. -1.
</event>
<event>
 7    1  0.2943257E-009  0.1380417E+03  0.7561462E-02  0.1215989E+00
         -2   -1    0    0    0  501 -0.00000000000E+00  0.00000000000E+00  0.13883408287E+03  0.13883408287E+03  0.00000000000E+00 0.  1.
          2   -1    0    0  501    0  0.00000000000E+00 -0.00000000000E+00 -0.23062669033E+03  0.23062669033E+03  0.00000000000E+00 0. -1.
         25    2    1    2    0    0 -0.62183814477E+02 -0.86734580898E+02 -0.14510938077E+03  0.21930294041E+03  0.12508930002E+03 0.  0.
          5    1    3    3  502    0 -0.97710076861E+02 -0.41600988172E+02 -0.10259915045E+03  0.14772257583E+03  0.41800000000E+01 0.  1.
         -5    1    3    3    0  502  0.35526262384E+02 -0.45133592726E+02 -0.42510230318E+02  0.71580364577E+02  0.41800000000E+01 0.  1.
        -11    1    1    2    0    0  0.28837881712E+02  0.68237556548E+02  0.75719658398E+02  0.10593136558E+03  0.00000000000E+00 0.  1.
         11    1    1    2    0    0  0.33345932766E+02  0.18497024349E+02 -0.22402885093E+02  0.44226467214E+02  0.00000000000E+00 0. -1.
</event>
<event>
 7    1  0.2943257E-009  0.9594375E+02  0.7561462E-02  0.1289065E+00
          3   -1    0    0  501    0  0.00000000000E+00  0.00000000000E+00  0.61506240896E+02  0.61506240896E+02  0.00000000000E+00 0. -1.
         -3   -1    0    0    0  501 -0.00000000000E+00 -0.00000000000E+00 -0.27120912100E+03  0.27120912100E+03  0.00000000000E+00 0.  1.
         25    2    1    2    0    0 -0.10824971792E+02  0.64101297255E+02 -0.11889010596E+03  0.18441673992E+03  0.12509404600E+03 0.  0.
          5    1    3    3  502    0  0.34598262980E+02 -0.60727893801E+01  0.41399220999E+01  0.35616427770E+02  0.41800000000E+01 0. -1.
         -5    1    3    3    0  502 -0.45423234772E+02  0.70174086636E+02 -0.12303002806E+03  0.14880031215E+03  0.41800000000E+01 0. -1.
        -11    1    1    2    0    0  0.22381893774E+02 -0.48352903983E+02  0.21308953706E+01  0.53324414742E+02  0.00000000000E+00 0. -1.
         11    1    1    2    0    0 -0.11556921982E+02 -0.15748393273E+02 -0.92943669515E+02  0.94974207232E+02  0.00000000000E+00 0.  1.
</event>
<event>
 7    1  0.2943257E-009  0.9553820E+02  0.7561462E-02  0.1289968E+00
         -1   -1    0    0    0  501 -0.00000000000E+00  0.00000000000E+00  0.32433717453E+03  0.32433717453E+03  0.00000000000E+00 0.  1.
          1   -1    0    0  501    0  0.00000000000E+00 -0.00000000000E+00 -0.41985575681E+02  0.41985575681E+02  0.00000000000E+00 0. -1.
         25    2    1    2    0    0 -0.19490674987E+02  0.39196127649E+02  0.17185548000E+03  0.21701767267E+03  0.12508453706E+03 0.  0.
          5    1    3    3  502    0  0.32063963859E+02 -0.12085658552E+02  0.12670229728E+03  0.13132062084E+03  0.41800000000E+01 0.  1.
         -5    1    3    3    0  502 -0.51554638847E+02  0.51281786201E+02  0.45153182714E+02  0.85697051826E+02  0.41800000000E+01 0.  1.
        -11    1    1    2    0    0  0.46551437930E+02 -0.20728490155E+02  0.23060184987E+02  0.55932806197E+02  0.00000000000E+00 0. -1.
         11    1    1    2    0    0 -0.27060762942E+02 -0.18467637494E+02  0.87435933864E+02  0.93372271346E+02  0.00000000000E+00 0.  1.
</event>
<event>
 7    1  0.2943257E-009  0.1377360E+03  0.7561462E-02  0.1216408E+00
          1   -1    0    0  501    0  0.00000000000E+00  0.00000000000E+00  0.51568101729E+02  0.51568101729E+02  0.00000000000E+00 0. -1.
         -1   -1    0    0    0  501 -0.00000000000E+00 -0.00000000000E+00 -0.42667219393E+03  0.42667219393E+03  0.00000000000E+00 0.  1.
         25    2    1    2    0    0  0.98669517109E+02 -0.34678520777E+01 -0.23699363266E+03  0.28558949676E+03  0.12509068364E+03 0.  0.
          5    1    3    3  502    0  0.62648683641E+02 -0.53376035355E+02 -0.19288374632E+03  0.20975097308E+03  0.41800000000E+01 0.  1.
         -5    1    3    3    0  502  0.36020833467E+02  0.49908183277E+02 -0.44109886345E+02  0.75838523687E+02  0.41800000000E+01 0.  1.
        -11    1    1    2    0    0 -0.28167205982E+02 -0.39719238534E+02 -0.32569404528E+02  0.58581358074E+02  0.00000000000E+00 0.  1.
         11    1    1    2    0    0 -0.70502311126E+02  0.43187090611E+02 -0.10554105501E+03  0.13406944082E+03  0.00000000000E+00 0. -1.
</event>
<event>
 7    1  0.2943257E-009  0.8448891E+02  0.7561462E-02  0.1316775E+00
         -3   -1    0    0    0  501 -0.00000000000E+00  0.00000000000E+00  0.13930291064E+03  0.13930291064E+03  0.00000000000E+00 0.  1.
          3   -1    0    0  501    0  0.00000000000E+00 -0.00000000000E+00 -0.12159891500E+03  0.12159891500E+03  0.00000000000E+00 0. -1.
         25    2    1    2    0    0  0.66356729861E+02  0.16964046638E+02  0.31853962171E+02  0.14612839522E+03  0.12509132067E+03 0.  0.
          5    1    3    3  502    0  0.62425155404E+02  0.38177085783E+02  0.70484037953E+02  0.10168511156E+03  0.41800000000E+01 0.  1.
         -5    1    3    3    0  502  0.39315744569E+01 -0.21213039145E+02 -0.38630075782E+02  0.44443283659E+02  0.41800000000E+01 0.  1.
        -11    1    1    2    0    0 -0.17567613859E+02 -0.17667573138E+02 -0.48892118065E+02  0.54874433083E+02  0.00000000000E+00 0. -1.
         11    1    1    2    0    0 -0.48789116002E+02  0.70352649963E+00  0.34742151533E+02  0.59898997345E+02  0.00000000000E+00 0.  1.
</event>
<event>
 7    1  0.2943257E-009  0.8970593E+02  0.7561462E-02  0.1303565E+00
          1   -1    0    0  501    0  0.00000000000E+00  0.00000000000E+00  0.44659853390E+03  0.44659853390E+03  0.00000000000E+00 0. -1.
         -1   -1    0    0    0  501 -0.00000000000E+00 -0.00000000000E+00 -0.32973003205E+02  0.32973003205E+02  0.00000000000E+00 0.  1.
         25    2    1    2    0    0 -0.38415368033E+02  0.33928981325E+02  0.28191978289E+03  0.31265609746E+03  0.12509258579E+03 0.  0.
          5    1    3    3  502    0  0.16789719387E+02  0.37212363499E+01 -0.53940875266E+01  0.18501644719E+02  0.41800000000E+01 0.  1.
         -5    1    3    3    0  502 -0.55205087420E+02  0.30207744975E+02  0.28731387042E+03  0.29415445274E+03  0.41800000000E+01 0.  1.
        -11    1    1    2    0    0  0.60954253410E+02 -0.38721602889E+01  0.10255023592E+03  0.11936065316E+03  0.00000000000E+00 0. -1.
         11    1    1    2    0    0 -0.22538885377E+02 -0.30056821036E+02  0.29155511879E+02  0.47554786487E+02  0.00000000000E+00 0.  1.
</event>
<event>
 7    1  0.2943257E-009  0.1639252E+03  0.7561462E-02  0.1184335E+00
         -1   -1    0    0    0  501 -0.00000000000E+00  0.00000000000E+00  0.11190218727E+03  0.11190218727E+03  0.00000000000E+00 0.  1.
          1   -1    0    0  501    0  0.00000000000E+00 -0.00000000000E+00 -0.25993199099E+03  0.25993199099E+03  0.00000000000E+00 0. -1.
         25    2    1    2    0    0  0.39048820979E+02 -0.12437758876E+03 -0.99162829760E+02  0.20609866765E+03  0.12509515975E+03 0.  0.
          5    1    3    3  502    0  0.26271788907E+02  0.21403235852E+02 -0.21883974453E+02  0.40554730121E+02  0.41800000000E+01 0. -1.
         -5    1    3    3    0  502  0.12777032072E+02 -0.14578082462E+03 -0.77278855306E+02  0.16554393753E+03  0.41800000000E+01 0. -1.
        -11    1    1    2    0    0  0.14899300376E+02  0.66652368778E+02  0.74590339990E+01  0.68703454088E+02  0.00000000000E+00 0.  1.
         11    1    1    2    0    0 -0.53948121356E+02  0.57725219984E+02 -0.56326007964E+02  0.97032056524E+02  0.00000000000E+00 0. -1.
</event>
<event>
 7    1  0.2943257E-009  0.8839042E+02  0.7561462E-02  0.1306797E+00
         -1   -1    0    0    0  501 -0.00000000000E+00  0.00000000000E+00  0.23496921431E+03  0.23496921431E+03  0.00000000000E+00 0.  1.
          1   -1    0    0  501    0  0.00000000000E+00 -0.00000000000E+00 -0.85159975561E+02  0.85159975561E+02  0.00000000000E+00 0. -1.
         25    2    1    2    0    0  0.14895016636E+02 -0.34117000419E+02 -0.11962183449E+02  0.13106482959E+03  0.12509622090E+03 0.  0.
          5    1    3    3  502    0 -0.38197945830E+02 -0.17172547827E+02 -0.48559142372E+02  0.64260735853E+02  0.41800000000E+01 0. -1.
         -5    1    3    3    0  502  0.53092962466E+02 -0.16944452592E+02  0.36596958923E+02  0.66804093733E+02  0.41800000000E+01 0. -1.
        -11    1    1    2    0    0 -0.90374085352E+01  0.55706269374E+02  0.51026142414E+02  0.76082392249E+02  0.00000000000E+00 0. -1.
         11    1    1    2    0    0 -0.58576081006E+01 -0.21589268955E+02  0.11074527978E+03  0.11298196803E+03  0.00000000000E+00 0.  1.
</event>
<event>
 7    1  0.2943257E-009  0.1287959E+03  0.7561462E-02  0.1229253E+00
         -1   -1    0    0    0  501 -0.00000000000E+00  0.00000000000E+00  0.39902696670E+02  0.39902696670E+02  0.00000000000E+00 0.  1.
          1   -1    0    0  501    0  0.00000000000E+00 -0.00000000000E+00 -0.67754594307E+03  0.67754594307E+03  0.00000000000E+00 0. -1.
         25    2    1    2    0    0 -0.54659596881E+02  0.72750063682E+02 -0.52289773599E+03  0.54529834541E+03  0.12509196576E+03 0.  0.
          5    1    3    3  502    0 -0.87624055034E+02  0.29203130249E+02 -0.40316495798E+03  0.41363057622E+03  0.41800000000E+01 0. -1.
         -5    1    3    3    0  502  0.32964458153E+02  0.43546933434E+02 -0.11973277801E+03  0.13166776919E+03  0.41800000000E+01 0. -1.
        -11    1    1    2    0    0  0.14251347903E+02 -0.68225148817E+02 -0.25743426415E+02  0.74300039379E+02  0.00000000000E+00 0.  1.
         11    1    1    2    0    0  0.40408248978E+02 -0.45249148654E+01 -0.89002083989E+02  0.97850254953E+02  0.00000000000E+00 0. -1.
</event>
<event>
 7    1  0.2943257E-009  0.1165160E+03  0.7561462E-02  0.1248958E+00
         -1   -1    0    0    0  501 -0.00000000000E+00  0.00000000000E+00  0.18432708324E+03  0.18432708324E+03  0.00000000000E+00 0.  1.
          1   -1    0    0  501    0  0.00000000000E+00 -0.00000000000E+00 -0.96583661535E+02  0.96583661535E+02  0.00000000000E+00 0. -1.
         25    2    1    2    0    0  0.61676945498E+02 -0.22972511147E+02  0.90885061203E+02  0.16804790318E+03  0.12509285167E+03 0.  0.
          5    1    3    3  502    0 -0.32371616095E+02  0.17769410674E+02  0.35853054728E+02  0.51639010618E+02  0.41800000000E+01 0. -1.
         -5    1    3    3    0  502  0.94048561594E+02 -0.40741921821E+02  0.55032006475E+02  0.11640889256E+03  0.41800000000E+01 0. -1.
        -11    1    1    2    0    0 -0.23518399231E+02  0.43874709624E+02  0.30042920236E+02  0.58143635105E+02  0.00000000000E+00 0.  1.
         11    1    1    2    0    0 -0.38158546268E+02 -0.20902198477E+02 -0.33184559729E+02  0.54719206490E+02  0.00000000000E+00 0. -1.
</event>
<event>
 7    1  0.2943257E-009  0.1174295E+03  0.7561462E-02  0.1247399E+00
         -2   -1    0    0    0  501 -0.00000000000E+00  0.00000000000E+00  0.96658175973E+03  0.96658175973E+03  0.00000000000E+00 0. -1.
          2   -1    0    0  501    0  0.00000000000E+00 -0.00000000000E+00 -0.23866626311E+02  0.23866626311E+02  0.00000000000E+00 0.  1.
         25    2    1    2    0    0  0.82523074110E+02 -0.16060810920E+02  0.71470129380E+03  0.73042027506E+03  0.12509129250E+03 0.  0.
          5    1    3    3  502    0 -0.26047740575E+02 -0.11329283334E+02  0.31114171598E+03  0.31246356151E+03  0.41800000000E+01 0. -1.
         -5    1    3    3    0  502  0.10857081468E+03 -0.47315275864E+01  0.40355957782E+03  0.41795671355E+03  0.41800000000E+01 0. -1.
        -11    1    1    2    0    0 -0.79441652098E+02  0.28637163451E+02  0.23166401400E+03  0.24657509728E+03  0.00000000000E+00 0. -1.
         11    1    1    2    0    0 -0.30814220119E+01 -0.12576352531E+02 -0.36501743725E+01  0.13453013698E+02  0.00000000000E+00 0.  1.
</event>
<event>
 7    1  0.2943257E-009  0.1156297E+03  0.7561462E-02  0.1250486E+00
          1   -1    0    0  501    0  0.00000000000E+00  0.00000000000E+00  0.10140492430E+04  0.10140492430E+04  0.00000000000E+00 0. -1.
         -1   -1    0    0    0  501 -0.00000000000E+00 -0.00000000000E+00 -0.17745515911E+02  0.17745515911E+02  0.00000000000E+00 0.  1.
         25    2    1    2    0    0  0.53643616094E+02 -0.10762926685E+02  0.76633834647E+03  0.77840542654E+03  0.12508824347E+03 0.  0.
          5    1    3    3  502    0 -0.29942163945E+02 -0.37277340509E+02  0.23326787641E+03  0.23815437821E+03  0.41800000000E+01 0.  1.
         -5    1    3    3    0  502  0.83585780039E+02  0.26514413824E+02  0.53307047006E+03  0.54025104833E+03  0.41800000000E+01 0.  1.
        -11    1    1    2    0    0 -0.27619409252E+02 -0.33933468950E+02  0.16303530832E+03  0.16880409901E+03  0.00000000000E+00 0. -1.
         11    1    1    2    0    0 -0.26024206842E+02  0.44696395634E+02  0.66930072260E+02  0.84585233328E+02  0.00000000000E+00 0.  1.
</event>
<event>
 7    1  0.2943257E-009  0.1011686E+03  0.7561462E-02  0.1277858E+00
          1   -1    0    0  501    0  0.00000000000E+00  0.00000000000E+00  0.49384577479E+03  0.49384577479E+03  0.00000000000E+00 0. -1.
         -1   -1    0    0    0  501 -0.00000000000E+00 -0.00000000000E+00 -0.25801518225E+02  0.25801518225E+02  0.00000000000E+00 0.  1.
         25    2    1    2    0    0 -0.14033938038E+02  0.49414599695E+01  0.20378613742E+03  0.23957870292E+03  0.12509114935E+03 0.  0.
          5    1    3    3  502    0  0.20384897003E+02 -0.45038741198E+02  0.36549028408E+02  0.61622529257E+02  0.41800000000E+01 0. -1.
         -5    1    3    3    0  502 -0.34418835041E+02  0.49980201167E+02  0.16723710901E+03  0.17795617366E+03  0.41800000000E+01 0. -1.
        -11    1    1    2    0    0 -0.28707439151E+02 -0.30668343198E+02  0.14012169902E+03  0.14628313257E+03  0.00000000000E+00 0.  1.
         11    1    1    2    0    0  0.42741377189E+02  0.25726883228E+02  0.12413642013E+03  0.13378545753E+03  0.00000000000E+00 0. -1.
</event>
<event>
 7    1  0.2943257E-009  0.7098558E+02  0.7561462E-02  0.1356773E+00
         -2   -1    0    0    0  501 -0.00000000000E+00  0.00000000000E+00  0.58606642592E+02  0.58606642592E+02  0.00000000000E+00 0.  1.
          2   -1    0    0  501    0  0.00000000000E+00 -0.00000000000E+00 -0.21329777181E+03  0.21329777181E+03  0.00000000000E+00 0. -1.
         25    2    1    2    0    0 -0.10659646120E+02  0.21012751085E+02 -0.79262003015E+02  0.14995633257E+03  0.12509705350E+03 0.  0.
          5    1    3    3  502    0  0.26626256762E+02  0.48100107168E+01 -0.10031492334E+03  0.10398389297E+03  0.41800000000E+01 0.  1.
         -5    1    3    3    0  502 -0.37285902882E+02  0.16202740368E+02  0.21052920324E+02  0.45972439606E+02  0.41800000000E+01 0.  1.
        -11    1    1    2    0    0  0.26914684583E+02  0.17375778387E+02  0.39590206386E+01  0.32279897230E+02  0.00000000000E+00 0.  1.
         11    1    1    2    0    0 -0.16255038463E+02 -0.38388529472E+02 -0.79388146842E+02  0.89668184600E+02  0.00000000000E+00 0. -1.
</event>
<event>
 7    1  0.2943257E-009  0.1102746E+03  0.7561462E-02  0.1260062E+00
         -1   -1    0    0    0  501 -0.00000000000E+00  0.00000000000E+00  0.18965598486E+02  0.18965598486E+02  0.00000000000E+00 0.  1.
          1   -1    0    0  501    0  0.00000000000E+00 -0.00000000000E+00 -0.70168523995E+03  0.70168523995E+03  0.00000000000E+00 0. -1.
         25    2    1    2    0    0 -0.18155691215E+02  0.14169364736E+02 -0.30212562843E+03  0.32780749746E+03  0.12508980780E+03 0.  0.
          5    1    3    3  502    0  0.11569515538E+02  0.64738946927E+02 -0.19152317244E+03  0.20254279281E+03  0.41800000000E+01 0.  1.
         -5    1    3    3    0  502 -0.29725206753E+02 -0.50569582191E+02 -0.11060245600E+03  0.12526470465E+03  0.41800000000E+01 0.  1.
        -11    1    1    2    0    0  0.43200153962E+02  0.24581822619E+02 -0.23138253676E+03  0.23666093387E+03  0.00000000000E+00 0.  1.
         11    1    1    2    0    0 -0.25044462746E+02 -0.38751187355E+02 -0.14921147628E+03  0.15618240711E+03  0.00000000000E+00 0. -1.
</event>
<event>
 7    1  0.2943257E-009  0.1461979E+03  0.7561462E-02  0.1205224E+00
         -1   -1    0    0    0  501 -0.00000000000E+00  0.00000000000E+00  0.29755062726E+03  0.29755062726E+03  0.00000000000E+00 0.  1.
          1   -1    0    0  501    0  0.00000000000E+00 -0.00000000000E+00 -0.10897406609E+03  0.10897406609E+03  0.00000000000E+00 0. -1.
         25    2    1    2    0    0 -0.12477220985E+03 -0.44466018150E+00  0.20916146107E+02  0.17791202942E+03  0.12508758120E+03 0.  0.
          5    1    3    3  502    0 -0.38169556369E+02  0.26067456668E+02  0.62759844709E+02  0.78055735461E+02  0.41800000000E+01 0. -1.
         -5    1    3    3    0  502 -0.86602653480E+02 -0.26512116850E+02 -0.41843698602E+02  0.99856293955E+02  0.41800000000E+01 0. -1.
        -11    1    1    2    0    0  0.10071884995E+03 -0.39911656850E+02  0.12058573627E+03  0.16210535735E+03  0.00000000000E+00 0. -1.
         11    1    1    2    0    0  0.24053359901E+02  0.40356317032E+02  0.47074678786E+02  0.66507306589E+02  0.00000000000E+00 0.  1.
</event>
<event>
 7    1  0.2943257E-009  0.1191207E+03  0.7561462E-02  0.1244555E+00
         -1   -1    0    0    0  501 -0.00000000000E+00  0.00000000000E+00  0.89173281138E+03  0.89173281138E+03  0.00000000000E+00 0.  1.
          1   -1    0    0  501    0  0.00000000000E+00 -0.00000000000E+00 -0.24546857451E+02  0.24546857451E+02  0.00000000000E+00 0. -1.
         25    2    1    2    0    0 -0.93183375238E+02  0.98156170841E+01  0.57687652476E+03  0.59767351375E+03  0.12509043315E+03 0.  0.
          5    1    3    3  502    0 -0.61787981190E+02  0.42251395135E+02  0.51784056411E+03  0.52323919697E+03  0.41800000000E+01 0.  1.
         -5    1    3    3    0  502 -0.31395394048E+02 -0.32435778051E+02  0.59035960652E+02  0.74434316786E+02  0.41800000000E+01 0.  1.
        -11    1    1    2    0    0  0.19476366185E+02 -0.34993856960E+02  0.40589274564E+02  0.57020944172E+02  0.00000000000E+00 0. -1.
         11    1    1    2    0    0  0.73707009053E+02  0.25178239876E+02  0.24972015461E+03  0.26158521091E+03  0.00000000000E+00 0.  1.
</event>
<event>
 7    1  0.2943257E-009  0.1100623E+03  0.7561462E-02  0.1260455E+00
          2   -1    0    0  501    0  0.00000000000E+00  0.00000000000E+00  0.13824643821E+03  0.13824643821E+03  0.00000000000E+00 0. -1.
         -2   -1    0    0    0  501 -0.00000000000E+00 -0.00000000000E+00 -0.16561769225E+03  0.16561769225E+03  0.00000000000E+00 0.  1.
         25    2    1    2    0    0  0.14745135880E+02  0.17460316783E+02  0.86234205398E+02  0.15364290648E+03  0.12509005890E+03 0.  0.
          5    1    3    3  502    0  0.24097798934E+02  0.68571017888E+02  0.35867700720E+02  0.81158195905E+02  0.41800000000E+01 0. -1.
         -5    1    3    3    0  502 -0.93526630537E+01 -0.51110701105E+02  0.50366504678E+02  0.72484710575E+02  0.41800000000E+01 0. -1.
        -11    1    1    2    0    0  0.37864576229E+02  0.46087953076E+01 -0.27879058681E+02  0.47246259536E+02  0.00000000000E+00 0. -1.
         11    1    1    2    0    0 -0.52609712109E+02 -0.22069112091E+02 -0.85726400753E+02  0.10297496445E+03  0.00000000000E+00 0.  1.
</event>
<event>
 7    1  0.2943257E-009  0.1377176E+03  0.7561462E-02  0.1216433E+00
         -1   -1    0    0    0  501 -0.00000000000E+00  0.00000000000E+00  0.99098752802E+02  0.99098752802E+02  0.00000000000E+00 0.  1.
          1   -1    0    0  501    0  0.00000000000E+00 -0.00000000000E+00 -0.26530234524E+03  0.26530234524E+03  0.00000000000E+00 0. -1.
         25    2    1    2    0    0  0.10607349195E+03 -0.40320446129E+02 -0.13311969266E+03  0.21504040320E+03  0.12507676988E+03 0.  0.
          5    1    3    3  502    0 -0.19918277258E+02 -0.22790194018E+02 -0.62300574092E+02  0.69389946278E+02  0.41800000000E+01 0.  1.
         -5    1    3    3    0  502  0.12599176921E+03 -0.17530252111E+02 -0.70819118567E+02  0.14565045692E+03  0.41800000000E+01 0.  1.
        -11    1    1    2    0    0 -0.18484288338E+02 -0.47733197948E+01 -0.46187606397E+02  0.49977479747E+02  0.00000000000E+00 0. -1.
         11    1    1    2    0    0 -0.87589203611E+02  0.45093765924E+02  0.13103706622E+02  0.99383215091E+02  0.00000000000E+00 0.  1.
</event>
<event>
 7    1  0.2943257E-009  0.1963568E+03  0.7561462E-02  0.1152850E+00
         -2   -1    0    0    0  501 -0.00000000000E+00  0.00000000000E+00  0.51883036462E+02  0.51883036462E+02  0.00000000000E+00 0.  1.
          2   -1    0    0  501    0  0.00000000000E+00 -0.00000000000E+00 -0.13501885809E+04  0.13501885809E+04  0.00000000000E+00 0. -1.
         25    2    1    2    0    0 -0.11017531285E+03  0.14194374591E+03 -0.10915277262E+04  0.11132690385E+04  0.12509415867E+03 0.  0.
          5    1    3    3  502    0 -0.75505289855E+02  0.31367566005E+02 -0.23339907720E+03  0.24734100879E+03  0.41800000000E+01 0. -1.
         -5    1    3    3    0  502 -0.34670022993E+02  0.11057617991E+03 -0.85812864898E+03  0.86592802973E+03  0.41800000000E+01 0. -1.
        -11    1    1    2    0    0  0.22465142374E+02 -0.90404664128E+02 -0.62166960928E+02  0.11199293259E+03  0.00000000000E+00 0.  1.
         11    1    1    2    0    0  0.87710170474E+02 -0.51539081783E+02 -0.14461085737E+03  0.17680964630E+03  0.00000000000E+00 0. -1.
</event>
<event>
 7    1  0.2943257E-009  0.1251652E+03  0.7561462E-02  0.1234811E+00
          2   -1    0    0  501    0  0.00000000000E+00  0.00000000000E+00  0.16995071041E+03  0.16995071041E+03  0.00000000000E+00 0.  1.
         -2   -1    0    0    0  501 -0.00000000000E+00 -0.00000000000E+00 -0.93198826699E+02  0.93198826699E+02  0.00000000000E+00 0. -1.
         25    2    1    2    0    0 -0.13605738968E+02 -0.59893358737E+02  0.53047093049E+02  0.14910962260E+03  0.12508938771E+03 0.  0.
          5    1    3    3  502    0  0.34953891563E+02  0.23427474734E+02  0.22276718872E+02  0.47794829339E+02  0.41800000000E+01 0.  1.
         -5    1    3    3    0  502 -0.48559630532E+02 -0.83320833470E+02  0.30770374176E+02  0.10131479327E+03  0.41800000000E+01 0.  1.
        -11    1    1    2    0    0 -0.37138806297E+02  0.45572293525E+02  0.11100250985E+02  0.59827589307E+02  0.00000000000E+00 0.  1.
         11    1    1    2    0    0  0.50744545265E+02  0.14321065212E+02  0.12604539679E+02  0.54212325199E+02  0.00000000000E+00 0. -1.
</event>
<event>
 7    1  0.2943257E-009  0.3682347E+03  0.7561462E-02  0.1055370E+00
         -1   -1    0    0    0  501 -0.00000000000E+00  0.00000000000E+00  0.32921049546E+03  0.32921049546E+03  0.00000000000E+00 0.  1.
          1   -1    0    0  501    0  0.00000000000E+00 -0.00000000000E+00 -0.45463054188E+03  0.45463054188E+03  0.00000000000E+00 0. -1.
         25    2    1    2    0    0  0.21280166726E+03  0.29062019901E+03 -0.15182256860E+03  0.41041629645E+03  0.12508714718E+03 0.  0.
          5    1    3    3  502    0  0.66788253938E+02  0.15877839293E+03 -0.19756798769E+02  0.17343313531E+03  0.41800000000E+01 0.  1.
         -5    1    3    3    0  502  0.14601341332E+03  0.13184180608E+03 -0.13206576983E+03  0.23698316114E+03  0.41800000000E+01 0.  1.
        -11    1    1    2    0    0 -0.13086226752E+03 -0.11755494016E+03 -0.18101479115E+02  0.17683823276E+03  0.00000000000E+00 0.  1.
         11    1    1    2    0    0 -0.81939399735E+02 -0.17306525885E+03  0.44504001306E+02  0.19658650814E+03  0.00000000000E+00 0. -1.
</event>
<event>
 7    1  0.2943257E-009  0.1209891E+03  0.7561462E-02  0.1241474E+00
         -1   -1    0    0    0  501 -0.00000000000E+00  0.00000000000E+00  0.23212405389E+02  0.23212405389E+02  0.00000000000E+00 0.  1.
          1   -1    0    0  501    0  0.00000000000E+00 -0.00000000000E+00 -0.77685689248E+03  0.77685689248E+03  0.00000000000E+00 0. -1.
         25    2    1    2    0    0 -0.58158327678E+02 -0.51812907397E+01 -0.25529789453E+03  0.29022881300E+03  0.12508601877E+03 0.  0.
          5    1    3    3  502    0 -0.53766496031E+02 -0.60157255170E+02 -0.12704096782E+03  0.15055434683E+03  0.41800000000E+01 0. -1.
         -5    1    3    3    0  502 -0.43918316474E+01  0.54975964431E+02 -0.12825692671E+03  0.13967446617E+03  0.41800000000E+01 0. -1.
        -11    1    1    2    0    0  0.14553495769E+02  0.44712389578E+02 -0.17647352769E+03  0.18263052318E+03  0.00000000000E+00 0.  1.
         11    1    1    2    0    0  0.43604831909E+02 -0.39531098839E+02 -0.32187306487E+03  0.32720996169E+03  0.00000000000E+00 0. -1.
</event>
<event>
 7    1  0.2943257E-009  0.6083737E+02  0.7561462E-02  0.1394351E+00
          2   -1    0    0  501    0  0.00000000000E+00  0.00000000000E+00  0.68646291180E+02  0.68646291180E+02  0.00000000000E+00 0. -1.
         -2   -1    0    0    0  501 -0.00000000000E+00 -0.00000000000E+00 -0.19487417174E+03  0.19487417174E+03  0.00000000000E+00 0.  1.
         25    2    1    2    0    0 -0.14361010482E+02  0.36355535342E+02 -0.56050051124E+02  0.14253914732E+03  0.12509131351E+03 0.  0.
          5    1    3    3  502    0 -0.11529278772E+02  0.27280502556E+02  0.37751608877E+02  0.48164369211E+02  0.41800000000E+01 0.  1.
         -5    1    3    3    0  502 -0.28317317102E+01  0.90750327869E+01 -0.93801660001E+02  0.94374778111E+02  0.41800000000E+01 0.  1.
        -11    1    1    2    0    0 -0.25626927248E+02 -0.32234041653E+02 -0.12635857396E+01  0.41199144292E+02  0.00000000000E+00 0. -1.
         11    1    1    2    0    0  0.39987937730E+02 -0.41214936897E+01 -0.68914243696E+02  0.79782171307E+02  0.00000000000E+00 0.  1.
</event>
<event>
 7    1  0.2943257E-009  0.7412829E+02  0.7561462E-02  0.1346592E+00
          1   -1    0    0  501    0  0.00000000000E+00  0.00000000000E+00  0.29845558726E+03  0.29845558726E+03  0.00000000000E+00 0. -1.
         -1   -1    0    0    0  501 -0.00000000000E+00 -0.00000000000E+00 -0.59768688411E+02  0.59768688411E+02  0.00000000000E+00 0.  1.
         25    2    1    2    0    0 -0.14646217712E+02 -0.47339211215E+02  0.49985732841E+02  0.14353575499E+03  0.12509367234E+03 0.  0.
          5    1    3    3  502    0 -0.14742439092E+01 -0.29716832154E+02 -0.40439054263E+02  0.50379093065E+02  0.41800000000E+01 0.  1.
         -5    1    3    3    0  502 -0.13171973803E+02 -0.17622379062E+02  0.90424787105E+02  0.93156661923E+02  0.41800000000E+01 0.  1.
        -11    1    1    2    0    0 -0.18117545844E+02 -0.16214901501E+02  0.20080024806E+02  0.31533726299E+02  0.00000000000E+00 0. -1.
         11    1    1    2    0    0  0.32763763557E+02  0.63554112716E+02  0.16862114120E+03  0.18315479438E+03  0.00000000000E+00 0.  1.
</event>
<event>
 7    1  0.3126715E-009  0.8563901E+02  0.7561462E-02  0.1313770E+00
          2   -1    0    0  501    0  0.00000000000E+00  0.00000000000E+00  0.60944765288E+02  0.60944765288E+02  0.00000000000E+00 0. -1.
         -2   -1    0    0    0  501 -0.00000000000E+00 -0.00000000000E+00 -0.24080060041E+03  0.24080060041E+03  0.00000000000E+00 0.  1.
         25    2    1    2    0    0 -0.14082550211E+02 -0.48174238047E+02 -0.77403229921E+02  0.15542693559E+03  0.12508875598E+03 0.  0.
          5    1    3    3  502    0 -0.48589404671E+02 -0.49942543752E+02  0.82120179626E+00  0.69809273704E+02  0.41800000000E+01 0.  1.
         -5    1    3    3    0  502  0.34506854460E+02  0.17683057046E+01 -0.78224431717E+02  0.85617661889E+02  0.41800000000E+01 0.  1.
        -11    1    1    2    0    0 -0.15784702825E+02  0.21150552061E+02 -0.10270280183E+03  0.10603946529E+03  0.00000000000E+00 0.  1.
         11    1    1    2    0    0  0.29867253036E+02  0.27023685986E+02  0.25019662796E+00  0.40278964814E+02  0.00000000000E+00 0. -1.
</event>
<event>
 7    1  0.2943257E-009  0.1926600E+03  0.7561462E-02  0.1156084E+00
          1   -1    0    0  501    0  0.00000000000E+00  0.00000000000E+00  0.71384794726E+03  0.71384794726E+03  0.00000000000E+00 0. -1.
         -1   -1    0    0    0  501 -0.00000000000E+00 -0.00000000000E+00 -0.64559784608E+02  0.64559784608E+02  0.00000000000E+00 0.  1.
         25    2    1    2    0    0  0.15183425022E+03  0.77708826155E+02  0.20738601688E+03  0.29622426794E+03  0.12509019034E+03 0.  0.
          5    1    3    3  502    0 -0.67439500031E+01  0.27807025425E+02  0.84893885730E+02  0.89683642650E+02  0.41800000000E+01 0.  1.
         -5    1    3    3    0  502  0.15857820023E+03  0.49901800730E+02  0.12249213115E+03  0.20654062529E+03  0.41800000000E+01 0.  1.
        -11    1    1    2    0    0 -0.13373330644E+03 -0.27226360221E+02  0.35157832977E+03  0.37713816289E+03  0.00000000000E+00 0. -1.
         11    1    1    2    0    0 -0.18100943785E+02 -0.50482465934E+02  0.90323816004E+02  0.10504530104E+03  0.00000000000E+00 0.  1.
</event>
<event>
 7    1  0.2943257E-009  0.3385857E+03  0.7561462E-02  0.1067400E+00
          1   -1    0    0  501    0  0.00000000000E+00  0.00000000000E+00  0.19616746647E+03  0.19616746647E+03  0.00000000000E+00 0. -1.
         -1   -1    0    0    0  501 -0.00000000000E+00 -0.00000000000E+00 -0.60562619612E+03  0.60562619612E+03  0.00000000000E+00 0.  1.
         25    2    1    2    0    0 -0.22240756870E+03  0.23948979307E+03 -0.19869275954E+03  0.40242549229E+03  0.12508787531E+03 0.  0.
          5    1    3    3  502    0 -0.20193052528E+03  0.25399575871E+03 -0.18385193749E+03  0.37297290759E+03  0.41800000000E+01 0. -1.
         -5    1    3    3    0  502 -0.20477043420E+02 -0.14505965633E+02 -0.14840822053E+02  0.29452584697E+02  0.41800000000E+01 0. -1.
        -11    1    1    2    0    0  0.13674702739E+03 -0.15846375396E+03 -0.18347391653E+03  0.27834005976E+03  0.00000000000E+00 0.  1.
         11    1    1    2    0    0  0.85660541310E+02 -0.81026039113E+02 -0.27292053573E+02  0.12102811054E+03  0.00000000000E+00 0. -1.
</event>
<event>
 7    1  0.2943257E-009  0.1200440E+03  0.7561462E-02  0.1243024E+00
          1   -1    0    0  501    0  0.00000000000E+00  0.00000000000E+00  0.51940553910E+03  0.51940553910E+03  0.00000000000E+00 0. -1.
         -1   -1    0    0    0  501 -0.00000000000E+00 -0.00000000000E+00 -0.42502241409E+02  0.42502241409E+02  0.00000000000E+00 0.  1.
         25    2    1    2    0    0 -0.74514342619E+02 -0.32253622232E+01  0.12801684944E+03  0.19390540982E+03  0.12509278156E+03 0.  0.
          5    1    3    3  502    0  0.26329689572E+02  0.18519530078E+02  0.42648387159E+01  0.32739682291E+02  0.41800000000E+01 0. -1.
         -5    1    3    3    0  502 -0.10084403219E+03 -0.21744892301E+02  0.12375201073E+03  0.16116572752E+03  0.41800000000E+01 0. -1.
        -11    1    1    2    0    0  0.88834250094E+02  0.82228977720E+01  0.33734811249E+03  0.34894539549E+03  0.00000000000E+00 0.  1.
         11    1    1    2    0    0 -0.14319907475E+02 -0.49975355489E+01  0.11538335762E+02  0.19056975201E+02  0.00000000000E+00 0. -1.
</event>
<event>
 7    1  0.2943257E-009  0.1094924E+03  0.7561462E-02  0.1261513E+00
          4   -1    0    0  501    0  0.00000000000E+00  0.00000000000E+00  0.59478860278E+03  0.59478860278E+03  0.00000000000E+00 0. -1.
         -4   -1    0    0    0  501 -0.00000000000E+00 -0.00000000000E+00 -0.28468506412E+02  0.28468506412E+02  0.00000000000E+00 0.  1.
         25    2    1    2    0    0 -0.57708465941E+02 -0.24372825723E+02  0.38494059826E+03  0.40957525591E+03  0.12509326277E+03 0.  0.
          5    1    3    3  502    0 -0.75948237896E+02 -0.37166149402E+02  0.14012874990E+03  0.16371620705E+03  0.41800000000E+01 0. -1.
         -5    1    3    3    0  502  0.18239771956E+02  0.12793323680E+02  0.24481184836E+03  0.24585904886E+03  0.41800000000E+01 0. -1.
        -11    1    1    2    0    0  0.82814351044E+02  0.12030817960E+02  0.12079597977E+03  0.14695110088E+03  0.00000000000E+00 0.  1.
         11    1    1    2    0    0 -0.25105885104E+02  0.12342007763E+02  0.60583518340E+02  0.66730752408E+02  0.00000000000E+00 0. -1.
</event>
<event>
 7    1  0.2943257E-009  0.1273838E+03  0.7561462E-02  0.1231390E+00
         -1   -1    0    0    0  501 -0.00000000000E+00  0.00000000000E+00  0.63419995463E+02  0.63419995463E+02  0.00000000000E+00 0.  1.
          1   -1    0    0  501    0  0.00000000000E+00 -0.00000000000E+00 -0.37398462943E+03  0.37398462943E+03  0.00000000000E+00 0. -1.
         25    2    1    2    0    0 -0.79132125821E+02  0.72093002978E+02 -0.18897746929E+03  0.25063688019E+03  0.12508823845E+03 0.  0.
          5    1    3    3  502    0 -0.45580300706E+02  0.17898913922E+02 -0.17944447614E+03  0.18605302295E+03  0.41800000000E+01 0.  1.
         -5    1    3    3    0  502 -0.33551825115E+02  0.54194089056E+02 -0.95329931447E+01  0.64583857236E+02  0.41800000000E+01 0.  1.
        -11    1    1    2    0    0  0.97346638898E+02 -0.40830563118E+02 -0.92089733613E+02  0.14008576668E+03  0.00000000000E+00 0. -1.
         11    1    1    2    0    0 -0.18214513077E+02 -0.31262439860E+02 -0.29497431065E+02  0.46681978022E+02  0.00000000000E+00 0.  1.
</event>
<event>
 7    1  0.2943257E-009  0.1465853E+03  0.7561462E-02  0.1204733E+00
          1   -1    0    0  501    0  0.00000000000E+00  0.00000000000E+00  0.12652104390E+03  0.12652104390E+03  0.00000000000E+00 0. -1.
         -1   -1    0    0    0  501 -0.00000000000E+00 -0.00000000000E+00 -0.26856057577E+03  0.26856057577E+03  0.00000000000E+00 0.  1.
         25    2    1    2    0    0  0.11880837032E+03 -0.42257237785E+02 -0.16001445677E+03  0.23906858509E+03  0.12509220199E+03 0.  0.
          5    1    3    3  502    0  0.84168433297E+02  0.52578508066E+01 -0.19455561545E+02  0.86648493546E+02  0.41800000000E+01 0. -1.
         -5    1    3    3    0  502  0.34639937025E+02 -0.47515088591E+02 -0.14055889522E+03  0.15242009155E+03  0.41800000000E+01 0. -1.
        -11    1    1    2    0    0 -0.48925178556E+02 -0.23097759375E+02  0.25940233801E+02  0.60000627618E+02  0.00000000000E+00 0. -1.
         11    1    1    2    0    0 -0.69883191765E+02  0.65354997160E+02 -0.79653089017E+01  0.96012406964E+02  0.00000000000E+00 0.  1.
</event>
<event>
 7    1  0.2943257E-009  0.2498545E+03  0.7561462E-02  0.1113397E+00
          1   -1    0    0  501    0  0.00000000000E+00  0.00000000000E+00  0.44826267074E+03  0.44826267074E+03  0.00000000000E+00 0. -1.
         -1   -1    0    0    0  501 -0.00000000000E+00 -0.00000000000E+00 -0.16955366479E+03  0.16955366479E+03  0.00000000000E+00 0.  1.
         25    2    1    2    0    0 -0.16626588330E+03  0.18346775013E+03  0.19309578247E+03  0.33799118391E+03  0.12508916783E+03 0.  0.
          5    1    3    3  502    0 -0.10493740090E+03  0.11949735764E+03  0.19189626681E+03  0.24926517247E+03  0.41800000000E+01 0.  1.
         -5    1    3    3    0  502 -0.61328482402E+02  0.63970392487E+02  0.11995156591E+01  0.88726011443E+02  0.41800000000E+01 0.  1.
        -11    1    1    2    0    0  0.47923892741E+02 -0.86580316474E+02 -0.99854212330E+01  0.99461345926E+02  0.00000000000E+00 0.  1.
         11    1    1    2    0    0  0.11834199056E+03 -0.96887433657E+02  0.95598644723E+02  0.18036380569E+03  0.00000000000E+00 0. -1.
</event>
<event>
 7    1  0.2943257E-009  0.1044296E+03  0.7561462E-02  0.1271248E+00
          2   -1    0    0  501    0  0.00000000000E+00  0.00000000000E+00  0.48104147021E+03  0.48104147021E+03  0.00000000000E+00 0. -1.
         -2   -1    0    0    0  501 -0.00000000000E+00 -0.00000000000E+00 -0.28017967688E+02  0.28017967688E+02  0.00000000000E+00 0.  1.
         25    2    1    2    0    0 -0.24928898619E+02 -0.13871486446E+00  0.18598049223E+03  0.22551584019E+03  0.12508869436E+03 0.  0.
          5    1    3    3  502    0 -0.68418297250E+02  0.99154763356E+01  0.59440951969E+02  0.91269267777E+02  0.41800000000E+01 0.  1.
         -5    1    3    3    0  502  0.43489398631E+02 -0.10054191200E+02  0.12653954026E+03  0.13424657241E+03  0.41800000000E+01 0.  1.
        -11    1    1    2    0    0  0.38426415636E+02 -0.38163301728E+02  0.13737426263E+03  0.14766419691E+03  0.00000000000E+00 0. -1.
         11    1    1    2    0    0 -0.13497517017E+02  0.38302016593E+02  0.12966874766E+03  0.13587940080E+03  0.00000000000E+00 0.  1.
</event>
<event>
 7    1  0.2943257E-009  0.1295488E+03  0.7561462E-02  0.1228127E+00
         -4   -1    0    0    0  501 -0.00000000000E+00  0.00000000000E+00  0.99121466140E+03  0.99121466140E+03  0.00000000000E+00 0.  1.
          4   -1    0    0  501    0  0.00000000000E+00 -0.00000000000E+00 -0.26643214809E+02  0.26643214809E+02  0.00000000000E+00 0. -1.
         25    2    1    2    0    0  0.99622910342E+02 -0.33491972543E+02  0.68728543841E+03  0.70643879073E+03  0.12509218486E+03 0.  0.
          5    1    3    3  502    0  0.12110719993E+03 -0.95643314743E+01  0.61928363420E+03  0.63110072279E+03  0.41800000000E+01 0. -1.
         -5    1    3    3    0  502 -0.21484289592E+02 -0.23927641069E+02  0.68001804205E+02  0.75338067943E+02  0.41800000000E+01 0. -1.
        -11    1    1    2    0    0 -0.11184356519E+02  0.32478581741E+01 -0.60078372968E+01  0.13104675595E+02  0.00000000000E+00 0. -1.
         11    1    1    2    0    0 -0.88438553823E+02  0.30244114369E+02  0.28329384548E+03  0.29831440989E+03  0.00000000000E+00 0.  1.
</event>
<event>
 7    1  0.3391890E-009  0.2040341E+03  0.7561462E-02  0.1146379E+00
          2   -1    0    0  501    0  0.00000000000E+00  0.00000000000E+00  0.16031933613E+04  0.16031933613E+04  0.00000000000E+00 0. -1.
         -2   -1    0    0    0  501 -0.00000000000E+00 -0.00000000000E+00 -0.30326440268E+02  0.30326440268E+02  0.00000000000E+00 0.  1.
         25    2    1    2    0    0 -0.70509447013E+02  0.15925423426E+03  0.51997015067E+03  0.56244985028E+03  0.12508950093E+03 0.  0.
          5    1    3    3  502    0  0.19034541537E+02  0.10693505344E+03  0.30363573425E+03  0.32250511769E+03  0.41800000000E+01 0.  1.
         -5    1    3    3    0  502 -0.89543988550E+02  0.52319180819E+02  0.21633441642E+03  0.23994473258E+03  0.41800000000E+01 0.  1.
        -11    1    1    2    0    0  0.77174040462E+02 -0.64465547441E+02  0.49038395999E+03  0.50058772213E+03  0.00000000000E+00 0.  1.
         11    1    1    2    0    0 -0.66645934496E+01 -0.94788686823E+02  0.56251281037E+03  0.57048222916E+03  0.00000000000E+00 0. -1.
</event>
<event>
 7    1  0.2943257E-009  0.1321200E+03  0.7561462E-02  0.1224343E+00
          1   -1    0    0  501    0  0.00000000000E+00  0.00000000000E+00  0.11357306694E+04  0.11357306694E+04  0.00000000000E+00 0. -1.
         -1   -1    0    0    0  501 -0.00000000000E+00 -0.00000000000E+00 -0.23094798961E+02  0.23094798961E+02  0.00000000000E+00 0.  1.
         25    2    1    2    0    0  0.88235076995E+02  0.67013458869E+02  0.42215152202E+03  0.45401947978E+03  0.12508216496E+03 0.  0.
          5    1    3    3  502    0  0.86458131382E+02  0.36043318589E+02  0.40976600888E+03  0.42035673390E+03  0.41800000000E+01 0.  1.
         -5    1    3    3    0  502  0.17769456130E+01  0.30970140280E+02  0.12385513142E+02  0.33662745884E+02  0.41800000000E+01 0.  1.
        -11    1    1    2    0    0 -0.72332561262E+02 -0.21221793058E+01  0.42027379275E+03  0.42645816200E+03  0.00000000000E+00 0.  1.
         11    1    1    2    0    0 -0.15902515734E+02 -0.64891279563E+02  0.27021055570E+03  0.27834782662E+03  0.00000000000E+00 0. -1.
</event>
<event>
 7    1  0.2943257E-009  0.9470360E+02  0.7561462E-02  0.1291845E+00
         -1   -1    0    0    0  501 -0.00000000000E+00  0.00000000000E+00  0.15431499374E+02  0.15431499374E+02  0.00000000000E+00 0.  1.
          1   -1    0    0  501    0  0.00000000000E+00 -0.00000000000E+00 -0.11517867984E+04  0.11517867984E+04  0.00000000000E+00 0. -1.
         25    2    1    2    0    0  0.39829678320E+02  0.65944000344E+02 -0.62263948518E+03  0.63973646131E+03  0.12509115460E+03 0.  0.
          5    1    3    3  502    0  0.32387040770E+02  0.59393041450E+02 -0.12678257233E+03  0.14376281449E+03  0.41800000000E+01 0. -1.
         -5    1    3    3    0  502  0.74426375497E+01  0.65509588943E+01 -0.49585691285E+03  0.49597364682E+03  0.41800000000E+01 0. -1.
        -11    1    1    2    0    0 -0.48633893879E+02 -0.80386886030E+02 -0.48610806777E+03  0.49510439367E+03  0.00000000000E+00 0. -1.
         11    1    1    2    0    0  0.88042155590E+01  0.14442885686E+02 -0.27607746032E+02  0.32377442757E+02  0.00000000000E+00 0.  1.
</event>
<event>
 7    1  0.2943257E-009  0.1460089E+03  0.7561462E-02  0.1205465E+00
          1   -1    0    0  501    0  0.00000000000E+00  0.00000000000E+00  0.15907397119E+03  0.15907397119E+03  0.00000000000E+00 0. -1.
         -1   -1    0    0    0  501 -0.00000000000E+00 -0.00000000000E+00 -0.15563663050E+03  0.15563663050E+03  0.00000000000E+00 0.  1.
         25    2    1    2    0    0  0.38925651311E+02 -0.10712853891E+03  0.46889364835E+00  0.16923299175E+03  0.12509138842E+03 0.  0.
          5    1    3    3  502    0  0.75594565634E+02 -0.92247977897E+02  0.25753974752E+02  0.12208590170E+03  0.41800000000E+01 0. -1.
         -5    1    3    3    0  502 -0.36668914323E+02 -0.14880561014E+02 -0.25285081104E+02  0.47147090050E+02  0.41800000000E+01 0. -1.
        -11    1    1    2    0    0 -0.53259136000E+02  0.46869680634E+02 -0.27945834583E+02  0.76251375075E+02  0.00000000000E+00 0.  1.
         11    1    1    2    0    0  0.14333484689E+02  0.60258858276E+02  0.30914281632E+02  0.69226234860E+02  0.00000000000E+00 0. -1.
</event>
<event>
 7    1  0.2943257E-009  0.1328365E+03  0.7561462E-02  0.1223307E+00
          2   -1    0    0  501    0  0.00000000000E+00  0.00000000000E+00  0.45745373498E+03  0.45745373498E+03  0.00000000000E+00 0. -1.
         -2   -1    0    0    0  501 -0.00000000000E+00 -0.00000000000E+00 -0.46397048461E+02  0.46397048461E+02  0.00000000000E+00 0.  1.
         25    2    1    2    0    0 -0.84213259545E+02  0.14329265255E+02  0.14704111873E+03  0.21110439766E+03  0.12508707042E+03 0.  0.
          5    1    3    3  502    0 -0.42657039608E+02 -0.55226257185E+02  0.76047033257E+02  0.10329659325E+03  0.41800000000E+01 0. -1.
         -5    1    3    3    0  502 -0.41556219936E+02  0.69555522440E+02  0.70994085478E+02  0.10780780440E+03  0.41800000000E+01 0. -1.
        -11    1    1    2    0    0  0.71887683484E+00  0.23116036228E+02  0.15296387549E+02  0.27728097425E+02  0.00000000000E+00 0.  1.
         11    1    1    2    0    0  0.83494382710E+02 -0.37445301483E+02  0.24871918024E+03  0.26501828836E+03  0.00000000000E+00 0. -1.
</event>
<event>
 7    1  0.2943257E-009  0.1063402E+03  0.7561462E-02  0.1267501E+00
          1   -1    0    0  501    0  0.00000000000E+00  0.00000000000E+00  0.33958045282E+03  0.33958045282E+03  0.00000000000E+00 0. -1.
         -1   -1    0    0    0  501 -0.00000000000E+00 -0.00000000000E+00 -0.50401007455E+02  0.50401007455E+02  0.00000000000E+00 0.  1.
         25    2    1    2    0    0 -0.43353417336E+02  0.59021588619E+02  0.16610892126E+03  0.22046233095E+03  0.12509356070E+03 0.  0.
          5    1    3    3  502    0 -0.11530235859E+02  0.73526994469E+02  0.30818881644E+02  0.80662513725E+02  0.41800000000E+01 0. -1.
         -5    1    3    3    0  502 -0.31823181476E+02 -0.14505405850E+02  0.13529003961E+03  0.13979981723E+03  0.41800000000E+01 0. -1.
        -11    1    1    2    0    0  0.14793328052E+02  0.16507943892E+02  0.68659353951E+02  0.72148885309E+02  0.00000000000E+00 0. -1.
         11    1    1    2    0    0  0.28560089284E+02 -0.75529532511E+02  0.54411170154E+02  0.97370244011E+02  0.00000000000E+00 0.  1.
</event>
<event>
 7    1  0.2943257E-009  0.6658854E+02  0.7561462E-02  0.1372094E+00
          1   -1    0    0  501    0  0.00000000000E+00  0.00000000000E+00  0.15585559435E+03  0.15585559435E+03  0.00000000000E+00 0. -1.
         -1   -1    0    0    0  501 -0.00000000000E+00 -0.00000000000E+00 -0.84467172553E+02  0.84467172553E+02  0.00000000000E+00 0.  1.
         25    2    1    2    0    0  0.38130510231E+02 -0.38036259569E+01  0.43783875668E+02  0.13795728269E+03  0.12508709245E+03 0.  0.
          5    1    3    3  502    0  0.44381480343E+02 -0.28073644439E+00 -0.36272488619E+02  0.57471388020E+02  0.41800000000E+01 0.  1.
         -5    1    3    3    0  502 -0.62509701121E+01 -0.35228895125E+01  0.80056364287E+02  0.80485894669E+02  0.41800000000E+01 0.  1.
        -11    1    1    2    0    0 -0.56625327953E+02  0.15123548148E+02  0.45541772409E+02  0.74224002240E+02  0.00000000000E+00 0. -1.
         11    1    1    2    0    0  0.18494817722E+02 -0.11319922191E+02 -0.17937226280E+02  0.28141481973E+02  0.00000000000E+00 0.  1.
</event>
<event>
 7    1  0.2943257E-009  0.1107361E+03  0.7561462E-02  0.1259213E+00
         -2   -1    0    0    0  501 -0.00000000000E+00  0.00000000000E+00  0.17932667938E+02  0.17932667938E+02  0.00000000000E+00 0.  1.
          2   -1    0    0  501    0  0.00000000000E+00 -0.00000000000E+00 -0.75437368529E+03  0.75437368529E+03  0.00000000000E+00 0. -1.
         25    2    1    2    0    0 -0.30843771059E+02 -0.24385292875E+02 -0.37208352560E+03  0.39450602564E+03  0.12507147367E+03 0.  0.
          5    1    3    3  502    0  0.15265439519E+02 -0.61713421068E+02 -0.25919195443E+03  0.26690732779E+03  0.41800000000E+01 0. -1.
         -5    1    3    3    0  502 -0.46109210578E+02  0.37328128193E+02 -0.11289157116E+03  0.12759869785E+03  0.41800000000E+01 0. -1.
        -11    1    1    2    0    0  0.44034761361E+02  0.51727136069E+02 -0.28076098198E+03  0.28886239945E+03  0.00000000000E+00 0. -1.
         11    1    1    2    0    0 -0.13190990301E+02 -0.27341843195E+02 -0.83596509767E+02  0.88937928128E+02  0.00000000000E+00 0.  1.
</event>
<event>
 7    1  0.2943257E-009  0.1178234E+03  0.7561462E-02  0.1246731E+00
         -2   -1    0    0    0  501 -0.00000000000E+00  0.00000000000E+00  0.15347524648E+03  0.15347524648E+03  0.00000000000E+00 0.  1.
          2   -1    0    0  501    0  0.00000000000E+00 -0.00000000000E+00 -0.11772509079E+03  0.11772509079E+03  0.00000000000E+00 0. -1.
         25    2    1    2    0    0 -0.48056435504E+02 -0.16098625310E+02 -0.40730004130E+02  0.14097921917E+03  0.12509044836E+03 0.  0.
          5    1    3    3  502    0 -0.45568966573E+02  0.49518185683E+02 -0.93061923034E+01  0.68063639654E+02  0.41800000000E+01 0. -1.
         -5    1    3    3    0  502 -0.24874689311E+01 -0.65616810993E+02 -0.31423811826E+02  0.72915579517E+02  0.41800000000E+01 0. -1.
        -11    1    1    2    0    0  0.11028013120E+02  0.50616298791E+02  0.23308683588E+02  0.56805998867E+02  0.00000000000E+00 0.  1.
         11    1    1    2    0    0  0.37028422384E+02 -0.34517673480E+02  0.53171476238E+02  0.73415119233E+02  0.00000000000E+00 0. -1.
</event>
<event>
 7    1  0.2943257E-009  0.3412637E+03  0.7561462E-02  0.1066259E+00
          2   -1    0    0  501    0  0.00000000000E+00  0.00000000000E+00  0.66967719743E+03  0.66967719743E+03  0.00000000000E+00 0. -1.
         -2   -1    0    0    0  501 -0.00000000000E+00 -0.00000000000E+00 -0.19919115329E+03  0.19919115329E+03  0.00000000000E+00 0.  1.
         25    2    1    2    0    0 -0.27213279390E+03 -0.19514201910E+03  0.35311438993E+03  0.50246837144E+03  0.12509207321E+03 0.  0.
          5    1    3    3  502    0 -0.15386410267E+03 -0.88775275620E+02  0.10113121386E+03  0.20445098794E+03  0.41800000000E+01 0.  1.
         -5    1    3    3    0  502 -0.11826869124E+03 -0.10636674348E+03  0.25198317607E+03  0.29801738350E+03  0.41800000000E+01 0.  1.
        -11    1    1    2    0    0  0.16116491242E+03  0.16518321730E+03  0.62862108628E+02  0.23918877267E+03  0.00000000000E+00 0.  1.
         11    1    1    2    0    0  0.11096788149E+03  0.29958801799E+02  0.54509545587E+02  0.12721120661E+03  0.00000000000E+00 0. -1.
</event>
<event>
 7    1  0.2943257E-009  0.1200828E+03  0.7561462E-02  0.1242960E+00
         -2   -1    0    0    0  501 -0.00000000000E+00  0.00000000000E+00  0.29632965549E+02  0.29632965549E+02  0.00000000000E+00 0.  1.
          2   -1    0    0  501    0  0.00000000000E+00 -0.00000000000E+00 -0.60937633837E+03  0.60937633837E+03  0.00000000000E+00 0. -1.
         25    2    1    2    0    0  0.73247795940E+02  0.21244796934E+02 -0.26586737060E+03  0.30356164845E+03  0.12509050584E+03 0.  0.
          5    1    3    3  502    0  0.23562810993E+02  0.62452777128E+02 -0.20149209003E+03  0.21230188453E+03  0.41800000000E+01 0.  1.
         -5    1    3    3    0  502  0.49684984947E+02 -0.41207980195E+02 -0.64375280572E+02  0.91259763914E+02  0.41800000000E+01 0.  1.
        -11    1    1    2    0    0 -0.14785240238E+02  0.28324586766E+02 -0.16428227062E+03  0.16736053891E+03  0.00000000000E+00 0. -1.
         11    1    1    2    0    0 -0.58462555701E+02 -0.49569383700E+02 -0.14959373161E+03  0.16808711657E+03  0.00000000000E+00 0.  1.
</event>
<event>
 7    1  0.2943257E-009  0.1034493E+03  0.7561462E-02  0.1273205E+00
         -4   -1    0    0    0  501 -0.00000000000E+00  0.00000000000E+00  0.30707856616E+03  0.30707856616E+03  0.00000000000E+00 0.  1.
          4   -1    0    0  501    0  0.00000000000E+00 -0.00000000000E+00 -0.47498780258E+02  0.47498780258E+02  0.00000000000E+00 0. -1.
         25    2    1    2    0    0  0.33904222199E+01 -0.32351469180E+02  0.20578251863E+03  0.24300610558E+03  0.12508960730E+03 0.  0.
          5    1    3    3  502    0 -0.47664011181E+02  0.91416988923E+01  0.14636552469E+03  0.15425876908E+03  0.41800000000E+01 0. -1.
         -5    1    3    3    0  502  0.51054433401E+02 -0.41493168072E+02  0.59416993940E+02  0.88747336498E+02  0.41800000000E+01 0. -1.
        -11    1    1    2    0    0 -0.17516062975E+02  0.59302768792E+02  0.52497398747E+02  0.81114781167E+02  0.00000000000E+00 0.  1.
         11    1    1    2    0    0  0.14125640755E+02 -0.26951299612E+02  0.12998685238E+01  0.30456459671E+02  0.00000000000E+00 0. -1.
</event>
<event>
 7    1  0.2943257E-009  0.2246969E+03  0.7561462E-02  0.1130429E+00
         -3   -1    0    0    0  501 -0.00000000000E+00  0.00000000000E+00  0.33370088614E+03  0.33370088614E+03  0.00000000000E+00 0.  1.
          3   -1    0    0  501    0  0.00000000000E+00 -0.00000000000E+00 -0.25778795042E+03  0.25778795042E+03  0.00000000000E+00 0. -1.
         25    2    1    2    0    0  0.20357150793E+03 -0.37710992694E+02 -0.13909388457E+03  0.27903022393E+03  0.12508908558E+03 0.  0.
          5    1    3    3  502    0 -0.13992562446E+02  0.11677944214E+02 -0.92240499004E+01  0.20849980370E+02  0.41800000000E+01 0.  1.
         -5    1    3    3    0  502  0.21756407038E+03 -0.49388936908E+02 -0.12986983467E+03  0.25818024356E+03  0.41800000000E+01 0.  1.
        -11    1    1    2    0    0 -0.18035179991E+03  0.28562206891E+02  0.13075275366E+03  0.22458596123E+03  0.00000000000E+00 0. -1.
         11    1    1    2    0    0 -0.23219708022E+02  0.91487858035E+01  0.84254066622E+02  0.87872651404E+02  0.00000000000E+00 0.  1.
</event>
<event>
 7    1  0.2943257E-009  0.5259580E+03  0.7561462E-02  0.1007217E+00
         -2   -1    0    0    0  501 -0.00000000000E+00  0.00000000000E+00  0.19107849153E+03  0.19107849153E+03  0.00000000000E+00 0.  1.
          2   -1    0    0  501    0  0.00000000000E+00 -0.00000000000E+00 -0.18470218231E+04  0.18470218231E+04  0.00000000000E+00 0. -1.
         25    2    1    2    0    0 -0.15899338901E+03  0.49186337793E+03 -0.12981519792E+04  0.14028736193E+04  0.12508936882E+03 0.  0.
          5    1    3    3  502    0  0.19829223815E+02  0.69330741161E+02 -0.15193135719E+03  0.16822770130E+03  0.41800000000E+01 0.  1.
         -5    1    3    3    0  502 -0.17882261282E+03  0.42253263677E+03 -0.11462206220E+04  0.12346459180E+04  0.41800000000E+01 0.  1.
        -11    1    1    2    0    0  0.11482278851E+03 -0.42845063686E+03 -0.33091405239E+03  0.55340611766E+03  0.00000000000E+00 0.  1.
         11    1    1    2    0    0  0.44170600498E+02 -0.63412741070E+02 -0.26877299908E+02  0.81820577660E+02  0.00000000000E+00 0. -1.
</event>
<event>
 7    1  0.2943257E-009  0.1076520E+03  0.7561462E-02  0.1264981E+00
          1   -1    0    0  501    0  0.00000000000E+00  0.00000000000E+00  0.88567305832E+02  0.88567305832E+02  0.00000000000E+00 0. -1.
         -1   -1    0    0    0  501 -0.00000000000E+00 -0.00000000000E+00 -0.18544499608E+03  0.18544499608E+03  0.00000000000E+00 0.  1.
         25    2    1    2    0    0 -0.67432188864E+02  0.70078262953E+01 -0.59676451887E+02  0.15428895023E+03  0.12509033348E+03 0.  0.
          5    1    3    3  502    0  0.82639315165E+01 -0.47785641116E+02 -0.22665476425E+02  0.53693167932E+02  0.41800000000E+01 0.  1.
         -5    1    3    3    0  502 -0.75696120381E+02  0.54793467412E+02 -0.37010975463E+02  0.10059578230E+03  0.41800000000E+01 0.  1.
        -11    1    1    2    0    0  0.17546482293E+02  0.10228140350E+02 -0.59166817952E+02  0.62555625186E+02  0.00000000000E+00 0.  1.
         11    1    1    2    0    0  0.49885706571E+02 -0.17235966645E+02  0.21965579588E+02  0.57167726498E+02  0.00000000000E+00 0. -1.
</event>
<event>
 7    1  0.2943257E-009  0.1318331E+03  0.7561462E-02  0.1224761E+00
         -1   -1    0    0    0  501 -0.00000000000E+00  0.00000000000E+00  0.11564910158E+03  0.11564910158E+03  0.00000000000E+00 0.  1.
          1   -1    0    0  501    0  0.00000000000E+00 -0.00000000000E+00 -0.19682622424E+03  0.19682622424E+03  0.00000000000E+00 0. -1.
         25    2    1    2    0    0  0.32415270719E+02  0.91136706138E+02 -0.86866193455E+02  0.18041402970E+03  0.12508731976E+03 0.  0.
          5    1    3    3  502    0  0.26390148356E+01 -0.19533569933E+02 -0.59069014593E+02  0.62411101886E+02  0.41800000000E+01 0. -1.
         -5    1    3    3    0  502  0.29776255884E+02  0.11067027607E+03 -0.27797178862E+02  0.11800292781E+03  0.41800000000E+01 0. -1.
        -11    1    1    2    0    0 -0.57130862990E+02 -0.86536896322E+02  0.15938310485E+02  0.10491234280E+03  0.00000000000E+00 0.  1.
         11    1    1    2    0    0  0.24715592271E+02 -0.45998098161E+01 -0.10249239690E+02  0.27148953310E+02  0.00000000000E+00 0. -1.
</event>
<event>
 7    1  0.2943257E-009  0.1240142E+03  0.7561462E-02  0.1236618E+00
         -1   -1    0    0    0  501 -0.00000000000E+00  0.00000000000E+00  0.14162709457E+03  0.14162709457E+03  0.00000000000E+00 0.  1.
          1   -1    0    0  501    0  0.00000000000E+00 -0.00000000000E+00 -0.12632485532E+03  0.12632485532E+03  0.00000000000E+00 0. -1.
         25    2    1    2    0    0 -0.29259160699E+02  0.54798005234E+02  0.56265910540E+02  0.15057502331E+03  0.12509222635E+03 0.  0.
          5    1    3    3  502    0 -0.58771692722E+02  0.80536234694E+02  0.34532281590E+02  0.10559426043E+03  0.41800000000E+01 0.  1.
         -5    1    3    3    0  502  0.29512532023E+02 -0.25738229460E+02  0.21733628950E+02  0.44980762882E+02  0.41800000000E+01 0.  1.
        -11    1    1    2    0    0  0.52158911642E+02 -0.30240943399E+01 -0.28091828499E+02  0.59319878950E+02  0.00000000000E+00 0.  1.
         11    1    1    2    0    0 -0.22899750943E+02 -0.51773910894E+02 -0.12871842792E+02  0.58057047629E+02  0.00000000000E+00 0. -1.
</event>
<event>
 7    1  0.2943257E-009  0.9314816E+02  0.7561462E-02  0.1295402E+00
          2   -1    0    0  501    0  0.00000000000E+00  0.00000000000E+00  0.48129885988E+03  0.48129885988E+03  0.00000000000E+00 0. -1.
         -2   -1    0    0    0  501 -0.00000000000E+00 -0.00000000000E+00 -0.29848429289E+02  0.29848429289E+02  0.00000000000E+00 0.  1.
         25    2    1    2    0    0 -0.45252423653E+02 -0.21373056585E+02  0.27911921661E+03  0.30993459882E+03  0.12508928441E+03 0.  0.
          5    1    3    3  502    0 -0.65451444082E+02 -0.13405062338E+02  0.60590314134E+02  0.90289787881E+02  0.41800000000E+01 0. -1.
         -5    1    3    3    0  502  0.20199020429E+02 -0.79679942472E+01  0.21852890247E+03  0.21964481094E+03  0.41800000000E+01 0. -1.
        -11    1    1    2    0    0  0.75607726559E+01 -0.31452987723E+02  0.94462939560E+02  0.99848398436E+02  0.00000000000E+00 0. -1.
         11    1    1    2    0    0  0.37691650997E+02  0.52826044308E+02  0.77868274423E+02  0.10136429191E+03  0.00000000000E+00 0.  1.
</event>
<event>
 7    1  0.2943257E-009  0.1768494E+03  0.7561462E-02  0.1170888E+00
         -1   -1    0    0    0  501 -0.00000000000E+00  0.00000000000E+00  0.15236731363E+03  0.15236731363E+03  0.00000000000E+00 0.  1.
          1   -1    0    0  501    0  0.00000000000E+00 -0.00000000000E+00 -0.22245912949E+03  0.22245912949E+03  0.00000000000E+00 0. -1.
         25    2    1    2    0    0  0.12938126667E+03  0.72003077002E+02 -0.36127161273E+02  0.19717343611E+03  0.12509291292E+03 0.  0.
          5    1    3    3  502    0 -0.16056592415E+02  0.38305088338E+02 -0.21921910076E+02  0.47150148397E+02  0.41800000000E+01 0.  1.
         -5    1    3    3    0  502  0.14543785909E+03  0.33697988665E+02 -0.14205251197E+02  0.15002328772E+03  0.41800000000E+01 0.  1.
        -11    1    1    2    0    0 -0.28254654493E+02 -0.52492834295E+02  0.18030290759E+02  0.62280932377E+02  0.00000000000E+00 0.  1.
         11    1    1    2    0    0 -0.10112661218E+03 -0.19510242707E+02 -0.51994945351E+02  0.11537207462E+03  0.00000000000E+00 0. -1.
</event>
<event>
 7    1  0.2943257E-009  0.1150572E+03  0.7561462E-02  0.1251481E+00
          1   -1    0    0  501    0  0.00000000000E+00  0.00000000000E+00  0.58860361829E+03  0.58860361829E+03  0.00000000000E+00 0. -1.
         -1   -1    0    0    0  501 -0.00000000000E+00 -0.00000000000E+00 -0.29149245304E+02  0.29149245304E+02  0.00000000000E+00 0.  1.
         25    2    1    2    0    0  0.51209470675E+02  0.71255881268E+01  0.18524067855E+03  0.22942303152E+03  0.12509050527E+03 0.  0.
          5    1    3    3  502    0  0.44431150178E+02  0.63080206674E+02  0.12384705033E+03  0.14597535359E+03  0.41800000000E+01 0.  1.
         -5    1    3    3    0  502  0.67783204967E+01 -0.55954618548E+02  0.61393628219E+02  0.83447677927E+02  0.41800000000E+01 0.  1.
        -11    1    1    2    0    0  0.14866258495E+02 -0.23906762558E+02  0.53547173909E+02  0.60496601320E+02  0.00000000000E+00 0.  1.
         11    1    1    2    0    0 -0.66075729170E+02  0.16781174431E+02  0.32066652053E+03  0.32783323075E+03  0.00000000000E+00 0. -1.
</event>
<event>
 7    1  0.2943257E-009  0.1156351E+03  0.7561462E-02  0.1250477E+00
         -1   -1    0    0    0  501 -0.00000000000E+00  0.00000000000E+00  0.11028901382E+03  0.11028901382E+03  0.00000000000E+00 0.  1.
          1   -1    0    0  501    0  0.00000000000E+00 -0.00000000000E+00 -0.15897805238E+03  0.15897805238E+03  0.00000000000E+00 0. -1.
         25    2    1    2    0    0  0.59611461522E+02  0.46633869539E+02 -0.46290212132E+02  0.15335860465E+03  0.12509130164E+03 0.  0.
          5    1    3    3  502    0  0.34085050776E+02 -0.41214758466E+02 -0.25748291499E+02  0.59505410821E+02  0.41800000000E+01 0.  1.
         -5    1    3    3    0  502  0.25526410745E+02  0.87848628005E+02 -0.20541920633E+02  0.93853193825E+02  0.41800000000E+01 0.  1.
        -11    1    1    2    0    0 -0.41023808329E+02 -0.61276939498E+01  0.37629446864E+02  0.56004256573E+02  0.00000000000E+00 0.  1.
         11    1    1    2    0    0 -0.18587653193E+02 -0.40506175589E+02 -0.40028273289E+02  0.59904204983E+02  0.00000000000E+00 0. -1.
</event>
<event>
 7    1  0.4265265E-009  0.8741961E+02  0.7561462E-02  0.1309224E+00
         -2   -1    0    0    0  501 -0.00000000000E+00  0.00000000000E+00  0.43238074869E+02  0.43238074869E+02  0.00000000000E+00 0.  1.
          2   -1    0    0  501    0  0.00000000000E+00 -0.00000000000E+00 -0.35781342551E+03  0.35781342551E+03  0.00000000000E+00 0. -1.
         25    2    1    2    0    0  0.18448567608E+01  0.49804134658E+02 -0.23077807322E+03  0.26718933781E+03  0.12509103819E+03 0.  0.
          5    1    3    3  502    0  0.44519754138E+02 -0.32156017159E+01 -0.17011151136E+03  0.17591971833E+03  0.41800000000E+01 0.  1.
         -5    1    3    3    0  502 -0.42674897378E+02  0.53019736374E+02 -0.60666561864E+02  0.91269619478E+02  0.41800000000E+01 0.  1.
        -11    1    1    2    0    0  0.13106534398E+02 -0.41015265952E+01  0.17195130349E+02  0.22006278015E+02  0.00000000000E+00 0.  1.
         11    1    1    2    0    0 -0.14951391159E+02 -0.45702608063E+02 -0.10099240777E+03  0.11185588455E+03  0.00000000000E+00 0. -1.
</event>
<event>
 7    1  0.2943257E-009  0.1675799E+03  0.7561462E-02  0.1180395E+00
          2   -1    0    0  501    0  0.00000000000E+00  0.00000000000E+00  0.99517439283E+03  0.99517439283E+03  0.00000000000E+00 0. -1.
         -2   -1    0    0    0  501 -0.00000000000E+00 -0.00000000000E+00 -0.32846390583E+02  0.32846390583E+02  0.00000000000E+00 0.  1.
         25    2    1    2    0    0 -0.14213897028E+03  0.40924409580E+01  0.60070371386E+03  0.62985057592E+03  0.12508621506E+03 0.  0.
          5    1    3    3  502    0 -0.13330144233E+03 -0.43655595285E+02  0.42943612627E+03  0.45178307236E+03  0.41800000000E+01 0. -1.
         -5    1    3    3    0  502 -0.88375279581E+01  0.47748036243E+02  0.17126758759E+03  0.17806750356E+03  0.41800000000E+01 0. -1.
        -11    1    1    2    0    0  0.37779299840E+02 -0.16052571650E+02  0.20835457895E+03  0.21235957977E+03  0.00000000000E+00 0. -1.
         11    1    1    2    0    0  0.10435967044E+03  0.11960130692E+02  0.15326970944E+03  0.18581062771E+03  0.00000000000E+00 0.  1.
</event>
<event>
 7    1  0.2943257E-009  0.1373659E+03  0.7561462E-02  0.1216918E+00
         -1   -1    0    0    0  501 -0.00000000000E+00  0.00000000000E+00  0.42431400327E+02  0.42431400327E+02  0.00000000000E+00 0.  1.
          1   -1    0    0  501    0  0.00000000000E+00 -0.00000000000E+00 -0.99758118341E+03  0.99758118341E+03  0.00000000000E+00 0. -1.
         25    2    1    2    0    0  0.11112123008E+03 -0.76065410001E+01 -0.83718717395E+03  0.85377701707E+03  0.12508814255E+03 0.  0.
          5    1    3    3  502    0  0.42440635868E+02 -0.39378624945E+02 -0.12793989777E+03  0.14049189840E+03  0.41800000000E+01 0.  1.
         -5    1    3    3    0  502  0.68680594211E+02  0.31772083945E+02 -0.70924727618E+03  0.71328511867E+03  0.41800000000E+01 0.  1.
        -11    1    1    2    0    0 -0.99274108739E+02 -0.28183173214E+02 -0.67763808462E+02  0.12345676837E+03  0.00000000000E+00 0. -1.
         11    1    1    2    0    0 -0.11847121340E+02  0.35789714214E+02 -0.50198800672E+02  0.62778798304E+02  0.00000000000E+00 0.  1.
</event>
<event>
 7    1  0.2943257E-009  0.1057922E+03  0.7561462E-02  0.1268567E+00
          2   -1    0    0  501    0  0.00000000000E+00  0.00000000000E+00  0.65431527460E+03  0.65431527460E+03  0.00000000000E+00 0. -1.
         -2   -1    0    0    0  501 -0.00000000000E+00 -0.00000000000E+00 -0.22926441986E+02  0.22926441986E+02  0.00000000000E+00 0.  1.
         25    2    1    2    0    0 -0.19235454752E+02  0.90849236394E+01  0.49667159239E+03  0.51262336862E+03  0.12509000283E+03 0.  0.
          5    1    3    3  502    0 -0.30718389272E+02  0.61850806512E+02  0.21723499916E+03  0.22798609380E+03  0.41800000000E+01 0.  1.
         -5    1    3    3    0  502  0.11482934520E+02 -0.52765882872E+02  0.27943659324E+03  0.28463727483E+03  0.41800000000E+01 0.  1.
        -11    1    1    2    0    0 -0.91286369058E+01  0.34803235395E+02  0.27301132449E+02  0.45165795008E+02  0.00000000000E+00 0.  1.
         11    1    1    2    0    0  0.28364091657E+02 -0.43888159034E+02  0.10741610777E+03  0.11945255295E+03  0.00000000000E+00 0. -1.
</event>
<event>
 7    1  0.2943257E-009  0.1309467E+03  0.7561462E-02  0.1226058E+00
          2   -1    0    0  501    0  0.00000000000E+00  0.00000000000E+00  0.53384793847E+03  0.53384793847E+03  0.00000000000E+00 0. -1.
         -2   -1    0    0    0  501 -0.00000000000E+00 -0.00000000000E+00 -0.38998732948E+02  0.38998732948E+02  0.00000000000E+00 0.  1.
         25    2    1    2    0    0 -0.44406593702E+02 -0.74676568939E+02  0.38367852827E+03  0.41280352149E+03  0.12509595830E+03 0.  0.
          5    1    3    3  502    0 -0.87413927940E+02 -0.38636275190E+02  0.25535698020E+03  0.27268776338E+03  0.41800000000E+01 0. -1.
         -5    1    3    3    0  502  0.43007334237E+02 -0.36040293748E+02  0.12832154807E+03  0.14011575811E+03  0.41800000000E+01 0. -1.
        -11    1    1    2    0    0  0.61655574804E+02  0.67094148552E+02  0.70465661647E+02  0.11518873272E+03  0.00000000000E+00 0.  1.
         11    1    1    2    0    0 -0.17248981101E+02  0.75824203868E+01  0.40705015597E+02  0.44854417204E+02  0.00000000000E+00 0. -1.
</event>
<event>
 7    1  0.2943257E-009  0.1188981E+03  0.7561462E-02  0.1244926E+00
          1   -1    0    0  501    0  0.00000000000E+00  0.00000000000E+00  0.61110330333E+03  0.61110330333E+03  0.00000000000E+00 0. -1.
         -1   -1    0    0    0  501 -0.00000000000E+00 -0.00000000000E+00 -0.26526036368E+02  0.26526036368E+02  0.00000000000E+00 0.  1.
         25    2    1    2    0    0 -0.40004133545E+02  0.44811248888E+02  0.37505946005E+03  0.39990151503E+03  0.12507295641E+03 0.  0.
          5    1    3    3  502    0  0.25994327061E+02  0.54849789750E+02  0.25802688958E+03  0.26510290949E+03  0.41800000000E+01 0.  1.
         -5    1    3    3    0  502 -0.65998460606E+02 -0.10038540863E+02  0.11703257046E+03  0.13479860554E+03  0.41800000000E+01 0.  1.
        -11    1    1    2    0    0 -0.30247776629E+02 -0.14762819726E+02  0.43760400748E+02  0.55207259585E+02  0.00000000000E+00 0. -1.
         11    1    1    2    0    0  0.70251910174E+02 -0.30048429162E+02  0.16575740617E+03  0.18252056508E+03  0.00000000000E+00 0.  1.
</event>
<event>
 7    1  0.2943257E-009  0.4508537E+03  0.7561462E-02  0.1027468E+00
          1   -1    0    0  501    0  0.00000000000E+00  0.00000000000E+00  0.14933977131E+04  0.14933977131E+04  0.00000000000E+00 0. -1.
         -1   -1    0    0    0  501 -0.00000000000E+00 -0.00000000000E+00 -0.15683306090E+03  0.15683306090E+03  0.00000000000E+00 0.  1.
         25    2    1    2    0    0  0.16383226875E+03  0.40906586201E+03  0.39212907698E+03  0.60298283360E+03  0.12508873993E+03 0.  0.
          5    1    3    3  502    0  0.11737242467E+03  0.37421853751E+03  0.37412647304E+03  0.54203679775E+03  0.41800000000E+01 0. -1.
         -5    1    3    3    0  502  0.46459844079E+02  0.34847324497E+02  0.18002603940E+02  0.60946035843E+02  0.41800000000E+01 0. -1.
        -11    1    1    2    0    0 -0.13276983004E+03 -0.39582393521E+03  0.89216264730E+03  0.98501705807E+03  0.00000000000E+00 0.  1.
         11    1    1    2    0    0 -0.31062438710E+02 -0.13241926797E+02  0.52272927937E+02  0.62230882358E+02  0.00000000000E+00 0. -1.
</event>
<event>
 7    1  0.2943257E-009  0.8778044E+02  0.7561462E-02  0.1308317E+00
          2   -1    0    0  501    0  0.00000000000E+00  0.00000000000E+00  0.38110190728E+03  0.38110190728E+03  0.00000000000E+00 0. -1.
         -2   -1    0    0    0  501 -0.00000000000E+00 -0.00000000000E+00 -0.33392744705E+02  0.33392744705E+02  0.00000000000E+00 0.  1.
         25    2    1    2    0    0  0.85097254250E+01 -0.24072435738E+02  0.22017601126E+03  0.25451200756E+03  0.12508792295E+03 0.  0.
          5    1    3    3  502    0  0.20381453628E+02 -0.68123455934E+02  0.17998630428E+03  0.19356846600E+03  0.41800000000E+01 0. -1.
         -5    1    3    3    0  502 -0.11871728203E+02  0.44051020196E+02  0.40189706975E+02  0.60943541557E+02  0.41800000000E+01 0. -1.
        -11    1    1    2    0    0 -0.27310667187E+02 -0.81957993104E+00 -0.13713838217E+01  0.27357356361E+02  0.00000000000E+00 0.  1.
         11    1    1    2    0    0  0.18800941762E+02  0.24892015669E+02  0.12890453514E+03  0.13262528807E+03  0.00000000000E+00 0. -1.
</event>
<event>
 7    1  0.2943257E-009  0.5658878E+02  0.7561462E-02  0.1412731E+00
          2   -1    0    0  501    0  0.00000000000E+00  0.00000000000E+00  0.55219867863E+02  0.55219867863E+02  0.00000000000E+00 0. -1.
         -2   -1    0    0    0  501 -0.00000000000E+00 -0.00000000000E+00 -0.38330721727E+03  0.38330721727E+03  0.00000000000E+00 0.  1.
         25    2    1    2    0    0 -0.31574958610E+02 -0.27220467122E+02 -0.30272230787E+03  0.33019073064E+03  0.12508873281E+03 0.  0.
          5    1    3    3  502    0 -0.83568571235E+01 -0.27487587314E+02 -0.26066212906E+01  0.29149123347E+02  0.41800000000E+01 0.  1.
         -5    1    3    3    0  502 -0.23218101486E+02  0.26712019229E+00 -0.30011568658E+03  0.30104160729E+03  0.41800000000E+01 0.  1.
        -11    1    1    2    0    0 -0.10585091565E+02  0.11308302447E+02 -0.53173609361E+02  0.55383703381E+02  0.00000000000E+00 0.  1.
         11    1    1    2    0    0  0.42160050175E+02  0.15912164675E+02  0.27808567825E+02  0.52952651113E+02  0.00000000000E+00 0. -1.
</event>
<event>
 7    1  0.2943257E-009  0.1506620E+03  0.7561462E-02  0.1199662E+00
          2   -1    0    0  501    0  0.00000000000E+00  0.00000000000E+00  0.58112572621E+02  0.58112572621E+02  0.00000000000E+00 0. -1.
         -2   -1    0    0    0  501 -0.00000000000E+00 -0.00000000000E+00 -0.54623721377E+03  0.54623721377E+03  0.00000000000E+00 0.  1.
         25    2    1    2    0    0 -0.88716406424E+02  0.91195303768E+02 -0.15613577337E+03  0.23706326103E+03  0.12503369867E+03 0.  0.
          5    1    3    3  502    0 -0.10108147094E+03  0.74731368887E+02 -0.17030944445E+03  0.21171920208E+03  0.41800000000E+01 0. -1.
         -5    1    3    3    0  502  0.12365064512E+02  0.16463934882E+02  0.14173671073E+02  0.25344058946E+02  0.41800000000E+01 0. -1.
        -11    1    1    2    0    0  0.20738967424E+02 -0.83603378243E+02 -0.15155782460E+03  0.17432556847E+03  0.00000000000E+00 0.  1.
         11    1    1    2    0    0  0.67977439000E+02 -0.75919255252E+01 -0.18043104318E+03  0.19296095690E+03  0.00000000000E+00 0. -1.
</event>
<event>
 7    1  0.2943257E-009  0.1884900E+03  0.7561462E-02  0.1159830E+00
         -2   -1    0    0    0  501 -0.00000000000E+00  0.00000000000E+00  0.10339713282E+04  0.10339713282E+04  0.00000000000E+00 0.  1.
          2   -1    0    0  501    0  0.00000000000E+00 -0.00000000000E+00 -0.48384149779E+02  0.48384149779E+02  0.00000000000E+00 0. -1.
         25    2    1    2    0    0  0.76773906107E+02  0.15328304987E+03  0.72926790537E+03  0.75951910050E+03  0.12509060793E+03 0.  0.
          5    1    3    3  502    0  0.88519014327E+02  0.11683516830E+03  0.68638797264E+03  0.70187747779E+03  0.41800000000E+01 0. -1.
         -5    1    3    3    0  502 -0.11745108220E+02  0.36447881565E+02  0.42879932727E+02  0.57641622708E+02  0.41800000000E+01 0. -1.
        -11    1    1    2    0    0  0.17435359713E+02 -0.45164748750E+02  0.97472102664E+02  0.10883316175E+03  0.00000000000E+00 0.  1.
         11    1    1    2    0    0 -0.94209265820E+02 -0.10811830112E+03  0.15884717040E+03  0.21400321574E+03  0.00000000000E+00 0. -1.
</event>
<event>
 7    1  0.2943257E-009  0.1047582E+03  0.7561462E-02  0.1270597E+00
         -1   -1    0    0    0  501 -0.00000000000E+00  0.00000000000E+00  0.43968988472E+02  0.43968988472E+02  0.00000000000E+00 0.  1.
          1   -1    0    0  501    0  0.00000000000E+00 -0.00000000000E+00 -0.29996005963E+03  0.29996005963E+03  0.00000000000E+00 0. -1.
         25    2    1    2    0    0  0.16698747183E+02 -0.65677381045E+02 -0.11288134054E+03  0.18160957598E+03  0.12508986573E+03 0.  0.
          5    1    3    3  502    0 -0.30018445453E+02  0.21060127111E+02 -0.82155657015E+01  0.37810103691E+02  0.41800000000E+01 0. -1.
         -5    1    3    3    0  502  0.46717192635E+02 -0.86737508156E+02 -0.10466577484E+03  0.14379947229E+03  0.41800000000E+01 0. -1.
        -11    1    1    2    0    0 -0.23171911293E+02  0.30874613418E+02 -0.53516765964E+02  0.65986540036E+02  0.00000000000E+00 0.  1.
         11    1    1    2    0    0  0.64731641097E+01  0.34802767628E+02 -0.89592964662E+02  0.96332932090E+02  0.00000000000E+00 0. -1.
</event>
<event>
 7    1  0.2943257E-009  0.1096021E+03  0.7561462E-02  0.1261309E+00
         -2   -1    0    0    0  501 -0.00000000000E+00  0.00000000000E+00  0.66870877791E+02  0.66870877791E+02  0.00000000000E+00 0. -1.
          2   -1    0    0  501    0  0.00000000000E+00 -0.00000000000E+00 -0.22292296097E+03  0.22292296097E+03  0.00000000000E+00 0.  1.
         25    2    1    2    0    0  0.22944574549E+02 -0.47374114485E+02 -0.11209101214E+03  0.17601791613E+03  0.12508857491E+03 0.  0.
          5    1    3    3  502    0  0.68738745263E+02 -0.31552803232E+02 -0.31812916657E+02  0.82159166003E+02  0.41800000000E+01 0.  1.
         -5    1    3    3    0  502 -0.45794170715E+02 -0.15821311253E+02 -0.80278095481E+02  0.93858750126E+02  0.41800000000E+01 0.  1.
        -11    1    1    2    0    0 -0.36395633934E+02 -0.84820670881E+01 -0.42098553070E+02  0.56292768648E+02  0.00000000000E+00 0.  1.
         11    1    1    2    0    0  0.13451059385E+02  0.55856181573E+02 -0.18625179697E+01  0.57483153982E+02  0.00000000000E+00 0. -1.
</event>
<event>
 7    1  0.2943257E-009  0.1143608E+03  0.7561462E-02  0.1252701E+00
          4   -1    0    0  501    0  0.00000000000E+00  0.00000000000E+00  0.95410174161E+02  0.95410174161E+02  0.00000000000E+00 0. -1.
         -4   -1    0    0    0  501 -0.00000000000E+00 -0.00000000000E+00 -0.24011171143E+03  0.24011171143E+03  0.00000000000E+00 0.  1.
         25    2    1    2    0    0 -0.22352746697E+02  0.23742427762E+01 -0.18459639340E+03  0.22411092111E+03  0.12507835221E+03 0.  0.
          5    1    3    3  502    0  0.44220691769E+02  0.30384422104E+02 -0.65626095479E+02  0.84870133115E+02  0.41800000000E+01 0. -1.
         -5    1    3    3    0  502 -0.66573438466E+02 -0.28010179328E+02 -0.11897029792E+03  0.13924078800E+03  0.41800000000E+01 0. -1.
        -11    1    1    2    0    0  0.62406068535E+02  0.42927875423E+00  0.15057244474E+02  0.64198304350E+02  0.00000000000E+00 0.  1.
         11    1    1    2    0    0 -0.40053321838E+02 -0.28035215304E+01  0.24837611659E+02  0.47212660126E+02  0.00000000000E+00 0. -1.
</event>
<event>
 7    1  0.2943257E-009  0.1115344E+03  0.7561462E-02  0.1257754E+00
          2   -1    0    0  501    0  0.00000000000E+00  0.00000000000E+00  0.22100533894E+03  0.22100533894E+03  0.00000000000E+00 0. -1.
         -2   -1    0    0    0  501 -0.00000000000E+00 -0.00000000000E+00 -0.85994261551E+02  0.85994261551E+02  0.00000000000E+00 0.  1.
         25    2    1    2    0    0 -0.40918058896E+02  0.79781882641E+01  0.15894467408E+03  0.20651304830E+03  0.12508513369E+03 0.  0.
          5    1    3    3  502    0 -0.80161795486E+02  0.25749014087E+02  0.78630099918E+02  0.11527831624E+03  0.41800000000E+01 0.  1.
         -5    1    3    3    0  502  0.39243736589E+02 -0.17770825822E+02  0.80314574160E+02  0.91234732062E+02  0.41800000000E+01 0.  1.
        -11    1    1    2    0    0 -0.26776096578E+01 -0.40818626922E+02 -0.43842761290E-01  0.40906378714E+02  0.00000000000E+00 0.  1.
         11    1    1    2    0    0  0.43595668554E+02  0.32840438658E+02 -0.23889753933E+02  0.59580173471E+02  0.00000000000E+00 0. -1.
</event>
<event>
 7    1  0.2943257E-009  0.9022002E+02  0.7561462E-02  0.1302320E+00
         -2   -1    0    0    0  501 -0.00000000000E+00  0.00000000000E+00  0.26681719786E+02  0.26681719786E+02  0.00000000000E+00 0.  1.
          2   -1    0    0  501    0  0.00000000000E+00 -0.00000000000E+00 -0.58457378962E+03  0.58457378962E+03  0.00000000000E+00 0. -1.
         25    2    1    2    0    0  0.48913366570E+02  0.22530536432E+02 -0.23442927583E+03  0.27111767814E+03  0.12509023757E+03 0.  0.
          5    1    3    3  502    0  0.36258815133E+02 -0.13435525939E+02 -0.58357971668E+01  0.39328665890E+02  0.41800000000E+01 0. -1.
         -5    1    3    3    0  502  0.12654551437E+02  0.35966062371E+02 -0.22859347866E+03  0.23178901225E+03  0.41800000000E+01 0. -1.
        -11    1    1    2    0    0 -0.41834202737E+02  0.29175192028E+02 -0.19296391445E+03  0.19959049233E+03  0.00000000000E+00 0. -1.
         11    1    1    2    0    0 -0.70791638334E+01 -0.51705728460E+02 -0.13049887955E+03  0.14054733893E+03  0.00000000000E+00 0.  1.
</event>
<event>
 7    1  0.2943257E-009  0.1367964E+03  0.7561462E-02  0.1217706E+00
         -1   -1    0    0    0  501 -0.00000000000E+00  0.00000000000E+00  0.28656177123E+03  0.28656177123E+03  0.00000000000E+00 0.  1.
          1   -1    0    0  501    0  0.00000000000E+00 -0.00000000000E+00 -0.76193866132E+02  0.76193866132E+02  0.00000000000E+00 0. -1.
         25    2    1    2    0    0  0.33504641027E+02  0.93015716229E+02  0.13196376017E+03  0.20696706331E+03  0.12508575803E+03 0.  0.
          5    1    3    3  502    0  0.57235381653E+02  0.98943682117E+02  0.14009103408E+03  0.18085549860E+03  0.41800000000E+01 0. -1.
         -5    1    3    3    0  502 -0.23730740626E+02 -0.59279658876E+01 -0.81272739161E+01  0.26111564708E+02  0.41800000000E+01 0. -1.
        -11    1    1    2    0    0  0.19551205794E+02  0.73362802390E+01  0.90072411764E+01  0.22742054642E+02  0.00000000000E+00 0. -1.
         11    1    1    2    0    0 -0.53055846820E+02 -0.10035199647E+03  0.69396903756E+02  0.13304651941E+03  0.00000000000E+00 0.  1.
</event>
<event>
 7    1  0.2955158E-009  0.1148430E+03  0.7561462E-02  0.1251855E+00
         -2   -1    0    0    0  501 -0.00000000000E+00  0.00000000000E+00  0.14501226057E+02  0.14501226057E+02  0.00000000000E+00 0.  1.
          2   -1    0    0  501    0  0.00000000000E+00 -0.00000000000E+00 -0.12733637088E+04  0.12733637088E+04  0.00000000000E+00 0. -1.
         25    2    1    2    0    0 -0.41085094435E+02 -0.67226800121E+02 -0.79818940185E+03  0.81176436579E+03  0.12509051401E+03 0.  0.
          5    1    3    3  502    0  0.71873279271E+01 -0.63503511702E+02 -0.69230180542E+03  0.69525794916E+03  0.41800000000E+01 0.  1.
         -5    1    3    3    0  502 -0.48272422363E+02 -0.37232884195E+01 -0.10588759643E+03  0.11650641662E+03  0.41800000000E+01 0.  1.
        -11    1    1    2    0    0 -0.80465706557E+01  0.67434172070E+02 -0.21171385798E+03  0.22233954332E+03  0.00000000000E+00 0. -1.
         11    1    1    2    0    0  0.49131665091E+02 -0.20737194842E+00 -0.24895922287E+03  0.25376102571E+03  0.00000000000E+00 0.  1.
</event>
<event>
 7    1  0.2943257E-009  0.1433846E+03  0.7561462E-02  0.1208846E+00
         -3   -1    0    0    0  501 -0.00000000000E+00  0.00000000000E+00  0.18640563834E+03  0.18640563834E+03  0.00000000000E+00 0.  1.
          3   -1    0    0  501    0  0.00000000000E+00 -0.00000000000E+00 -0.16618465202E+03  0.16618465202E+03  0.00000000000E+00 0. -1.
         25    2    1    2    0    0  0.13182178866E+02 -0.98452185066E+02  0.10730934054E+03  0.19243142299E+03  0.12509178792E+03 0.  0.
          5    1    3    3  502    0 -0.30278822831E+02  0.14220785671E+02  0.45716858020E+02  0.56802652793E+02  0.41800000000E+01 0. -1.
         -5    1    3    3    0  502  0.43461001697E+02 -0.11267297074E+03  0.61592482517E+02  0.13562877020E+03  0.41800000000E+01 0. -1.
        -11    1    1    2    0    0 -0.49793337158E+02  0.69748703520E+02 -0.69804703267E+02  0.11053033369E+03  0.00000000000E+00 0. -1.
         11    1    1    2    0    0  0.36611158292E+02  0.28703481546E+02 -0.17283650951E+02  0.49628533673E+02  0.00000000000E+00 0.  1.
</event>
<event>
 7    1  0.2943257E-009  0.1541383E+03  0.7561462E-02  0.1195478E+00
          2   -1    0    0  501    0  0.00000000000E+00  0.00000000000E+00  0.24694449143E+04  0.24694449143E+04  0.00000000000E+00 0. -1.
         -2   -1    0    0    0  501 -0.00000000000E+00 -0.00000000000E+00 -0.14411119545E+02  0.14411119545E+02  0.00000000000E+00 0.  1.
         25    2    1    2    0    0  0.49476845877E+02 -0.13261673314E+03  0.16888393809E+04  0.16993707922E+04  0.12508988234E+03 0.  0.
          5    1    3    3  502    0  0.46079095360E+02 -0.59274771744E+02  0.32645867789E+03  0.33500674973E+03  0.41800000000E+01 0. -1.
         -5    1    3    3    0  502  0.33977505169E+01 -0.73341961397E+02  0.13623807030E+04  0.13643640425E+04  0.41800000000E+01 0. -1.
        -11    1    1    2    0    0 -0.60443568186E+02  0.13535606279E+03  0.75131297176E+03  0.76579753865E+03  0.00000000000E+00 0. -1.
         11    1    1    2    0    0  0.10966722309E+02 -0.27393296529E+01  0.14881442124E+02  0.18687703038E+02  0.00000000000E+00 0.  1.
</event>
<event>
 7    1  0.2943257E-009  0.8256993E+02  0.7561462E-02  0.1321913E+00
          1   -1    0    0  501    0  0.00000000000E+00  0.00000000000E+00  0.18027391945E+03  0.18027391945E+03  0.00000000000E+00 0. -1.
         -1   -1    0    0    0  501 -0.00000000000E+00 -0.00000000000E+00 -0.66811941847E+02  0.66811941847E+02  0.00000000000E+00 0.  1.
         25    2    1    2    0    0 -0.24481306372E+02  0.17919235177E+00  0.63704978306E+02  0.14249965280E+03  0.12509380607E+03 0.  0.
          5    1    3    3  502    0 -0.54513793470E+02  0.10207484028E+02  0.86797415157E+02  0.10308836058E+03  0.41800000000E+01 0.  1.
         -5    1    3    3    0  502  0.30032487098E+02 -0.10028291676E+02 -0.23092436851E+02  0.39411292226E+02  0.41800000000E+01 0.  1.
        -11    1    1    2    0    0 -0.26013951221E+02 -0.61672318377E+01  0.46493982532E+02  0.53632553718E+02  0.00000000000E+00 0. -1.
         11    1    1    2    0    0  0.50495257593E+02  0.59880394859E+01  0.32630167619E+01  0.50953654772E+02  0.00000000000E+00 0.  1.
</event>
<event>
 7    1  0.2943257E-009  0.1776831E+03  0.7561462E-02  0.1170064E+00
          2   -1    0    0  501    0  0.00000000000E+00  0.00000000000E+00  0.78367313180E+03  0.78367313180E+03  0.00000000000E+00 0. -1.
         -2   -1    0    0    0  501 -0.00000000000E+00 -0.00000000000E+00 -0.49497185386E+02  0.49497185386E+02  0.00000000000E+00 0.  1.
         25    2    1    2    0    0 -0.11391354539E+03 -0.11458602040E+03  0.44405541740E+03  0.48880806695E+03  0.12506742463E+03 0.  0.
          5    1    3    3  502    0 -0.81999679668E+02 -0.20882977084E+02  0.10149293234E+03  0.13220565007E+03  0.41800000000E+01 0. -1.
         -5    1    3    3    0  502 -0.31913865725E+02 -0.93703043314E+02  0.34256248506E+03  0.35660241688E+03  0.41800000000E+01 0. -1.
        -11    1    1    2    0    0  0.55799126396E+02  0.95124706886E+02  0.11732379668E+03  0.16101902259E+03  0.00000000000E+00 0.  1.
         11    1    1    2    0    0  0.58114418997E+02  0.19461313512E+02  0.17279673233E+03  0.18334322765E+03  0.00000000000E+00 0. -1.
</event>
<event>
 7    1  0.2943257E-009  0.9792491E+02  0.7561462E-02  0.1284721E+00
          1   -1    0    0  501    0  0.00000000000E+00  0.00000000000E+00  0.17501159861E+03  0.17501159861E+03  0.00000000000E+00 0. -1.
         -1   -1    0    0    0  501 -0.00000000000E+00 -0.00000000000E+00 -0.93363252949E+02  0.93363252949E+02  0.00000000000E+00 0.  1.
         25    2    1    2    0    0 -0.38272703308E+02 -0.30767675801E+02  0.93296119731E+02  0.16359419685E+03  0.12508975015E+03 0.  0.
          5    1    3    3  502    0 -0.69638995388E+02 -0.19476529652E+02  0.91737550999E+01  0.73010650378E+02  0.41800000000E+01 0. -1.
         -5    1    3    3    0  502  0.31366292081E+02 -0.11291146150E+02  0.84122364631E+02  0.90583546472E+02  0.41800000000E+01 0. -1.
        -11    1    1    2    0    0  0.27772009319E+02  0.55989935087E+02 -0.32469177294E+02  0.70430141323E+02  0.00000000000E+00 0.  1.
         11    1    1    2    0    0  0.10500693989E+02 -0.25222259285E+02  0.20821403225E+02  0.34350513387E+02  0.00000000000E+00 0. -1.
</event>
<event>
 7    1  0.2943257E-009  0.1109609E+03  0.7561462E-02  0.1258801E+00
         -2   -1    0    0    0  501 -0.00000000000E+00  0.00000000000E+00  0.22467823230E+02  0.22467823230E+02  0.00000000000E+00 0.  1.
          2   -1    0    0  501    0  0.00000000000E+00 -0.00000000000E+00 -0.64714941835E+03  0.64714941835E+03  0.00000000000E+00 0. -1.
         25    2    1    2    0    0 -0.45484471323E+02 -0.12451272559E+02 -0.41946095810E+03  0.44024756491E+03  0.12508617719E+03 0.  0.
          5    1    3    3  502    0  0.36497290483E+02 -0.23296985596E+01 -0.52741131840E+02  0.64316242861E+02  0.41800000000E+01 0.  1.
         -5    1    3    3    0  502 -0.81981761806E+02 -0.10121573999E+02 -0.36671982626E+03  0.37593132205E+03  0.41800000000E+01 0.  1.
        -11    1    1    2    0    0  0.59728259384E+02 -0.23149733290E+02 -0.12515660085E+03  0.14059711894E+03  0.00000000000E+00 0. -1.
         11    1    1    2    0    0 -0.14243788061E+02  0.35601005848E+02 -0.80064036184E+02  0.88772557729E+02  0.00000000000E+00 0.  1.
</event>
<event>
 7    1  0.2943257E-009  0.1626946E+03  0.7561462E-02  0.1185688E+00
          2   -1    0    0  501    0  0.00000000000E+00  0.00000000000E+00  0.56656249028E+03  0.56656249028E+03  0.00000000000E+00 0. -1.
         -2   -1    0    0    0  501 -0.00000000000E+00 -0.00000000000E+00 -0.54941797057E+02  0.54941797057E+02  0.00000000000E+00 0.  1.
         25    2    1    2    0    0 -0.10002621555E+03  0.96581336932E+02  0.25945492300E+03  0.31983744736E+03  0.12508372085E+03 0.  0.
          5    1    3    3  502    0 -0.63614928475E+02  0.12438615871E+03  0.17835542987E+03  0.22659855994E+03  0.41800000000E+01 0.  1.
         -5    1    3    3    0  502 -0.36411287078E+02 -0.27804821779E+02  0.81099493126E+02  0.93238887413E+02  0.41800000000E+01 0.  1.
        -11    1    1    2    0    0  0.66685868791E+02 -0.55907733272E+02  0.68873141666E+02  0.11097832842E+03  0.00000000000E+00 0.  1.
         11    1    1    2    0    0  0.33340346762E+02 -0.40673603661E+02  0.18329262856E+03  0.19068851156E+03  0.00000000000E+00 0. -1.
</event>
<event>
 7    1  0.2943257E-009  0.1018148E+03  0.7561462E-02  0.1276525E+00
          1   -1    0    0  501    0  0.00000000000E+00  0.00000000000E+00  0.64625239562E+03  0.64625239562E+03  0.00000000000E+00 0. -1.
         -1   -1    0    0    0  501 -0.00000000000E+00 -0.00000000000E+00 -0.23758335240E+02  0.23758335240E+02  0.00000000000E+00 0.  1.
         25    2    1    2    0    0  0.45813154424E+02 -0.93382552148E+01  0.44210683410E+03  0.46183307831E+03  0.12508113902E+03 0.  0.
          5    1    3    3  502    0  0.26610346243E+02  0.52291087434E+02  0.29977388848E+03  0.30549030258E+03  0.41800000000E+01 0. -1.
         -5    1    3    3    0  502  0.19202808181E+02 -0.61629342648E+02  0.14233294562E+03  0.15634277574E+03  0.41800000000E+01 0. -1.
        -11    1    1    2    0    0 -0.15828088536E+02  0.36423864291E+02  0.23447357158E+02  0.46119462641E+02  0.00000000000E+00 0.  1.
         11    1    1    2    0    0 -0.29985065888E+02 -0.27085609077E+02  0.15693986912E+03  0.16205818991E+03  0.00000000000E+00 0. -1.
</event>
<event>
 7    1  0.2943257E-009  0.1098215E+03  0.7561462E-02  0.1260901E+00
          3   -1    0    0  501    0  0.00000000000E+00  0.00000000000E+00  0.30789480304E+03  0.30789480304E+03  0.00000000000E+00 0. -1.
         -3   -1    0    0    0  501 -0.00000000000E+00 -0.00000000000E+00 -0.45240967596E+02  0.45240967596E+02  0.00000000000E+00 0.  1.
         25    2    1    2    0    0 -0.36617572552E+02  0.29531485224E+02  0.15621642612E+03  0.20558372238E+03  0.12509252526E+03 0.  0.
          5    1    3    3  502    0 -0.71038327957E+02  0.46807130515E+02  0.67164780691E+02  0.10847087937E+03  0.41800000000E+01 0.  1.
         -5    1    3    3    0  502  0.34420755405E+02 -0.17275645291E+02  0.89051645429E+02  0.97112843005E+02  0.41800000000E+01 0.  1.
        -11    1    1    2    0    0 -0.44547005252E+01 -0.49750515531E+02  0.29458677991E+02  0.57989411631E+02  0.00000000000E+00 0.  1.
         11    1    1    2    0    0  0.41072273078E+02  0.20219030307E+02  0.76978731331E+02  0.89562636627E+02  0.00000000000E+00 0. -1.
</event>
<event>
 7    1  0.2943257E-009  0.9477195E+02  0.7561462E-02  0.1291691E+00
         -1   -1    0    0    0  501 -0.00000000000E+00  0.00000000000E+00  0.10171305224E+03  0.10171305224E+03  0.00000000000E+00 0.  1.
          1   -1    0    0  501    0  0.00000000000E+00 -0.00000000000E+00 -0.18488463151E+03  0.18488463151E+03  0.00000000000E+00 0. -1.
         25    2    1    2    0    0 -0.37701689143E+02 -0.39121736937E+02  0.21151287026E+02  0.13801054250E+03  0.12509038825E+03 0.  0.
          5    1    3    3  502    0 -0.40212337298E+02  0.85185178552E+01  0.62377942309E+02  0.74820300081E+02  0.41800000000E+01 0.  1.
         -5    1    3    3    0  502  0.25106481550E+01 -0.47640254792E+02 -0.41226655284E+02  0.63190242417E+02  0.41800000000E+01 0.  1.
        -11    1    1    2    0    0  0.17240989745E+02 -0.26491973042E+02 -0.12731037217E+02  0.34075734352E+02  0.00000000000E+00 0.  1.
         11    1    1    2    0    0  0.20460699398E+02  0.65613709979E+02 -0.91591829076E+02  0.11451140690E+03  0.00000000000E+00 0. -1.
</event>
<event>
 7    1  0.2943257E-009  0.1881619E+03  0.7561462E-02  0.1160130E+00
         -1   -1    0    0    0  501 -0.00000000000E+00  0.00000000000E+00  0.30950422637E+02  0.30950422637E+02  0.00000000000E+00 0.  1.
          1   -1    0    0  501    0  0.00000000000E+00 -0.00000000000E+00 -0.13506417402E+04  0.13506417402E+04  0.00000000000E+00 0. -1.
         25    2    1    2    0    0  0.15723641674E+03  0.69687887152E+02 -0.75589930532E+03  0.78524662141E+03  0.12509518093E+03 0.  0.
          5    1    3    3  502    0  0.14132053184E+03  0.82462250463E+02 -0.74284427582E+03  0.76066195250E+03  0.41800000000E+01 0. -1.
         -5    1    3    3    0  502  0.15915884900E+02 -0.12774363311E+02 -0.13055029505E+02  0.24584668912E+02  0.41800000000E+01 0. -1.
        -11    1    1    2    0    0 -0.76817638282E+02  0.11348642695E+02 -0.27660417277E+03  0.28729707558E+03  0.00000000000E+00 0. -1.
         11    1    1    2    0    0 -0.80418778459E+02 -0.81036529847E+02 -0.28718783944E+03  0.30904846581E+03  0.00000000000E+00 0.  1.
</event>
<event>
 7    1  0.2943257E-009  0.1578465E+03  0.7561462E-02  0.1191150E+00
          2   -1    0    0  501    0  0.00000000000E+00  0.00000000000E+00  0.43454041666E+03  0.43454041666E+03  0.00000000000E+00 0. -1.
         -2   -1    0    0    0  501 -0.00000000000E+00 -0.00000000000E+00 -0.82355008733E+02  0.82355008733E+02  0.00000000000E+00 0.  1.
         25    2    1    2    0    0  0.12352484083E+03  0.82930480856E+02  0.24166532414E+03  0.31013769378E+03  0.12508960489E+03 0.  0.
          5    1    3    3  502    0  0.24456096148E+02  0.34962948737E+02 -0.18051001998E+01  0.42909663363E+02  0.41800000000E+01 0. -1.
         -5    1    3    3    0  502  0.99068744680E+02  0.47967532119E+02  0.24347042434E+03  0.26722803042E+03  0.41800000000E+01 0. -1.
        -11    1    1    2    0    0 -0.74155282153E+02 -0.85570700003E+02  0.38893271143E+02  0.11972483915E+03  0.00000000000E+00 0.  1.
         11    1    1    2    0    0 -0.49369558674E+02  0.26402191474E+01  0.71626812638E+02  0.87032892457E+02  0.00000000000E+00 0. -1.
</event>
<event>
 7    1  0.2943257E-009  0.1273000E+03  0.7561462E-02  0.1231518E+00
          2   -1    0    0  501    0  0.00000000000E+00  0.00000000000E+00  0.51256270807E+03  0.51256270807E+03  0.00000000000E+00 0. -1.
         -2   -1    0    0    0  501 -0.00000000000E+00 -0.00000000000E+00 -0.49980374254E+02  0.49980374254E+02  0.00000000000E+00 0.  1.
         25    2    1    2    0    0  0.54793579035E+02  0.10200793122E+03  0.30885902823E+03  0.35277477754E+03  0.12509272566E+03 0.  0.
          5    1    3    3  502    0  0.15534857324E+02  0.33958156390E+02  0.38385361083E+01  0.37771615493E+02  0.41800000000E+01 0. -1.
         -5    1    3    3    0  502  0.39258721711E+02  0.68049774831E+02  0.30502049213E+03  0.31500316205E+03  0.41800000000E+01 0. -1.
        -11    1    1    2    0    0  0.12801999428E+02 -0.53859367918E+02  0.37144073642E+02  0.66666370147E+02  0.00000000000E+00 0. -1.
         11    1    1    2    0    0 -0.67595578463E+02 -0.48148563304E+02  0.11657923194E+03  0.14310193463E+03  0.00000000000E+00 0.  1.
</event>
<event>
 7    1  0.2943257E-009  0.1808377E+03  0.7561462E-02  0.1166995E+00
         -2   -1    0    0    0  501 -0.00000000000E+00  0.00000000000E+00  0.18482244081E+03  0.18482244081E+03  0.00000000000E+00 0.  1.
          2   -1    0    0  501    0  0.00000000000E+00 -0.00000000000E+00 -0.21221547219E+03  0.21221547219E+03  0.00000000000E+00 0. -1.
         25    2    1    2    0    0  0.64025515907E+02 -0.14004986124E+03 -0.74643723243E+02  0.21197332558E+03  0.12509106690E+03 0.  0.
          5    1    3    3  502    0 -0.31683653545E+02 -0.13843872049E+02  0.40452344666E+01  0.35061988209E+02  0.41800000000E+01 0. -1.
         -5    1    3    3    0  502  0.95709169452E+02 -0.12620598919E+03 -0.78688957709E+02  0.17691133737E+03  0.41800000000E+01 0. -1.
        -11    1    1    2    0    0  0.82160223842E+01  0.60048846790E+02  0.47931560525E+02  0.77270961681E+02  0.00000000000E+00 0.  1.
         11    1    1    2    0    0 -0.72241538291E+02  0.80001014445E+02 -0.68086866129E+00  0.10779362573E+03  0.00000000000E+00 0. -1.
</event>
<event>
 7    1  0.2943257E-009  0.1175525E+03  0.7561462E-02  0.1247190E+00
         -2   -1    0    0    0  501 -0.00000000000E+00  0.00000000000E+00  0.80931522752E+02  0.80931522752E+02  0.00000000000E+00 0.  1.
          2   -1    0    0  501    0  0.00000000000E+00 -0.00000000000E+00 -0.18015472347E+03  0.18015472347E+03  0.00000000000E+00 0. -1.
         25    2    1    2    0    0  0.44524246733E+02 -0.12757603236E+02 -0.73238906779E+02  0.15217323500E+03  0.12509033135E+03 0.  0.
          5    1    3    3  502    0  0.25439329618E+02  0.55998215315E+02 -0.29153656622E+02  0.68193604570E+02  0.41800000000E+01 0.  1.
         -5    1    3    3    0  502  0.19084917114E+02 -0.68755818551E+02 -0.44085250158E+02  0.83979630431E+02  0.41800000000E+01 0.  1.
        -11    1    1    2    0    0 -0.40317724855E+02  0.50152452590E+02 -0.21810629891E+01  0.64385902759E+02  0.00000000000E+00 0.  1.
         11    1    1    2    0    0 -0.42065218773E+01 -0.37394849354E+02 -0.23803230951E+02  0.44527108465E+02  0.00000000000E+00 0. -1.
</event>
<event>
 7    1  0.2943257E-009  0.1161422E+03  0.7561462E-02  0.1249600E+00
         -2   -1    0    0    0  501 -0.00000000000E+00  0.00000000000E+00  0.20727986676E+03  0.20727986676E+03  0.00000000000E+00 0.  1.
          2   -1    0    0  501    0  0.00000000000E+00 -0.00000000000E+00 -0.11134618542E+03  0.11134618542E+03  0.00000000000E+00 0. -1.
         25    2    1    2    0    0  0.58204417532E+02 -0.77167126955E+02  0.10494068407E+03  0.18974853867E+03  0.12509772601E+03 0.  0.
          5    1    3    3  502    0 -0.16707217236E+02 -0.12156813768E+02  0.86174143405E+02  0.88715131856E+02  0.41800000000E+01 0.  1.
         -5    1    3    3    0  502  0.74911634768E+02 -0.65010313187E+02  0.18766540660E+02  0.10103340681E+03  0.41800000000E+01 0.  1.
        -11    1    1    2    0    0 -0.63708837056E+02  0.41940805131E+02  0.24335025402E+02  0.80062728628E+02  0.00000000000E+00 0.  1.
         11    1    1    2    0    0  0.55044195235E+01  0.35226321824E+02 -0.33342028124E+02  0.48814784881E+02  0.00000000000E+00 0. -1.
</event>
<event>
 7    1  0.2943257E-009  0.8941672E+02  0.7561462E-02  0.1304270E+00
          1   -1    0    0  501    0  0.00000000000E+00  0.00000000000E+00  0.10724892677E+04  0.10724892677E+04  0.00000000000E+00 0. -1.
         -1   -1    0    0    0  501 -0.00000000000E+00 -0.00000000000E+00 -0.16460579111E+02  0.16460579111E+02  0.00000000000E+00 0.  1.
         25    2    1    2    0    0 -0.15412794929E+02 -0.53656831406E+02  0.79659008434E+03  0.80828187295E+03  0.12508882391E+03 0.  0.
          5    1    3    3  502    0 -0.27421250716E+02 -0.54170129320E+02  0.15433674123E+03  0.16590247134E+03  0.41800000000E+01 0. -1.
         -5    1    3    3    0  502  0.12008455787E+02  0.51329791367E+00  0.64225334311E+03  0.64237940161E+03  0.41800000000E+01 0. -1.
        -11    1    1    2    0    0  0.41351500836E+02  0.64919521128E+02  0.16468385341E+03  0.18178355926E+03  0.00000000000E+00 0.  1.
         11    1    1    2    0    0 -0.25938705907E+02 -0.11262689722E+02  0.94754750881E+02  0.98884414638E+02  0.00000000000E+00 0. -1.
</event>
<event>
 7    1  0.2943257E-009  0.1049722E+03  0.7561462E-02  0.1270174E+00
         -1   -1    0    0    0  501 -0.00000000000E+00  0.00000000000E+00  0.51681899253E+02  0.51681899253E+02  0.00000000000E+00 0.  1.
          1   -1    0    0  501    0  0.00000000000E+00 -0.00000000000E+00 -0.25027690897E+03  0.25027690897E+03  0.00000000000E+00 0. -1.
         25    2    1    2    0    0  0.65636903990E+01  0.20614664047E+02 -0.72277349964E+02  0.14608065481E+03  0.12508995159E+03 0.  0.
          5    1    3    3  502    0  0.58742353047E+02 -0.12423677109E+02 -0.15655301630E+02  0.62189811574E+02  0.41800000000E+01 0.  1.
         -5    1    3    3    0  502 -0.52178662648E+02  0.33038341155E+02 -0.56622048333E+02  0.83890843240E+02  0.41800000000E+01 0.  1.
        -11    1    1    2    0    0 -0.28134052974E+02  0.24848621607E+02 -0.75743553659E+02  0.84534400414E+02  0.00000000000E+00 0. -1.
         11    1    1    2    0    0  0.21570362575E+02 -0.45463285654E+02 -0.50574106090E+02  0.71343752991E+02  0.00000000000E+00 0.  1.
</event>
<event>
 7    1  0.2943257E-009  0.8269609E+02  0.7561462E-02  0.1321570E+00
         -1   -1    0    0    0  501 -0.00000000000E+00  0.00000000000E+00  0.28655384778E+02  0.28655384778E+02  0.00000000000E+00 0.  1.
          1   -1    0    0  501    0  0.00000000000E+00 -0.00000000000E+00 -0.53671765820E+03  0.53671765820E+03  0.00000000000E+00 0. -1.
         25    2    1    2    0    0  0.29733311937E+02 -0.14396222444E+02 -0.17026214036E+03  0.21384093377E+03  0.12508967766E+03 0.  0.
          5    1    3    3  502    0  0.19691900464E+02  0.23769420914E+02  0.72214562158E+01  0.31974648463E+02  0.41800000000E+01 0. -1.
         -5    1    3    3    0  502  0.10041411473E+02 -0.38165643358E+02 -0.17748359658E+03  0.18186628531E+03  0.41800000000E+01 0. -1.
        -11    1    1    2    0    0  0.26072287270E+02  0.26801161534E+02 -0.95018356599E+02  0.10211050149E+03  0.00000000000E+00 0.  1.
         11    1    1    2    0    0 -0.55805599207E+02 -0.12404939089E+02 -0.24278177646E+03  0.24942160772E+03  0.00000000000E+00 0. -1.
</event>
<event>
 7    1  0.2943257E-009  0.1059983E+03  0.7561462E-02  0.1268165E+00
          1   -1    0    0  501    0  0.00000000000E+00  0.00000000000E+00  0.29469890074E+03  0.29469890074E+03  0.00000000000E+00 0. -1.
         -1   -1    0    0    0  501 -0.00000000000E+00 -0.00000000000E+00 -0.41816246599E+02  0.41816246599E+02  0.00000000000E+00 0.  1.
         25    2    1    2    0    0 -0.57608148281E+01  0.11572190526E+02  0.18996239450E+03  0.22781653821E+03  0.12509021216E+03 0.  0.
          5    1    3    3  502    0 -0.56406333469E+02 -0.23969719177E+02  0.11629279767E+03  0.13152075533E+03  0.41800000000E+01 0.  1.
         -5    1    3    3    0  502  0.50645518641E+02  0.35541909703E+02  0.73669596833E+02  0.96295782884E+02  0.41800000000E+01 0.  1.
        -11    1    1    2    0    0 -0.40586243545E+02  0.75877436075E+00  0.26493860695E+02  0.48474153506E+02  0.00000000000E+00 0. -1.
         11    1    1    2    0    0  0.46347058373E+02 -0.12330964887E+02  0.36426398952E+02  0.60224455626E+02  0.00000000000E+00 0.  1.
</event>
<event>
 7    1  0.2943257E-009  0.1419490E+03  0.7561462E-02  0.1210730E+00
         -3   -1    0    0    0  501 -0.00000000000E+00  0.00000000000E+00  0.12927570594E+03  0.12927570594E+03  0.00000000000E+00 0.  1.
          3   -1    0    0  501    0  0.00000000000E+00 -0.00000000000E+00 -0.19601016318E+03  0.19601016318E+03  0.00000000000E+00 0. -1.
         25    2    1    2    0    0  0.37167049608E+02 -0.10877483554E+03 -0.53363360383E+02  0.17806970762E+03  0.12509123917E+03 0.  0.
          5    1    3    3  502    0  0.66484743701E+02 -0.12741581953E+02 -0.33435371102E+02  0.75617230155E+02  0.41800000000E+01 0. -1.
         -5    1    3    3    0  502 -0.29317694093E+02 -0.96033253589E+02 -0.19927989282E+02  0.10245247746E+03  0.41800000000E+01 0. -1.
        -11    1    1    2    0    0 -0.14065822357E+01  0.17380309366E+02  0.34022201762E+02  0.38230404654E+02  0.00000000000E+00 0.  1.
         11    1    1    2    0    0 -0.35760467373E+02  0.91394526175E+02 -0.47393298618E+02  0.10898575685E+03  0.00000000000E+00 0. -1.
</event>
<event>
 7    1  0.2943257E-009  0.1163401E+03  0.7561462E-02  0.1249260E+00
          2   -1    0    0  501    0  0.00000000000E+00  0.00000000000E+00  0.70696392668E+02  0.70696392668E+02  0.00000000000E+00 0.  1.
         -2   -1    0    0    0  501 -0.00000000000E+00 -0.00000000000E+00 -0.30705477983E+03  0.30705477983E+03  0.00000000000E+00 0. -1.
         25    2    1    2    0    0 -0.61441980954E+02  0.13093394685E+02 -0.22718271203E+03  0.26684432707E+03  0.12508939298E+03 0.  0.
          5    1    3    3  502    0 -0.30319502256E+02  0.61497628010E+02 -0.64481890919E+02  0.94215800822E+02  0.41800000000E+01 0.  1.
         -5    1    3    3    0  502 -0.31122478698E+02 -0.48404233326E+02 -0.16270082112E+03  0.17262852625E+03  0.41800000000E+01 0.  1.
        -11    1    1    2    0    0  0.20813659496E+02  0.36598361072E+02  0.11194000454E+02  0.43565515042E+02  0.00000000000E+00 0.  1.
         11    1    1    2    0    0  0.40628321458E+02 -0.49691755756E+02 -0.20369675583E+02  0.67341330385E+02  0.00000000000E+00 0. -1.
</event>
<event>
 7    1  0.2943257E-009  0.2014733E+03  0.7561462E-02  0.1148502E+00
          1   -1    0    0  501    0  0.00000000000E+00  0.00000000000E+00  0.12444883004E+03  0.12444883004E+03  0.00000000000E+00 0. -1.
         -1   -1    0    0    0  501 -0.00000000000E+00 -0.00000000000E+00 -0.34312665598E+03  0.34312665598E+03  0.00000000000E+00 0.  1.
         25    2    1    2    0    0  0.59943436890E+02 -0.16279269944E+03 -0.14391950944E+03  0.25778854411E+03  0.12508968647E+03 0.  0.
          5    1    3    3  502    0 -0.20549471431E+02  0.47107439010E+01  0.18359915997E+01  0.21571164766E+02  0.41800000000E+01 0. -1.
         -5    1    3    3    0  502  0.80492908322E+02 -0.16750344334E+03 -0.14575550104E+03  0.23621737934E+03  0.41800000000E+01 0. -1.
        -11    1    1    2    0    0 -0.78208745357E+02  0.84362050905E+02 -0.36967295203E+02  0.12083105726E+03  0.00000000000E+00 0. -1.
         11    1    1    2    0    0  0.18265308467E+02  0.78430648537E+02 -0.37791021299E+02  0.88955884651E+02  0.00000000000E+00 0.  1.
</event>
<event>
 7    1  0.2943257E-009  0.1003208E+03  0.7561462E-02  0.1279623E+00
         -2   -1    0    0    0  501 -0.00000000000E+00  0.00000000000E+00  0.12884330191E+02  0.12884330191E+02  0.00000000000E+00 0.  1.
          2   -1    0    0  501    0  0.00000000000E+00 -0.00000000000E+00 -0.15510710503E+04  0.15510710503E+04  0.00000000000E+00 0. -1.
         25    2    1    2    0    0  0.61653993155E+02  0.29998083191E+02 -0.11618844841E+04  0.11706084846E+04  0.12509024749E+03 0.  0.
          5    1    3    3  502    0 -0.16864925289E+02  0.25803189162E+02 -0.78352061698E+03  0.78413790873E+03  0.41800000000E+01 0. -1.
         -5    1    3    3    0  502  0.78518918443E+02  0.41948940288E+01 -0.37836386708E+03  0.38647057586E+03  0.41800000000E+01 0. -1.
        -11    1    1    2    0    0 -0.50682062787E+01  0.16683042286E+02 -0.10698281582E+02  0.20456388821E+02  0.00000000000E+00 0.  1.
         11    1    1    2    0    0 -0.56585786876E+02 -0.46681125477E+02 -0.36560395451E+03  0.37289050713E+03  0.00000000000E+00 0. -1.
</event>
<event>
 7    1  0.2943257E-009  0.1077228E+03  0.7561462E-02  0.1264846E+00
          2   -1    0    0  501    0  0.00000000000E+00  0.00000000000E+00  0.11000194889E+04  0.11000194889E+04  0.00000000000E+00 0. -1.
         -2   -1    0    0    0  501 -0.00000000000E+00 -0.00000000000E+00 -0.15696525301E+02  0.15696525301E+02  0.00000000000E+00 0.  1.
         25    2    1    2    0    0 -0.23722592573E+02 -0.16946256826E+02  0.88653500406E+03  0.89579012046E+03  0.12508273054E+03 0.  0.
          5    1    3    3  502    0 -0.22427584431E+02  0.51954214832E+02  0.31154613394E+03  0.31667128533E+03  0.41800000000E+01 0.  1.
         -5    1    3    3    0  502 -0.12950081416E+01 -0.68900471658E+02  0.57498887012E+03  0.57911883513E+03  0.41800000000E+01 0.  1.
        -11    1    1    2    0    0 -0.31855149926E+02  0.11119938619E+01  0.35775398439E+02  0.47915198430E+02  0.00000000000E+00 0.  1.
         11    1    1    2    0    0  0.55577742499E+02  0.15834262964E+02  0.16201256106E+03  0.17201069527E+03  0.00000000000E+00 0. -1.
</event>
<event>
 7    1  0.2943257E-009  0.1515235E+03  0.7561462E-02  0.1198613E+00
         -3   -1    0    0    0  501 -0.00000000000E+00  0.00000000000E+00  0.34075806581E+03  0.34075806581E+03  0.00000000000E+00 0.  1.
          3   -1    0    0  501    0  0.00000000000E+00 -0.00000000000E+00 -0.79467354560E+02  0.79467354560E+02  0.00000000000E+00 0. -1.
         25    2    1    2    0    0  0.42815816965E+02 -0.11427217972E+03  0.11974453167E+03  0.21184610692E+03  0.12509474373E+03 0.  0.
          5    1    3    3  502    0  0.65963560827E+02 -0.12659382993E+03  0.11796832863E+03  0.18523279433E+03  0.41800000000E+01 0. -1.
         -5    1    3    3    0  502 -0.23147743862E+02  0.12321650209E+02  0.17762030460E+01  0.26613312591E+02  0.41800000000E+01 0. -1.
        -11    1    1    2    0    0  0.10154469030E+02  0.46870090059E+02  0.64634312922E+01  0.48391058343E+02  0.00000000000E+00 0. -1.
         11    1    1    2    0    0 -0.52970285994E+02  0.67402089665E+02  0.13508274828E+03  0.15998825511E+03  0.00000000000E+00 0.  1.
</event>
<event>
 7    1  0.2943257E-009  0.1036363E+03  0.7561462E-02  0.1272830E+00
         -3   -1    0    0    0  501 -0.00000000000E+00  0.00000000000E+00  0.12379364897E+03  0.12379364897E+03  0.00000000000E+00 0.  1.
          3   -1    0    0  501    0  0.00000000000E+00 -0.00000000000E+00 -0.12603864293E+03  0.12603864293E+03  0.00000000000E+00 0. -1.
         25    2    1    2    0    0  0.34781202894E+02 -0.51664864031E+02 -0.37585138384E+01  0.13977088509E+03  0.12507111434E+03 0.  0.
          5    1    3    3  502    0 -0.72200107521E+01 -0.54335797007E+02  0.47965832715E+02  0.72956842720E+02  0.41800000000E+01 0.  1.
         -5    1    3    3    0  502  0.42001213646E+02  0.26709329758E+01 -0.51724346554E+02  0.66814042365E+02  0.41800000000E+01 0.  1.
        -11    1    1    2    0    0  0.28851582250E+02  0.32699266728E+02  0.21229686656E+01  0.43659624814E+02  0.00000000000E+00 0. -1.
         11    1    1    2    0    0 -0.63632785144E+02  0.18965597303E+02 -0.60944878814E+00  0.66401782010E+02  0.00000000000E+00 0.  1.
</event>
<event>
 7    1  0.2943257E-009  0.7683227E+02  0.7561462E-02  0.1338289E+00
          1   -1    0    0  501    0  0.00000000000E+00  0.00000000000E+00  0.17885632462E+03  0.17885632462E+03  0.00000000000E+00 0. -1.
         -1   -1    0    0    0  501 -0.00000000000E+00 -0.00000000000E+00 -0.70364423956E+02  0.70364423956E+02  0.00000000000E+00 0.  1.
         25    2    1    2    0    0 -0.15059424181E+02  0.39794219112E+02  0.60578858007E+02  0.14535134322E+03  0.12508736469E+03 0.  0.
          5    1    3    3  502    0  0.30516184598E+02  0.27279946304E+02  0.83177339419E+02  0.92797495578E+02  0.41800000000E+01 0. -1.
         -5    1    3    3    0  502 -0.45575608779E+02  0.12514272808E+02 -0.22598481411E+02  0.52553847638E+02  0.41800000000E+01 0. -1.
        -11    1    1    2    0    0 -0.33085387145E+01 -0.45668503224E+02 -0.64009955657E+01  0.46233444165E+02  0.00000000000E+00 0.  1.
         11    1    1    2    0    0  0.18367962895E+02  0.58742841117E+01  0.54314038227E+02  0.57635961198E+02  0.00000000000E+00 0. -1.
</event>
<event>
 7    1  0.2946643E-009  0.1583756E+03  0.7561462E-02  0.1190543E+00
          2   -1    0    0  501    0  0.00000000000E+00  0.00000000000E+00  0.11297543081E+04  0.11297543081E+04  0.00000000000E+00 0. -1.
         -2   -1    0    0    0  501 -0.00000000000E+00 -0.00000000000E+00 -0.26356130668E+02  0.26356130668E+02  0.00000000000E+00 0.  1.
         25    2    1    2    0    0  0.12652797625E+01 -0.13348629114E+03  0.53645222666E+03  0.56678781450E+03  0.12508894566E+03 0.  0.
          5    1    3    3  502    0 -0.44371012544E+02 -0.68474861508E+02  0.13715216845E+03  0.15964267326E+03  0.41800000000E+01 0. -1.
         -5    1    3    3    0  502  0.45636292306E+02 -0.65011429636E+02  0.39930005820E+03  0.40714514125E+03  0.41800000000E+01 0. -1.
        -11    1    1    2    0    0  0.32752112930E+02  0.10840856155E+03  0.33683902351E+03  0.35536691585E+03  0.00000000000E+00 0. -1.
         11    1    1    2    0    0 -0.34017392693E+02  0.25077729596E+02  0.23010692724E+03  0.23395570840E+03  0.00000000000E+00 0.  1.
</event>
<event>
 7    1  0.3187471E-009  0.1248034E+03  0.7561462E-02  0.1235377E+00
         -2   -1    0    0    0  501 -0.00000000000E+00  0.00000000000E+00  0.40311705227E+02  0.40311705227E+02  0.00000000000E+00 0.  1.
          2   -1    0    0  501    0  0.00000000000E+00 -0.00000000000E+00 -0.48090385846E+03  0.48090385846E+03  0.00000000000E+00 0. -1.
         25    2    1    2    0    0  0.67673980917E+02 -0.54999379431E+02 -0.24189958811E+03  0.28594955025E+03  0.12508810948E+03 0.  0.
          5    1    3    3  502    0 -0.25767112978E+02 -0.25442042633E+02 -0.16267654646E+02  0.39916796368E+02  0.41800000000E+01 0.  1.
         -5    1    3    3    0  502  0.93441093896E+02 -0.29557336798E+02 -0.22563193346E+03  0.24603275389E+03  0.41800000000E+01 0.  1.
        -11    1    1    2    0    0 -0.15023486486E+02  0.60301598352E+02 -0.58216494008E+02  0.85153673347E+02  0.00000000000E+00 0.  1.
         11    1    1    2    0    0 -0.52650494432E+02 -0.53022189205E+01 -0.14047607112E+03  0.15011234008E+03  0.00000000000E+00 0. -1.
</event>
<event>
 7    1  0.2943257E-009  0.9831498E+02  0.7561462E-02  0.1283880E+00
          1   -1    0    0  501    0  0.00000000000E+00  0.00000000000E+00  0.15033401198E+03  0.15033401198E+03  0.00000000000E+00 0. -1.
         -1   -1    0    0    0  501 -0.00000000000E+00 -0.00000000000E+00 -0.99691042938E+02  0.99691042938E+02  0.00000000000E+00 0.  1.
         25    2    1    2    0    0 -0.17707699428E+02  0.10019596616E+02  0.82223564976E+02  0.15107200148E+03  0.12509228617E+03 0.  0.
          5    1    3    3  502    0 -0.52450231256E+02 -0.28248125919E+02  0.76012322388E+01  0.60201615496E+02  0.41800000000E+01 0.  1.
         -5    1    3    3    0  502  0.34742531828E+02  0.38267722536E+02  0.74622332738E+02  0.90870385985E+02  0.41800000000E+01 0.  1.
        -11    1    1    2    0    0  0.81436193855E+01 -0.46568745874E+02  0.34904901866E+01  0.47404115335E+02  0.00000000000E+00 0. -1.
         11    1    1    2    0    0  0.95640800421E+01  0.36549149258E+02 -0.35071086116E+02  0.51548938106E+02  0.00000000000E+00 0.  1.
</event>
<event>
 7    1  0.2943257E-009  0.1059146E+03  0.7561462E-02  0.1268328E+00
          1   -1    0    0  501    0  0.00000000000E+00  0.00000000000E+00  0.65066441812E+03  0.65066441812E+03  0.00000000000E+00 0. -1.
         -1   -1    0    0    0  501 -0.00000000000E+00 -0.00000000000E+00 -0.22833006990E+02  0.22833006990E+02  0.00000000000E+00 0.  1.
         25    2    1    2    0    0  0.27320881846E+02 -0.47867921406E+02  0.32175835485E+03  0.34959094807E+03  0.12509046155E+03 0.  0.
          5    1    3    3  502    0  0.13851193559E+02 -0.74832063183E+02  0.30594837363E+03  0.31529918009E+03  0.41800000000E+01 0. -1.
         -5    1    3    3    0  502  0.13469688287E+02  0.26964141777E+02  0.15809981221E+02  0.34291767971E+02  0.41800000000E+01 0. -1.
        -11    1    1    2    0    0 -0.47867026375E+01  0.72003051129E+02  0.19052150348E+03  0.20372971110E+03  0.00000000000E+00 0.  1.
         11    1    1    2    0    0 -0.22534179209E+02 -0.24135129723E+02  0.11555155280E+03  0.12017676594E+03  0.00000000000E+00 0. -1.
</event>
<event>
 7    1  0.2943257E-009  0.1038529E+03  0.7561462E-02  0.1272396E+00
          2   -1    0    0  501    0  0.00000000000E+00  0.00000000000E+00  0.32609028799E+03  0.32609028799E+03  0.00000000000E+00 0. -1.
         -2   -1    0    0    0  501 -0.00000000000E+00 -0.00000000000E+00 -0.47844769529E+02  0.47844769529E+02  0.00000000000E+00 0.  1.
         25    2    1    2    0    0  0.14547695117E+02 -0.13869318432E+02  0.75246569192E+02  0.14735391124E+03  0.12508851088E+03 0.  0.
          5    1    3    3  502    0  0.35108199264E+02  0.48523420314E+02  0.27510367779E+02  0.66040901795E+02  0.41800000000E+01 0.  1.
         -5    1    3    3    0  502 -0.20560504147E+02 -0.62392738746E+02  0.47736201414E+02  0.81313009442E+02  0.41800000000E+01 0.  1.
        -11    1    1    2    0    0 -0.22478850109E+02 -0.29873181295E+02  0.29920742744E+02  0.47884825459E+02  0.00000000000E+00 0.  1.
         11    1    1    2    0    0  0.79311549919E+01  0.43742499727E+02  0.17307820652E+03  0.17869632082E+03  0.00000000000E+00 0. -1.
</event>
<event>
 7    1  0.2943257E-009  0.9743111E+02  0.7561462E-02  0.1285793E+00
         -2   -1    0    0    0  501 -0.00000000000E+00  0.00000000000E+00  0.34267796847E+03  0.34267796847E+03  0.00000000000E+00 0. -1.
          2   -1    0    0  501    0  0.00000000000E+00 -0.00000000000E+00 -0.12584316197E+03  0.12584316197E+03  0.00000000000E+00 0.  1.
         25    2    1    2    0    0 -0.24316168777E+02  0.63928450399E+02 -0.71135590724E+02  0.15933014517E+03  0.12509076728E+03 0.  0.
          5    1    3    3  502    0 -0.94211881635E+01 -0.29410543483E+02 -0.55193562856E+02  0.63384072409E+02  0.41800000000E+01 0.  1.
         -5    1    3    3    0  502 -0.14894980614E+02  0.93338993882E+02 -0.15942027868E+02  0.95946072765E+02  0.41800000000E+01 0.  1.
        -11    1    1    2    0    0  0.90312005806E+01 -0.12415293360E+02 -0.88720365138E+00  0.15378206120E+02  0.00000000000E+00 0.  1.
         11    1    1    2    0    0  0.15284968197E+02 -0.51513157039E+02  0.28885760088E+03  0.29381277914E+03  0.00000000000E+00 0. -1.
</event>
<event>
 7    1  0.2943257E-009  0.8515328E+02  0.7561462E-02  0.1315032E+00
          2   -1    0    0  501    0  0.00000000000E+00  0.00000000000E+00  0.18001102808E+02  0.18001102808E+02  0.00000000000E+00 0. -1.
         -2   -1    0    0    0  501 -0.00000000000E+00 -0.00000000000E+00 -0.59617055344E+03  0.59617055344E+03  0.00000000000E+00 0.  1.
         25    2    1    2    0    0 -0.52636265163E+01  0.18300330776E+02 -0.36044527431E+03  0.38200909315E+03  0.12509014192E+03 0.  0.
          5    1    3    3  502    0 -0.49148025712E+02  0.13824296463E+02 -0.31271173288E+03  0.31687969308E+03  0.41800000000E+01 0.  1.
         -5    1    3    3    0  502  0.43884399196E+02  0.44760343125E+01 -0.47733541428E+02  0.65129400068E+02  0.41800000000E+01 0.  1.
        -11    1    1    2    0    0  0.20352070728E+02 -0.42002534926E+02 -0.89978800601E+02  0.10136372271E+03  0.00000000000E+00 0. -1.
         11    1    1    2    0    0 -0.15088444212E+02  0.23702204150E+02 -0.12774537572E+03  0.13079884039E+03  0.00000000000E+00 0.  1.
</event>
<event>
 7    1  0.2943257E-009  0.1267850E+03  0.7561462E-02  0.1232306E+00
          2   -1    0    0  501    0  0.00000000000E+00  0.00000000000E+00  0.20337817547E+03  0.20337817547E+03  0.00000000000E+00 0. -1.
         -2   -1    0    0    0  501 -0.00000000000E+00 -0.00000000000E+00 -0.13997983505E+03  0.13997983505E+03  0.00000000000E+00 0.  1.
         25    2    1    2    0    0  0.70894567046E+02  0.64149034394E+02 -0.54330671850E+02  0.16654519732E+03  0.12507734646E+03 0.  0.
          5    1    3    3  502    0  0.34698367450E+02  0.99820170775E+02 -0.29318286034E+02  0.10975006831E+03  0.41800000000E+01 0. -1.
         -5    1    3    3    0  502  0.36196199596E+02 -0.35671136382E+02 -0.25012385817E+02  0.56795129018E+02  0.41800000000E+01 0. -1.
        -11    1    1    2    0    0 -0.24075885158E+02 -0.31905067158E+02  0.11289296199E+03  0.11975976964E+03  0.00000000000E+00 0. -1.
         11    1    1    2    0    0 -0.46818681889E+02 -0.32243967236E+02  0.48360502761E+01  0.57053043558E+02  0.00000000000E+00 0.  1.
</event>
<event>
 7    1  0.2943257E-009  0.1262548E+03  0.7561462E-02  0.1233121E+00
          1   -1    0    0  501    0  0.00000000000E+00  0.00000000000E+00  0.81373503002E+02  0.81373503002E+02  0.00000000000E+00 0. -1.
         -1   -1    0    0    0  501 -0.00000000000E+00 -0.00000000000E+00 -0.23876431868E+03  0.23876431868E+03  0.00000000000E+00 0.  1.
         25    2    1    2    0    0  0.43383308204E+02  0.67290776343E+02 -0.42680323091E+02  0.15452891845E+03  0.12508963445E+03 0.  0.
          5    1    3    3  502    0 -0.31500214280E+02 -0.22950075109E+01  0.16973441930E+02  0.36098485981E+02  0.41800000000E+01 0. -1.
         -5    1    3    3    0  502  0.74883522484E+02  0.69585783853E+02 -0.59653765022E+02  0.11843043247E+03  0.41800000000E+01 0. -1.
        -11    1    1    2    0    0 -0.36771372515E+02 -0.88654394466E+02 -0.83518677858E+02  0.12722855436E+03  0.00000000000E+00 0. -1.
         11    1    1    2    0    0 -0.66119356895E+01  0.21363618123E+02 -0.31191814734E+02  0.38380348869E+02  0.00000000000E+00 0.  1.
</event>
<event>
 7    1  0.2943257E-009  0.1385183E+03  0.7561462E-02  0.1215337E+00
         -1   -1    0    0    0  501 -0.00000000000E+00  0.00000000000E+00  0.61810202717E+02  0.61810202717E+02  0.00000000000E+00 0.  1.
          1   -1    0    0  501    0  0.00000000000E+00 -0.00000000000E+00 -0.43039887066E+03  0.43039887066E+03  0.00000000000E+00 0. -1.
         25    2    1    2    0    0  0.55029184779E+02  0.10300236602E+03 -0.14477252947E+03  0.22415231932E+03  0.12508988123E+03 0.  0.
          5    1    3    3  502    0  0.69260787756E+02  0.20939008879E+02 -0.11434815125E+03  0.13538268319E+03  0.41800000000E+01 0. -1.
         -5    1    3    3    0  502 -0.14231602977E+02  0.82063357145E+02 -0.30424378221E+02  0.88769636134E+02  0.41800000000E+01 0. -1.
        -11    1    1    2    0    0 -0.22827459384E+02 -0.14639030120E+02 -0.20773225705E+01  0.27197598678E+02  0.00000000000E+00 0.  1.
         11    1    1    2    0    0 -0.32201725395E+02 -0.88363335904E+02 -0.22173881590E+03  0.24085915537E+03  0.00000000000E+00 0. -1.
</event>
<event>
 7    1  0.2943257E-009  0.1011296E+03  0.7561462E-02  0.1277938E+00
         -3   -1    0    0    0  501 -0.00000000000E+00  0.00000000000E+00  0.28647770848E+03  0.28647770848E+03  0.00000000000E+00 0.  1.
          3   -1    0    0  501    0  0.00000000000E+00 -0.00000000000E+00 -0.46919767188E+02  0.46919767188E+02  0.00000000000E+00 0. -1.
         25    2    1    2    0    0  0.34826851069E+02  0.13541340179E+02  0.10504085174E+03  0.16756208159E+03  0.12508874132E+03 0.  0.
          5    1    3    3  502    0  0.30532144498E+02  0.56570867541E+02  0.10607579515E+03  0.12410488153E+03  0.41800000000E+01 0. -1.
         -5    1    3    3    0  502  0.42947065711E+01 -0.43029527362E+02 -0.10349434164E+01  0.43457200064E+02  0.41800000000E+01 0. -1.
        -11    1    1    2    0    0  0.26995070433E+02  0.92039169101E+01  0.24472102019E+02  0.37580975126E+02  0.00000000000E+00 0. -1.
         11    1    1    2    0    0 -0.61821921502E+02 -0.22745257090E+02  0.11004498754E+03  0.12825441895E+03  0.00000000000E+00 0.  1.
</event>
<event>
 7    1  0.2943257E-009  0.1791099E+03  0.7561462E-02  0.1168667E+00
          2   -1    0    0  501    0  0.00000000000E+00  0.00000000000E+00  0.16738131273E+04  0.16738131273E+04  0.00000000000E+00 0. -1.
         -2   -1    0    0    0  501 -0.00000000000E+00 -0.00000000000E+00 -0.24250150667E+02  0.24250150667E+02  0.00000000000E+00 0.  1.
         25    2    1    2    0    0  0.56232261824E+02 -0.14774493866E+03  0.11717953251E+04  0.11890089930E+04  0.12508983645E+03 0.  0.
          5    1    3    3  502    0  0.83577140543E+02 -0.14743504072E+03  0.10769514675E+04  0.10902128991E+04  0.41800000000E+01 0.  1.
         -5    1    3    3    0  502 -0.27344878719E+02 -0.30989793713E+00  0.94843857597E+02  0.98796093813E+02  0.41800000000E+01 0.  1.
        -11    1    1    2    0    0 -0.36209794750E+02  0.52988666429E+02  0.29826186607E+03  0.30508865721E+03  0.00000000000E+00 0. -1.
         11    1    1    2    0    0 -0.20022467074E+02  0.94756272233E+02  0.17950578539E+03  0.20396562775E+03  0.00000000000E+00 0.  1.
</event>
<event>
 7    1  0.2943257E-009  0.1249252E+03  0.7561462E-02  0.1235186E+00
         -3   -1    0    0    0  501 -0.00000000000E+00  0.00000000000E+00  0.87463053616E+02  0.87463053616E+02  0.00000000000E+00 0.  1.
          3   -1    0    0  501    0  0.00000000000E+00 -0.00000000000E+00 -0.27317355765E+03  0.27317355765E+03  0.00000000000E+00 0. -1.
         25    2    1    2    0    0 -0.70517014375E+02  0.62212811656E+02 -0.16614600218E+03  0.22823999162E+03  0.12508363795E+03 0.  0.
          5    1    3    3  502    0 -0.40970705488E+02 -0.11585416263E+02  0.13362990307E+01  0.42802788148E+02  0.41800000000E+01 0. -1.
         -5    1    3    3    0  502 -0.29546308888E+02  0.73798227919E+02 -0.16748230121E+03  0.18543720347E+03  0.41800000000E+01 0. -1.
        -11    1    1    2    0    0 -0.14395712318E+02 -0.35726635720E+02 -0.20100780687E+02  0.43447329230E+02  0.00000000000E+00 0. -1.
         11    1    1    2    0    0  0.84912726693E+02 -0.26486175936E+02  0.53627883478E+00  0.88949290414E+02  0.00000000000E+00 0.  1.
</event>
<event>
 6    1  0.2943257E-009  0.1682385E+03  0.7561462E-02  0.1179697E+00
          1   -1    0    0  501    0  0.00000000000E+00  0.00000000000E+00  0.46452570254E+03  0.46452570254E+03  0.00000000000E+00 0. -1.
         -1   -1    0    0    0  501 -0.00000000000E+00 -0.00000000000E+00 -0.94199468452E+02  0.94199468452E+02  0.00000000000E+00 0.  1.
          5    1    1    2  502    0 -0.10783376170E+02  0.29148656787E+02 -0.70468671638E+01  0.32141190565E+02  0.41800000000E+01 0. -1.
         -5    1    1    2    0  502 -0.91264967161E+02 -0.11827433185E+03  0.44811968628E+02  0.15602466708E+03  0.41800000000E+01 0. -1.
        -11    1    1    2    0    0  0.11047526110E+03  0.60772020440E+02  0.21417293555E+03  0.24853182514E+03  0.00000000000E+00 0. -1.
         11    1    1    2    0    0 -0.84269177643E+01  0.28353654620E+02  0.11838819707E+03  0.12202748821E+03  0.00000000000E+00 0.  1.
</event>
<event>
 7    1  0.2943257E-009  0.1595834E+03  0.7561462E-02  0.1189168E+00
         -2   -1    0    0    0  501 -0.00000000000E+00  0.00000000000E+00  0.16566066045E+03  0.16566066045E+03  0.00000000000E+00 0.  1.
          2   -1    0    0  501    0  0.00000000000E+00 -0.00000000000E+00 -0.17790529661E+03  0.17790529661E+03  0.00000000000E+00 0. -1.
         25    2    1    2    0    0 -0.10253187328E+02 -0.12109868599E+03 -0.58427982877E+02  0.18393447204E+03  0.12509213093E+03 0.  0.
          5    1    3    3  502    0 -0.10648326136E+02 -0.14689574893E+03 -0.42584933648E+02  0.15337110835E+03  0.41800000000E+01 0.  1.
         -5    1    3    3    0  502  0.39513880798E+00  0.25797062937E+02 -0.15843049230E+02  0.30563363685E+02  0.41800000000E+01 0.  1.
        -11    1    1    2    0    0 -0.31553495119E+02  0.84238247865E+02  0.51482297614E+02  0.10364425901E+03  0.00000000000E+00 0. -1.
         11    1    1    2    0    0  0.41806682447E+02  0.36860438130E+02 -0.52989509032E+01  0.55987226017E+02  0.00000000000E+00 0.  1.
</event>
<event>
 7    1  0.2943257E-009  0.1133080E+03  0.7561462E-02  0.1254564E+00
          1   -1    0    0  501    0  0.00000000000E+00  0.00000000000E+00  0.26953381595E+03  0.26953381595E+03  0.00000000000E+00 0. -1.
         -1   -1    0    0    0  501 -0.00000000000E+00 -0.00000000000E+00 -0.68141941378E+02  0.68141941378E+02  0.00000000000E+00 0.  1.
         25    2    1    2    0    0 -0.37575312084E+02  0.31409669529E+02  0.19063592693E+03  0.23321187881E+03  0.12508897778E+03 0.  0.
          5    1    3    3  502    0 -0.10793176603E+02  0.78817351098E+02  0.10961189820E+03  0.13550242847E+03  0.41800000000E+01 0.  1.
         -5    1    3    3    0  502 -0.26782135481E+02 -0.47407681569E+02  0.81024028735E+02  0.97709450337E+02  0.41800000000E+01 0.  1.
        -11    1    1    2    0    0 -0.13428918429E+02 -0.38568284750E+02 -0.18934055174E+02  0.45014962891E+02  0.00000000000E+00 0.  1.
         11    1    1    2    0    0  0.51004230514E+02  0.71586152205E+01  0.29690002813E+02  0.59448915626E+02  0.00000000000E+00 0. -1.
</event>
<event>
 7    1  0.2943257E-009  0.9958289E+02  0.7561462E-02  0.1281176E+00
         -3   -1    0    0    0  501 -0.00000000000E+00  0.00000000000E+00  0.15321314513E+03  0.15321314513E+03  0.00000000000E+00 0.  1.
          3   -1    0    0  501    0  0.00000000000E+00 -0.00000000000E+00 -0.91692445890E+02  0.91692445890E+02  0.00000000000E+00 0. -1.
         25    2    1    2    0    0  0.10759758353E+02  0.34036650899E+02  0.24322004347E+02  0.13233966036E+03  0.12509180551E+03 0.  0.
          5    1    3    3  502    0  0.24648590880E+02 -0.32065765851E+02 -0.25773657083E+02  0.48140629113E+02  0.41800000000E+01 0.  1.
         -5    1    3    3    0  502 -0.13888832527E+02  0.66102416750E+02  0.50095661430E+02  0.84199031249E+02  0.41800000000E+01 0.  1.
        -11    1    1    2    0    0  0.26631981111E+02 -0.44625850862E+02  0.49533204053E+02  0.71793225912E+02  0.00000000000E+00 0.  1.
         11    1    1    2    0    0 -0.37391739463E+02  0.10589199963E+02 -0.12334509162E+02  0.40772704745E+02  0.00000000000E+00 0. -1.
</event>
<event>
 7    1  0.2943257E-009  0.1440649E+03  0.7561462E-02  0.1207962E+00
          1   -1    0    0  501    0  0.00000000000E+00  0.00000000000E+00  0.17377512429E+03  0.17377512429E+03  0.00000000000E+00 0. -1.
         -1   -1    0    0    0  501 -0.00000000000E+00 -0.00000000000E+00 -0.14550682973E+03  0.14550682973E+03  0.00000000000E+00 0.  1.
         25    2    1    2    0    0 -0.11535339264E+03  0.22821688440E+02  0.22887040713E+02  0.17321158314E+03  0.12510476107E+03 0.  0.
          5    1    3    3  502    0  0.22082053047E+02 -0.15216281843E+02  0.13305251127E+02  0.30226716782E+02  0.41800000000E+01 0.  1.
         -5    1    3    3    0  502 -0.13743544569E+03  0.38037970283E+02  0.95817895863E+01  0.14298486636E+03  0.41800000000E+01 0.  1.
        -11    1    1    2    0    0  0.61140937774E+02 -0.18791357092E+02  0.45509992392E+02  0.78501520882E+02  0.00000000000E+00 0.  1.
         11    1    1    2    0    0  0.54212454871E+02 -0.40303313485E+01 -0.40128738543E+02  0.67568850005E+02  0.00000000000E+00 0. -1.
</event>
<event>
 7    1  0.2943257E-009  0.1620112E+03  0.7561462E-02  0.1186445E+00
          2   -1    0    0  501    0  0.00000000000E+00  0.00000000000E+00  0.10802211826E+04  0.10802211826E+04  0.00000000000E+00 0. -1.
         -2   -1    0    0    0  501 -0.00000000000E+00 -0.00000000000E+00 -0.29565183050E+02  0.29565183050E+02  0.00000000000E+00 0.  1.
         25    2    1    2    0    0 -0.10387146857E+03  0.96427732447E+02  0.53298385527E+03  0.56551558523E+03  0.12509395505E+03 0.  0.
          5    1    3    3  502    0 -0.22883390641E+02 -0.10800892353E+02  0.13632358338E+02  0.29045179234E+02  0.41800000000E+01 0. -1.
         -5    1    3    3    0  502 -0.80988077932E+02  0.10722862480E+03  0.51935149693E+03  0.53647040599E+03  0.41800000000E+01 0. -1.
        -11    1    1    2    0    0  0.39059443695E+02 -0.90839776912E+02  0.36840253445E+03  0.38144191249E+03  0.00000000000E+00 0. -1.
         11    1    1    2    0    0  0.64812024878E+02 -0.55879555348E+01  0.14926960987E+03  0.16282886798E+03  0.00000000000E+00 0.  1.
</event>
<event>
 7    1  0.2943257E-009  0.2145885E+03  0.7561462E-02  0.1137983E+00
         -1   -1    0    0    0  501 -0.00000000000E+00  0.00000000000E+00  0.83505677445E+02  0.83505677445E+02  0.00000000000E+00 0.  1.
          1   -1    0    0  501    0  0.00000000000E+00 -0.00000000000E+00 -0.63320075622E+03  0.63320075622E+03  0.00000000000E+00 0. -1.
         25    2    1    2    0    0 -0.36994330481E+02 -0.19020074124E+03 -0.37391542454E+03  0.43932395032E+03  0.12509151114E+03 0.  0.
          5    1    3    3  502    0 -0.67239222674E+02 -0.15117878260E+03 -0.34320967718E+03  0.38103345297E+03  0.41800000000E+01 0.  1.
         -5    1    3    3    0  502  0.30244892194E+02 -0.39021958638E+02 -0.30705747355E+02  0.58290497342E+02  0.41800000000E+01 0.  1.
        -11    1    1    2    0    0  0.64599671034E+02  0.16313333985E+03 -0.15076271306E+03  0.23133309257E+03  0.00000000000E+00 0. -1.
         11    1    1    2    0    0 -0.27605340553E+02  0.27067401391E+02 -0.25016941179E+02  0.46049390779E+02  0.00000000000E+00 0.  1.
</event>
<event>
 7    1  0.2943257E-009  0.8004369E+02  0.7561462E-02  0.1328927E+00
         -1   -1    0    0    0  501 -0.00000000000E+00  0.00000000000E+00  0.61784636860E+02  0.61784636860E+02  0.00000000000E+00 0.  1.
          1   -1    0    0  501    0  0.00000000000E+00 -0.00000000000E+00 -0.23971728096E+03  0.23971728096E+03  0.00000000000E+00 0. -1.
         25    2    1    2    0    0  0.50283010469E+02 -0.34165498606E+01 -0.10705805276E+03  0.17218653939E+03  0.12508686475E+03 0.  0.
          5    1    3    3  502    0  0.49456282914E+02  0.41222763981E+01  0.13274947523E+02  0.51542348744E+02  0.41800000000E+01 0. -1.
         -5    1    3    3    0  502  0.82672755494E+00 -0.75388262587E+01 -0.12033300029E+03  0.12064419065E+03  0.41800000000E+01 0. -1.
        -11    1    1    2    0    0 -0.45403321903E+02 -0.38436270182E+02 -0.18924947868E+02  0.62425653038E+02  0.00000000000E+00 0.  1.
         11    1    1    2    0    0 -0.48796885656E+01  0.41852820043E+02 -0.51949643470E+02  0.66889725390E+02  0.00000000000E+00 0. -1.
</event>
<event>
 7    1  0.2943257E-009  0.1099524E+03  0.7561462E-02  0.1260658E+00
         -1   -1    0    0    0  501 -0.00000000000E+00  0.00000000000E+00  0.68941493243E+02  0.68941493243E+02  0.00000000000E+00 0.  1.
          1   -1    0    0  501    0  0.00000000000E+00 -0.00000000000E+00 -0.22462145988E+03  0.22462145988E+03  0.00000000000E+00 0. -1.
         25    2    1    2    0    0 -0.47839988190E+02  0.54764672439E+01 -0.12705624882E+03  0.18468560891E+03  0.12508727998E+03 0.  0.
          5    1    3    3  502    0 -0.35622412294E+02  0.62141136110E+02 -0.92521044582E+02  0.11708156621E+03  0.41800000000E+01 0.  1.
         -5    1    3    3    0  502 -0.12217575897E+02 -0.56664668866E+02 -0.34535204239E+02  0.67604042707E+02  0.41800000000E+01 0.  1.
        -11    1    1    2    0    0 -0.71342399996E+01  0.25814656554E+02  0.16245099205E+02  0.31324066172E+02  0.00000000000E+00 0.  1.
         11    1    1    2    0    0  0.54974228190E+02 -0.31291123798E+02 -0.44868817022E+02  0.77553278039E+02  0.00000000000E+00 0. -1.
</event>
<event>
 7    1  0.2943257E-009  0.1259739E+03  0.7561462E-02  0.1233555E+00
          1   -1    0    0  501    0  0.00000000000E+00  0.00000000000E+00  0.31663002867E+03  0.31663002867E+03  0.00000000000E+00 0. -1.
         -1   -1    0    0    0  501 -0.00000000000E+00 -0.00000000000E+00 -0.70954849554E+02  0.70954849554E+02  0.00000000000E+00 0.  1.
         25    2    1    2    0    0 -0.65244602544E+02 -0.22304960483E+02  0.23194644696E+03  0.27240125031E+03  0.12509563339E+03 0.  0.
          5    1    3    3  502    0 -0.13433586042E+02 -0.67364724524E+02  0.79473954186E+02  0.10512872651E+03  0.41800000000E+01 0. -1.
         -5    1    3    3    0  502 -0.51811016502E+02  0.45059764041E+02  0.15247249277E+03  0.16727252380E+03  0.41800000000E+01 0. -1.
        -11    1    1    2    0    0  0.43879995138E+02 -0.33095212557E+02  0.77840948917E+01  0.55509811753E+02  0.00000000000E+00 0. -1.
         11    1    1    2    0    0  0.21364607406E+02  0.55400173040E+02  0.59446372638E+01  0.59673816157E+02  0.00000000000E+00 0.  1.
</event>
<event>
 7    1  0.2943257E-009  0.1909823E+03  0.7561462E-02  0.1157578E+00
         -2   -1    0    0    0  501 -0.00000000000E+00  0.00000000000E+00  0.41195021567E+02  0.41195021567E+02  0.00000000000E+00 0.  1.
          2   -1    0    0  501    0  0.00000000000E+00 -0.00000000000E+00 -0.90583391526E+03  0.90583391526E+03  0.00000000000E+00 0. -1.
         25    2    1    2    0    0  0.13657645151E+03 -0.82467315935E+02 -0.43457985944E+03  0.47954195650E+03  0.12508736350E+03 0.  0.
          5    1    3    3  502    0  0.96367543040E+02 -0.11276159511E+03 -0.36081689289E+03  0.39013867185E+03  0.41800000000E+01 0. -1.
         -5    1    3    3    0  502  0.40208908471E+02  0.30294279170E+02 -0.73762966549E+02  0.89403284643E+02  0.41800000000E+01 0. -1.
        -11    1    1    2    0    0 -0.42180129203E+02 -0.17409643367E+02 -0.97416670174E+02  0.10757447006E+03  0.00000000000E+00 0. -1.
         11    1    1    2    0    0 -0.94396322308E+02  0.99876959303E+02 -0.33264236408E+03  0.35991251027E+03  0.00000000000E+00 0.  1.
</event>
<event>
 7    1  0.2943257E-009  0.9893835E+02  0.7561462E-02  0.1282544E+00
          2   -1    0    0  501    0  0.00000000000E+00  0.00000000000E+00  0.15325598382E+04  0.15325598382E+04  0.00000000000E+00 0. -1.
         -2   -1    0    0    0  501 -0.00000000000E+00 -0.00000000000E+00 -0.10302064347E+02  0.10302064347E+02  0.00000000000E+00 0.  1.
         25    2    1    2    0    0  0.26568436492E+02  0.24437009855E+02  0.11646321599E+04  0.11718869917E+04  0.12509198250E+03 0.  0.
          5    1    3    3  502    0  0.63568281918E+02  0.14027915161E+02  0.33143829662E+03  0.33779657449E+03  0.41800000000E+01 0. -1.
         -5    1    3    3    0  502 -0.36999845426E+02  0.10409094694E+02  0.83319386330E+03  0.83409041719E+03  0.41800000000E+01 0. -1.
        -11    1    1    2    0    0 -0.42392573459E+02  0.19954818678E+02  0.23456433769E+03  0.23919814713E+03  0.00000000000E+00 0. -1.
         11    1    1    2    0    0  0.15824136967E+02 -0.44391828533E+02  0.12306127626E+03  0.13177676376E+03  0.00000000000E+00 0.  1.
</event>
<event>
 7    1  0.2943257E-009  0.1059369E+03  0.7561462E-02  0.1268285E+00
         -1   -1    0    0    0  501 -0.00000000000E+00  0.00000000000E+00  0.42252278843E+03  0.42252278843E+03  0.00000000000E+00 0.  1.
          1   -1    0    0  501    0  0.00000000000E+00 -0.00000000000E+00 -0.31676669880E+02  0.31676669880E+02  0.00000000000E+00 0. -1.
         25    2    1    2    0    0 -0.10766217107E+02 -0.72878113602E+01  0.14551845746E+03  0.19233396167E+03  0.12509079792E+03 0.  0.
          5    1    3    3  502    0  0.45145207025E+02 -0.38171443499E+02  0.89084454639E+02  0.10699841716E+03  0.41800000000E+01 0.  1.
         -5    1    3    3    0  502 -0.55911424132E+02  0.30883632139E+02  0.56434002820E+02  0.85335544510E+02  0.41800000000E+01 0.  1.
        -11    1    1    2    0    0  0.32952059566E+02  0.38262039199E+02  0.17159882731E+03  0.17887419995E+03  0.00000000000E+00 0.  1.
         11    1    1    2    0    0 -0.22185842459E+02 -0.30974227839E+02  0.73728833777E+02  0.82991296688E+02  0.00000000000E+00 0. -1.
</event>
<event>
 7    1  0.2943257E-009  0.2128321E+03  0.7561462E-02  0.1139343E+00
          2   -1    0    0  501    0  0.00000000000E+00  0.00000000000E+00  0.40007944748E+03  0.40007944748E+03  0.00000000000E+00 0. -1.
         -2   -1    0    0    0  501 -0.00000000000E+00 -0.00000000000E+00 -0.12349943097E+03  0.12349943097E+03  0.00000000000E+00 0.  1.
         25    2    1    2    0    0  0.10141473549E+03  0.16211504059E+03  0.10844819498E+03  0.25292974064E+03  0.12508480222E+03 0.  0.
          5    1    3    3  502    0  0.94486069081E+02  0.17649287120E+03  0.71767909303E+02  0.21270979300E+03  0.41800000000E+01 0.  1.
         -5    1    3    3    0  502  0.69286664139E+01 -0.14377830603E+02  0.36680285673E+02  0.40219947640E+02  0.41800000000E+01 0.  1.
        -11    1    1    2    0    0 -0.44174351178E+02 -0.14126274828E+03  0.13929815678E+03  0.20324988029E+03  0.00000000000E+00 0.  1.
         11    1    1    2    0    0 -0.57240384317E+02 -0.20852292312E+02  0.28833664747E+02  0.67399257519E+02  0.00000000000E+00 0. -1.
</event>
<event>
 7    1  0.2943257E-009  0.1236939E+03  0.7561462E-02  0.1237125E+00
         -1   -1    0    0    0  501 -0.00000000000E+00  0.00000000000E+00  0.50719231945E+02  0.50719231945E+02  0.00000000000E+00 0.  1.
          1   -1    0    0  501    0  0.00000000000E+00 -0.00000000000E+00 -0.35706387324E+03  0.35706387324E+03  0.00000000000E+00 0. -1.
         25    2    1    2    0    0 -0.74306023188E+02  0.32581191176E+02 -0.16233325995E+03  0.22042611492E+03  0.12511061406E+03 0.  0.
          5    1    3    3  502    0 -0.10752665614E+03  0.36702188424E+02 -0.11024831393E+03  0.15837043771E+03  0.41800000000E+01 0.  1.
         -5    1    3    3    0  502  0.33220632949E+02 -0.41209972482E+01 -0.52084946024E+02  0.62055677212E+02  0.41800000000E+01 0.  1.
        -11    1    1    2    0    0  0.76528843700E+02 -0.98983007032E+01 -0.53196229947E+02  0.93725552308E+02  0.00000000000E+00 0.  1.
         11    1    1    2    0    0 -0.22228205120E+01 -0.22682890473E+02 -0.90815151401E+02  0.93631437964E+02  0.00000000000E+00 0. -1.
</event>
<event>
 7    1  0.2943257E-009  0.2368386E+03  0.7561462E-02  0.1121917E+00
          1   -1    0    0  501    0  0.00000000000E+00  0.00000000000E+00  0.54053541061E+03  0.54053541061E+03  0.00000000000E+00 0. -1.
         -1   -1    0    0    0  501 -0.00000000000E+00 -0.00000000000E+00 -0.17357593572E+03  0.17357593572E+03  0.00000000000E+00 0.  1.
         25    2    1    2    0    0  0.21493524009E+03  0.69887884409E+02 -0.18059646590E+02  0.25895180854E+03  0.12509362290E+03 0.  0.
          5    1    3    3  502    0  0.11908023990E+03  0.90320767339E+02  0.25398058840E+02  0.15165908591E+03  0.41800000000E+01 0. -1.
         -5    1    3    3    0  502  0.95855000198E+02 -0.20432882930E+02 -0.43457705430E+02  0.10729272263E+03  0.41800000000E+01 0. -1.
        -11    1    1    2    0    0 -0.48960560191E+02 -0.18027735805E+02  0.17438430168E+03  0.18202203269E+03  0.00000000000E+00 0. -1.
         11    1    1    2    0    0 -0.16597467990E+03 -0.51860148604E+02  0.21063481980E+03  0.27313750511E+03  0.00000000000E+00 0.  1.
</event>
<event>
 7    1  0.2943257E-009  0.1120047E+03  0.7561462E-02  0.1256902E+00
         -2   -1    0    0    0  501 -0.00000000000E+00  0.00000000000E+00  0.72211533009E+03  0.72211533009E+03  0.00000000000E+00 0.  1.
          2   -1    0    0  501    0  0.00000000000E+00 -0.00000000000E+00 -0.33786534940E+02  0.33786534940E+02  0.00000000000E+00 0. -1.
         25    2    1    2    0    0  0.99592117620E+02 -0.37077941426E+02  0.43665668644E+03  0.46648703665E+03  0.12509088663E+03 0.  0.
          5    1    3    3  502    0  0.22683320258E+02 -0.22452172938E+02  0.11529036725E+02  0.34190995530E+02  0.41800000000E+01 0. -1.
         -5    1    3    3    0  502  0.76908797362E+02 -0.14625768488E+02  0.42512764972E+03  0.43229604112E+03  0.41800000000E+01 0. -1.
        -11    1    1    2    0    0 -0.62607269122E+02  0.22926627368E+01  0.22186140806E+03  0.23053722224E+03  0.00000000000E+00 0.  1.
         11    1    1    2    0    0 -0.36984848498E+02  0.34785278689E+02  0.29810700645E+02  0.58877606141E+02  0.00000000000E+00 0. -1.
</event>
<event>
 7    1  0.2943257E-009  0.1733754E+03  0.7561462E-02  0.1174373E+00
          1   -1    0    0  501    0  0.00000000000E+00  0.00000000000E+00  0.78731833099E+03  0.78731833099E+03  0.00000000000E+00 0. -1.
         -1   -1    0    0    0  501 -0.00000000000E+00 -0.00000000000E+00 -0.10181214579E+03  0.10181214579E+03  0.00000000000E+00 0.  1.
         25    2    1    2    0    0 -0.13830494658E+03 -0.99425663436E+02  0.66244395005E+03  0.69533440937E+03  0.12507690872E+03 0.  0.
          5    1    3    3  502    0 -0.11491886276E+03 -0.88000579106E+02  0.31271856708E+03  0.34461691998E+03  0.41800000000E+01 0.  1.
         -5    1    3    3    0  502 -0.23386083818E+02 -0.11425084330E+02  0.34972538297E+03  0.35071748938E+03  0.41800000000E+01 0.  1.
        -11    1    1    2    0    0  0.30180050430E+02  0.45913240613E+02 -0.29313811370E+02  0.62274879723E+02  0.00000000000E+00 0.  1.
         11    1    1    2    0    0  0.10812489615E+03  0.53512422824E+02  0.52376046519E+02  0.13152118769E+03  0.00000000000E+00 0. -1.
</event>
<event>
 7    1  0.2943257E-009  0.1850611E+03  0.7561462E-02  0.1162993E+00
         -1   -1    0    0    0  501 -0.00000000000E+00  0.00000000000E+00  0.41932296718E+02  0.41932296718E+02  0.00000000000E+00 0.  1.
          1   -1    0    0  501    0  0.00000000000E+00 -0.00000000000E+00 -0.16262949803E+04  0.16262949803E+04  0.00000000000E+00 0. -1.
         25    2    1    2    0    0  0.15831078958E+03 -0.55710091262E+02 -0.13486515664E+04  0.13648010274E+04  0.12511944883E+03 0.  0.
          5    1    3    3  502    0  0.75789191040E+02 -0.71614495031E+02 -0.10283502407E+04  0.10336316207E+04  0.41800000000E+01 0. -1.
         -5    1    3    3    0  502  0.82521598541E+02  0.15904403769E+02 -0.32030132571E+03  0.33116940670E+03  0.41800000000E+01 0. -1.
        -11    1    1    2    0    0 -0.12376385271E+03  0.72261672613E+02 -0.21878630133E+03  0.26154671899E+03  0.00000000000E+00 0.  1.
         11    1    1    2    0    0 -0.34546936876E+02 -0.16551581351E+02 -0.16924815827E+02  0.41879530602E+02  0.00000000000E+00 0. -1.
</event>
<event>
 7    1  0.2943257E-009  0.1094258E+03  0.7561462E-02  0.1261637E+00
          2   -1    0    0  501    0  0.00000000000E+00  0.00000000000E+00  0.14299275062E+03  0.14299275062E+03  0.00000000000E+00 0. -1.
         -2   -1    0    0    0  501 -0.00000000000E+00 -0.00000000000E+00 -0.15590157656E+03  0.15590157656E+03  0.00000000000E+00 0.  1.
         25    2    1    2    0    0 -0.60551593276E+02 -0.81484318736E+02 -0.18239847006E+02  0.16213212195E+03  0.12509173954E+03 0.  0.
          5    1    3    3  502    0 -0.14396028876E+02 -0.67032528152E+02 -0.65116653569E+02  0.94648066277E+02  0.41800000000E+01 0. -1.
         -5    1    3    3    0  502 -0.46155564400E+02 -0.14451790584E+02  0.46876806563E+02  0.67484055670E+02  0.41800000000E+01 0. -1.
        -11    1    1    2    0    0  0.31774767227E+02  0.46486891826E+02 -0.42748569975E+02  0.70697292585E+02  0.00000000000E+00 0.  1.
         11    1    1    2    0    0  0.28776826049E+02  0.34997426910E+02  0.48079591049E+02  0.66064912648E+02  0.00000000000E+00 0. -1.
</event>
<event>
 7    1  0.2943257E-009  0.1063805E+03  0.7561462E-02  0.1267423E+00
         -3   -1    0    0    0  501 -0.00000000000E+00  0.00000000000E+00  0.74401579991E+02  0.74401579991E+02  0.00000000000E+00 0.  1.
          3   -1    0    0  501    0  0.00000000000E+00 -0.00000000000E+00 -0.17497470384E+03  0.17497470384E+03  0.00000000000E+00 0. -1.
         25    2    1    2    0    0 -0.11361751850E+02  0.29756030908E+02 -0.39618749360E+02  0.13502459351E+03  0.12508990675E+03 0.  0.
          5    1    3    3  502    0  0.55216332968E+02  0.12688335996E+02 -0.26523085331E+01  0.56871297131E+02  0.41800000000E+01 0. -1.
         -5    1    3    3    0  502 -0.66578084818E+02  0.17067694911E+02 -0.36966440827E+02  0.78153296380E+02  0.41800000000E+01 0. -1.
        -11    1    1    2    0    0  0.28543580731E+02  0.19737089283E+02 -0.49943458558E+02  0.60816426622E+02  0.00000000000E+00 0.  1.
         11    1    1    2    0    0 -0.17181828880E+02 -0.49493120190E+02 -0.11010915934E+02  0.53535263701E+02  0.00000000000E+00 0. -1.
</event>
<event>
 7    1  0.2943257E-009  0.9380771E+02  0.7561462E-02  0.1293884E+00
          2   -1    0    0  501    0  0.00000000000E+00  0.00000000000E+00  0.11674180307E+04  0.11674180307E+04  0.00000000000E+00 0. -1.
         -2   -1    0    0    0  501 -0.00000000000E+00 -0.00000000000E+00 -0.21728255878E+02  0.21728255878E+02  0.00000000000E+00 0.  1.
         25    2    1    2    0    0  0.13485788492E+02 -0.64416547027E+02  0.96489115972E+03  0.97518906582E+03  0.12508959174E+03 0.  0.
          5    1    3    3  502    0 -0.79952303346E+01 -0.49938630817E+01  0.77400045577E+03  0.77406914440E+03  0.41800000000E+01 0.  1.
         -5    1    3    3    0  502  0.21481018826E+02 -0.59422683946E+02  0.19089070395E+03  0.20111992141E+03  0.41800000000E+01 0.  1.
        -11    1    1    2    0    0  0.38551606385E+02  0.12638373621E+02  0.73429358530E+02  0.83891748919E+02  0.00000000000E+00 0. -1.
         11    1    1    2    0    0 -0.52037394877E+02  0.51778173406E+02  0.10736925654E+03  0.13006547181E+03  0.00000000000E+00 0.  1.
</event>
<event>
 7    1  0.2943257E-009  0.1105869E+03  0.7561462E-02  0.1259487E+00
          1   -1    0    0  501    0  0.00000000000E+00  0.00000000000E+00  0.41860743912E+03  0.41860743912E+03  0.00000000000E+00 0. -1.
         -1   -1    0    0    0  501 -0.00000000000E+00 -0.00000000000E+00 -0.33910804122E+02  0.33910804122E+02  0.00000000000E+00 0.  1.
         25    2    1    2    0    0  0.22307819615E+02  0.38304545983E+02  0.16633422970E+03  0.21279127643E+03  0.12509266283E+03 0.  0.
          5    1    3    3  502    0 -0.27324035425E+01  0.77254733584E+02  0.13831941301E+03  0.15851022776E+03  0.41800000000E+01 0.  1.
         -5    1    3    3    0  502  0.25040223158E+02 -0.38950187601E+02  0.28014816692E+02  0.54281048665E+02  0.41800000000E+01 0.  1.
        -11    1    1    2    0    0 -0.34304938802E+02  0.18659421011E+02  0.66912883773E+02  0.77474749651E+02  0.00000000000E+00 0.  1.
         11    1    1    2    0    0  0.11997119187E+02 -0.56963966995E+02  0.15144952152E+03  0.16225221716E+03  0.00000000000E+00 0. -1.
</event>
<event>
 7    1  0.2943257E-009  0.1139137E+03  0.7561462E-02  0.1253489E+00
          2   -1    0    0  501    0  0.00000000000E+00  0.00000000000E+00  0.23744554137E+02  0.23744554137E+02  0.00000000000E+00 0.  1.
         -2   -1    0    0    0  501 -0.00000000000E+00 -0.00000000000E+00 -0.62702152691E+03  0.62702152691E+03  0.00000000000E+00 0. -1.
         25    2    1    2    0    0  0.20149770361E+02  0.41460655793E+02 -0.29289598665E+03  0.32181331999E+03  0.12510297639E+03 0.  0.
          5    1    3    3  502    0  0.57180756468E+02  0.55828733065E+02 -0.11910556150E+03  0.14349248596E+03  0.41800000000E+01 0.  1.
         -5    1    3    3    0  502 -0.37030986107E+02 -0.14368077271E+02 -0.17379042514E+03  0.17832083403E+03  0.41800000000E+01 0.  1.
        -11    1    1    2    0    0 -0.19751899569E+02  0.30262657642E+02 -0.12708756948E+03  0.13212575942E+03  0.00000000000E+00 0.  1.
         11    1    1    2    0    0 -0.39787079236E+00 -0.71723313435E+02 -0.18329341665E+03  0.19682700165E+03  0.00000000000E+00 0. -1.
</event>
<event>
 7    1  0.2943257E-009  0.1462628E+03  0.7561462E-02  0.1205142E+00
         -2   -1    0    0    0  501 -0.00000000000E+00  0.00000000000E+00  0.43221368483E+02  0.43221368483E+02  0.00000000000E+00 0.  1.
          2   -1    0    0  501    0  0.00000000000E+00 -0.00000000000E+00 -0.63314986727E+03  0.63314986727E+03  0.00000000000E+00 0. -1.
         25    2    1    2    0    0 -0.71585985122E+02 -0.10210858609E+03 -0.30347883009E+03  0.35113930695E+03  0.12509474791E+03 0.  0.
          5    1    3    3  502    0 -0.38950221093E+02 -0.10993268875E+03 -0.29354130866E+03  0.31588967705E+03  0.41800000000E+01 0. -1.
         -5    1    3    3    0  502 -0.32635764029E+02  0.78241026608E+01 -0.99375214369E+01  0.35249629906E+02  0.41800000000E+01 0. -1.
        -11    1    1    2    0    0  0.83392183288E+02  0.73909540542E+02 -0.15894994848E+03  0.19411842401E+03  0.00000000000E+00 0.  1.
         11    1    1    2    0    0 -0.11806198166E+02  0.28199045544E+02 -0.12749972021E+03  0.13111350479E+03  0.00000000000E+00 0. -1.
</event>
<event>
 7    1  0.2943257E-009  0.1118621E+03  0.7561462E-02  0.1257160E+00
          2   -1    0    0  501    0  0.00000000000E+00  0.00000000000E+00  0.26934256809E+04  0.26934256809E+04  0.00000000000E+00 0. -1.
         -2   -1    0    0    0  501 -0.00000000000E+00 -0.00000000000E+00 -0.12637534720E+02  0.12637534720E+02  0.00000000000E+00 0.  1.
         25    2    1    2    0    0 -0.46282070444E+02 -0.58855933945E+02  0.23628036727E+04  0.23672967063E+04  0.12508576583E+03 0.  0.
          5    1    3    3  502    0  0.33398004137E+02 -0.13485300300E+02  0.13093298453E+04  0.13098318198E+04  0.41800000000E+01 0. -1.
         -5    1    3    3    0  502 -0.79680074581E+02 -0.45370633645E+02  0.10534738274E+04  0.10574648865E+04  0.41800000000E+01 0. -1.
        -11    1    1    2    0    0  0.39145296474E+02  0.28828424065E+01  0.23599328292E+03  0.23923522859E+03  0.00000000000E+00 0. -1.
         11    1    1    2    0    0  0.71367739698E+01  0.55973091539E+02  0.81991190571E+02  0.99531280763E+02  0.00000000000E+00 0.  1.
</event>
<event>
 7    1  0.2943257E-009  0.1223048E+03  0.7561462E-02  0.1239343E+00
         -2   -1    0    0    0  501 -0.00000000000E+00  0.00000000000E+00  0.32206899719E+02  0.32206899719E+02  0.00000000000E+00 0.  1.
          2   -1    0    0  501    0  0.00000000000E+00 -0.00000000000E+00 -0.59596838606E+03  0.59596838606E+03  0.00000000000E+00 0. -1.
         25    2    1    2    0    0  0.40035202232E+01  0.85709732556E+02 -0.27967238000E+03  0.31816038857E+03  0.12508879362E+03 0.  0.
          5    1    3    3  502    0 -0.35595579349E+02  0.97803959018E+02 -0.23530840773E+03  0.25733281722E+03  0.41800000000E+01 0.  1.
         -5    1    3    3    0  502  0.39599099572E+02 -0.12094226462E+02 -0.44363972265E+02  0.60827571345E+02  0.41800000000E+01 0.  1.
        -11    1    1    2    0    0  0.18913214086E+02 -0.65828134708E+02 -0.26603558213E+03  0.27471072776E+03  0.00000000000E+00 0. -1.
         11    1    1    2    0    0 -0.22916734309E+02 -0.19881597848E+02 -0.18053524214E+02  0.35304169455E+02  0.00000000000E+00 0.  1.
</event>
<event>
 7    1  0.2943257E-009  0.1042894E+03  0.7561462E-02  0.1271526E+00
         -1   -1    0    0    0  501 -0.00000000000E+00  0.00000000000E+00  0.28920167403E+02  0.28920167403E+02  0.00000000000E+00 0.  1.
          1   -1    0    0  501    0  0.00000000000E+00 -0.00000000000E+00 -0.73050416157E+03  0.73050416157E+03  0.00000000000E+00 0. -1.
         25    2    1    2    0    0  0.17340117485E+02 -0.89137295607E+02 -0.30149347139E+03  0.33880991375E+03  0.12509079592E+03 0.  0.
          5    1    3    3  502    0 -0.23089589005E+01  0.38662724481E+01 -0.19849091676E+03  0.19858599092E+03  0.41800000000E+01 0. -1.
         -5    1    3    3    0  502  0.19649076385E+02 -0.93003568055E+02 -0.10300255463E+03  0.14022392283E+03  0.41800000000E+01 0. -1.
        -11    1    1    2    0    0 -0.97695573551E+01  0.96341461581E+02 -0.39843494516E+03  0.41003356813E+03  0.00000000000E+00 0. -1.
         11    1    1    2    0    0 -0.75705601295E+01 -0.72041659742E+01 -0.16555776270E+01  0.10580847099E+02  0.00000000000E+00 0.  1.
</event>
<event>
 7    1  0.2943257E-009  0.1321622E+03  0.7561462E-02  0.1224282E+00
          1   -1    0    0  501    0  0.00000000000E+00  0.00000000000E+00  0.17759010916E+02  0.17759010916E+02  0.00000000000E+00 0.  1.
         -1   -1    0    0    0  501 -0.00000000000E+00 -0.00000000000E+00 -0.14181265515E+04  0.14181265515E+04  0.00000000000E+00 0. -1.
         25    2    1    2    0    0  0.18453389717E+02 -0.10538402243E+03 -0.96228208603E+03  0.97625862869E+03  0.12509107570E+03 0.  0.
          5    1    3    3  502    0  0.37691897250E+02 -0.31809323424E+02 -0.73275753801E+03  0.73442739198E+03  0.41800000000E+01 0.  1.
         -5    1    3    3    0  502 -0.19238507533E+02 -0.73574699008E+02 -0.22952454802E+03  0.24183123671E+03  0.41800000000E+01 0.  1.
        -11    1    1    2    0    0 -0.35846558352E+02  0.43105043388E+01 -0.99415482197E+02  0.10576858841E+03  0.00000000000E+00 0. -1.
         11    1    1    2    0    0  0.17393168635E+02  0.10107351809E+03 -0.33866997233E+03  0.35385834529E+03  0.00000000000E+00 0.  1.
</event>
<event>
 7    1  0.2943257E-009  0.8637892E+02  0.7561462E-02  0.1311865E+00
         -1   -1    0    0    0  501 -0.00000000000E+00  0.00000000000E+00  0.38763841076E+02  0.38763841076E+02  0.00000000000E+00 0.  1.
          1   -1    0    0  501    0  0.00000000000E+00 -0.00000000000E+00 -0.31279500649E+03  0.31279500649E+03  0.00000000000E+00 0. -1.
         25    2    1    2    0    0 -0.10665807579E+02  0.16445751329E+02 -0.17908999424E+03  0.21932902159E+03  0.12509105278E+03 0.  0.
          5    1    3    3  502    0  0.44387355634E+02  0.27195251319E+01 -0.17424330868E+02  0.47944894027E+02  0.41800000000E+01 0. -1.
         -5    1    3    3    0  502 -0.55053163213E+02  0.13726226198E+02 -0.16166566338E+03  0.17138412756E+03  0.41800000000E+01 0. -1.
        -11    1    1    2    0    0 -0.28250139702E+02 -0.15605672223E+02 -0.30299591327E+01  0.32415861103E+02  0.00000000000E+00 0.  1.
         11    1    1    2    0    0  0.38915947281E+02 -0.84007910604E+00 -0.91911212035E+02  0.99813964872E+02  0.00000000000E+00 0. -1.
</event>
<event>
 7    1  0.2943257E-009  0.1548955E+03  0.7561462E-02  0.1194583E+00
          2   -1    0    0  501    0  0.00000000000E+00  0.00000000000E+00  0.73284088217E+03  0.73284088217E+03  0.00000000000E+00 0.  1.
         -2   -1    0    0    0  501 -0.00000000000E+00 -0.00000000000E+00 -0.45716967385E+02  0.45716967385E+02  0.00000000000E+00 0. -1.
         25    2    1    2    0    0  0.45205548069E+02 -0.12753205649E+03  0.23951503257E+03  0.30219691003E+03  0.12509018585E+03 0.  0.
          5    1    3    3  502    0  0.26561492228E+02 -0.12534607254E+03  0.24951446583E+03  0.28052110763E+03  0.41800000000E+01 0. -1.
         -5    1    3    3    0  502  0.18644055841E+02 -0.21859839493E+01 -0.99994332577E+01  0.21675802395E+02  0.41800000000E+01 0. -1.
        -11    1    1    2    0    0  0.14003230476E+02  0.92524321607E+02  0.23705603115E+03  0.25485761212E+03  0.00000000000E+00 0.  1.
         11    1    1    2    0    0 -0.59208778545E+02  0.35007734885E+02  0.21055285107E+03  0.22150332740E+03  0.00000000000E+00 0. -1.
</event>
<event>
 7    1  0.2943257E-009  0.9577689E+02  0.7561462E-02  0.1289436E+00
          2   -1    0    0  501    0  0.00000000000E+00  0.00000000000E+00  0.10170357321E+04  0.10170357321E+04  0.00000000000E+00 0. -1.
         -2   -1    0    0    0  501 -0.00000000000E+00 -0.00000000000E+00 -0.33432736431E+02  0.33432736431E+02  0.00000000000E+00 0.  1.
         25    2    1    2    0    0  0.45838475544E+02 -0.27540000958E+02  0.90977659515E+03  0.91989184465E+03  0.12509170743E+03 0.  0.
          5    1    3    3  502    0  0.38604614090E+02  0.20664734418E+02  0.77936856607E+03  0.78060885318E+03  0.41800000000E+01 0.  1.
         -5    1    3    3    0  502  0.72338614541E+01 -0.48204735376E+02  0.13040802908E+03  0.13928299147E+03  0.41800000000E+01 0.  1.
        -11    1    1    2    0    0 -0.70263512373E+02  0.19294336022E+02  0.28121720412E+02  0.78102904763E+02  0.00000000000E+00 0.  1.
         11    1    1    2    0    0  0.24425036829E+02  0.82456649364E+01  0.45704680071E+02  0.52473719086E+02  0.00000000000E+00 0. -1.
</event>
<event>
 7    1  0.2943257E-009  0.1705598E+03  0.7561462E-02  0.1177265E+00
         -1   -1    0    0    0  501 -0.00000000000E+00  0.00000000000E+00  0.59373596134E+02  0.59373596134E+02  0.00000000000E+00 0.  1.
          1   -1    0    0  501    0  0.00000000000E+00 -0.00000000000E+00 -0.56112860648E+03  0.56112860648E+03  0.00000000000E+00 0. -1.
         25    2    1    2    0    0  0.99104301943E+02  0.10315344643E+03 -0.34014304182E+03  0.38962708251E+03  0.12509867447E+03 0.  0.
          5    1    3    3  502    0  0.88797818540E+02  0.13893906100E+02 -0.10740776706E+03  0.14011421780E+03  0.41800000000E+01 0.  1.
         -5    1    3    3    0  502  0.10306483404E+02  0.89259540332E+02 -0.23273527476E+03  0.24951286472E+03  0.41800000000E+01 0.  1.
        -11    1    1    2    0    0 -0.40464884967E+02 -0.93347795367E+02 -0.77613676625E+02  0.12796523205E+03  0.00000000000E+00 0.  1.
         11    1    1    2    0    0 -0.58639416976E+02 -0.98056510655E+01 -0.83998291903E+02  0.10290988805E+03  0.00000000000E+00 0. -1.
</event>
<event>
 7    1  0.2943257E-009  0.1112230E+03  0.7561462E-02  0.1258322E+00
         -1   -1    0    0    0  501 -0.00000000000E+00  0.00000000000E+00  0.22849546136E+02  0.22849546136E+02  0.00000000000E+00 0.  1.
          1   -1    0    0  501    0  0.00000000000E+00 -0.00000000000E+00 -0.19315597046E+04  0.19315597046E+04  0.00000000000E+00 0. -1.
         25    2    1    2    0    0  0.26197190618E+02  0.58089082246E+02 -0.17732939556E+04  0.17788419757E+04  0.12508671849E+03 0.  0.
          5    1    3    3  502    0  0.58923440772E+02  0.25180666002E+02 -0.43275151564E+03  0.43748986788E+03  0.41800000000E+01 0.  1.
         -5    1    3    3    0  502 -0.32726250154E+02  0.32908416244E+02 -0.13405424400E+04  0.13413521078E+04  0.41800000000E+01 0.  1.
        -11    1    1    2    0    0  0.11350885812E+02 -0.71019233156E+02 -0.90926274299E+02  0.11593171026E+03  0.00000000000E+00 0.  1.
         11    1    1    2    0    0 -0.37548076430E+02  0.12930150910E+02 -0.44489928557E+02  0.59635564801E+02  0.00000000000E+00 0. -1.
</event>
<event>
 7    1  0.2943257E-009  0.1927950E+03  0.7561462E-02  0.1155964E+00
          2   -1    0    0  501    0  0.00000000000E+00  0.00000000000E+00  0.36400523690E+03  0.36400523690E+03  0.00000000000E+00 0. -1.
         -2   -1    0    0    0  501 -0.00000000000E+00 -0.00000000000E+00 -0.11142483676E+03  0.11142483676E+03  0.00000000000E+00 0.  1.
         25    2    1    2    0    0 -0.30391982248E+02 -0.16082834174E+03  0.18195572310E+03  0.27485496697E+03  0.12509172478E+03 0.  0.
          5    1    3    3  502    0 -0.41336455828E+02 -0.47697592219E+01  0.73114635192E+02  0.84229896490E+02  0.41800000000E+01 0.  1.
         -5    1    3    3    0  502  0.10944473580E+02 -0.15605858252E+03  0.10884108790E+03  0.19062507048E+03  0.41800000000E+01 0.  1.
        -11    1    1    2    0    0  0.11851091479E+01  0.15791599965E+03  0.64537600035E+02  0.17059885477E+03  0.00000000000E+00 0. -1.
         11    1    1    2    0    0  0.29206873100E+02  0.29123420851E+01  0.60870770049E+01  0.29976251920E+02  0.00000000000E+00 0.  1.
</event>
<event>
 7    1  0.2943257E-009  0.8303705E+02  0.7561462E-02  0.1320647E+00
         -2   -1    0    0    0  501 -0.00000000000E+00  0.00000000000E+00  0.14059445170E+03  0.14059445170E+03  0.00000000000E+00 0.  1.
          2   -1    0    0  501    0  0.00000000000E+00 -0.00000000000E+00 -0.90833437682E+02  0.90833437682E+02  0.00000000000E+00 0. -1.
         25    2    1    2    0    0 -0.11645527800E+02  0.36035664470E+02  0.39300959778E+02  0.13647820719E+03  0.12509016015E+03 0.  0.
          5    1    3    3  502    0 -0.18102369558E+02  0.56456055511E+02  0.74353377126E+02  0.95188649941E+02  0.41800000000E+01 0. -1.
         -5    1    3    3    0  502  0.64568417587E+01 -0.20420391041E+02 -0.35052417349E+02  0.41289557248E+02  0.41800000000E+01 0. -1.
        -11    1    1    2    0    0  0.43096504994E+02 -0.10629494459E+02 -0.15368342628E+02  0.46973192891E+02  0.00000000000E+00 0. -1.
         11    1    1    2    0    0 -0.31450977195E+02 -0.25406170011E+02  0.25828396872E+02  0.47976489306E+02  0.00000000000E+00 0.  1.
</event>
<event>
 7    1  0.2943257E-009  0.1064142E+03  0.7561462E-02  0.1267358E+00
         -1   -1    0    0    0  501 -0.00000000000E+00  0.00000000000E+00  0.10063831532E+03  0.10063831532E+03  0.00000000000E+00 0. -1.
          1   -1    0    0  501    0  0.00000000000E+00 -0.00000000000E+00 -0.17613863467E+03  0.17613863467E+03  0.00000000000E+00 0.  1.
         25    2    1    2    0    0 -0.57647669528E+02  0.46433658331E+02 -0.14672047662E+02  0.14609230407E+03  0.12509338071E+03 0.  0.
          5    1    3    3  502    0 -0.16766165175E+02  0.52827883573E+02 -0.61880138224E+02  0.83177602058E+02  0.41800000000E+01 0. -1.
         -5    1    3    3    0  502 -0.40881504353E+02 -0.63942252416E+01  0.47208090563E+02  0.62914702011E+02  0.41800000000E+01 0. -1.
        -11    1    1    2    0    0 -0.20147261847E+02 -0.30013015307E+02 -0.18311292639E+02  0.40521558285E+02  0.00000000000E+00 0. -1.
         11    1    1    2    0    0  0.77794931375E+02 -0.16420643024E+02 -0.42516979054E+02  0.90163087640E+02  0.00000000000E+00 0.  1.
</event>
<event>
 7    1  0.2943257E-009  0.8412441E+02  0.7561462E-02  0.1317738E+00
          1   -1    0    0  501    0  0.00000000000E+00  0.00000000000E+00  0.45302082647E+02  0.45302082647E+02  0.00000000000E+00 0. -1.
         -1   -1    0    0    0  501 -0.00000000000E+00 -0.00000000000E+00 -0.47219793009E+03  0.47219793009E+03  0.00000000000E+00 0.  1.
         25    2    1    2    0    0  0.53965243904E+02  0.33665638767E+02 -0.15102775653E+03  0.20616130912E+03  0.12508988508E+03 0.  0.
          5    1    3    3  502    0  0.53505576952E+02  0.34314317744E+02 -0.17270091186E+03  0.18407443202E+03  0.41800000000E+01 0. -1.
         -5    1    3    3    0  502  0.45966695194E+00 -0.64867897694E+00  0.21673155326E+02  0.22086877097E+02  0.41800000000E+01 0. -1.
        -11    1    1    2    0    0  0.19606752442E+02 -0.55721059006E+00  0.40478385362E+01  0.20027985964E+02  0.00000000000E+00 0. -1.
         11    1    1    2    0    0 -0.73571996347E+02 -0.33108428177E+02 -0.27991592944E+03  0.29131071765E+03  0.00000000000E+00 0.  1.
</event>
<event>
 7    1  0.4984340E-009  0.1260870E+03  0.7561462E-02  0.1233380E+00
         -1   -1    0    0    0  501 -0.00000000000E+00  0.00000000000E+00  0.36690358008E+03  0.36690358008E+03  0.00000000000E+00 0.  1.
          1   -1    0    0  501    0  0.00000000000E+00 -0.00000000000E+00 -0.58419851250E+02  0.58419851250E+02  0.00000000000E+00 0. -1.
         25    2    1    2    0    0  0.73182677835E+00  0.89454768806E+02  0.11031915793E+03  0.18926233733E+03  0.12508886638E+03 0.  0.
          5    1    3    3  502    0 -0.22229072792E+01  0.12126370028E+03  0.83049198865E+02  0.14705260336E+03  0.41800000000E+01 0. -1.
         -5    1    3    3    0  502  0.29547340575E+01 -0.31808931471E+02  0.27269959063E+02  0.42209733972E+02  0.41800000000E+01 0. -1.
        -11    1    1    2    0    0 -0.17017009105E+02 -0.15986852394E+02 -0.77847477217E+00  0.23361593938E+02  0.00000000000E+00 0. -1.
         11    1    1    2    0    0  0.16285182326E+02 -0.73467916412E+02  0.19894304568E+03  0.21269950007E+03  0.00000000000E+00 0.  1.
</event>
<event>
 7    1  0.2943257E-009  0.1463826E+03  0.7561462E-02  0.1204990E+00
         -2   -1    0    0    0  501 -0.00000000000E+00  0.00000000000E+00  0.25859473655E+02  0.25859473655E+02  0.00000000000E+00 0.  1.
          2   -1    0    0  501    0  0.00000000000E+00 -0.00000000000E+00 -0.11758052275E+04  0.11758052275E+04  0.00000000000E+00 0. -1.
         25    2    1    2    0    0  0.98249811227E+02  0.64437147728E+01 -0.93242473254E+03  0.94592311856E+03  0.12514039125E+03 0.  0.
          5    1    3    3  502    0  0.12755848768E+03 -0.44000764088E+01 -0.74777145449E+03  0.75859748813E+03  0.41800000000E+01 0. -1.
         -5    1    3    3    0  502 -0.29308676456E+02  0.10843791182E+02 -0.18465327805E+03  0.18732563043E+03  0.41800000000E+01 0. -1.
        -11    1    1    2    0    0 -0.90100777702E+02  0.30945430783E+02 -0.14071774943E+03  0.16993308928E+03  0.00000000000E+00 0.  1.
         11    1    1    2    0    0 -0.81490335250E+01 -0.37389145556E+02 -0.76803271906E+02  0.85808493334E+02  0.00000000000E+00 0. -1.
</event>
<event>
 7    1  0.2943257E-009  0.2261217E+03  0.7561462E-02  0.1129400E+00
          1   -1    0    0  501    0  0.00000000000E+00  0.00000000000E+00  0.97276221840E+02  0.97276221840E+02  0.00000000000E+00 0. -1.
         -1   -1    0    0    0  501 -0.00000000000E+00 -0.00000000000E+00 -0.57696553942E+03  0.57696553942E+03  0.00000000000E+00 0.  1.
         25    2    1    2    0    0  0.34404115071E+02 -0.20643359448E+03 -0.25900825682E+03  0.35571239581E+03  0.12509020493E+03 0.  0.
          5    1    3    3  502    0  0.66676098911E+02 -0.52284391603E+02 -0.10949996250E+03  0.13851741392E+03  0.41800000000E+01 0. -1.
         -5    1    3    3    0  502 -0.32271983841E+02 -0.15414920288E+03 -0.14950829432E+03  0.21719498189E+03  0.41800000000E+01 0. -1.
        -11    1    1    2    0    0 -0.66695557030E+01  0.86819156833E+02 -0.15862089317E+03  0.18094926558E+03  0.00000000000E+00 0.  1.
         11    1    1    2    0    0 -0.27734559368E+02  0.11961443765E+03 -0.62060167597E+02  0.13758009987E+03  0.00000000000E+00 0. -1.
</event>
<event>
 7    1  0.2943257E-009  0.2437741E+03  0.7561462E-02  0.1117304E+00
          1   -1    0    0  501    0  0.00000000000E+00  0.00000000000E+00  0.15263765170E+03  0.15263765170E+03  0.00000000000E+00 0. -1.
         -1   -1    0    0    0  501 -0.00000000000E+00 -0.00000000000E+00 -0.44551036405E+03  0.44551036405E+03  0.00000000000E+00 0.  1.
         25    2    1    2    0    0 -0.11246499705E+03 -0.19198824801E+03 -0.57757498532E+02  0.26170597040E+03  0.12508486467E+03 0.  0.
          5    1    3    3  502    0 -0.65171823504E+02 -0.11745868509E+02  0.71967244405E+00  0.66357534118E+02  0.41800000000E+01 0.  1.
         -5    1    3    3    0  502 -0.47293173547E+02 -0.18024237950E+03 -0.58477170976E+02  0.19534843628E+03  0.41800000000E+01 0.  1.
        -11    1    1    2    0    0 -0.10908348418E+02  0.24153628315E+02 -0.67546933141E+01  0.27349875827E+02  0.00000000000E+00 0. -1.
         11    1    1    2    0    0  0.12337334547E+03  0.16783461969E+03 -0.22836052050E+03  0.30909216953E+03  0.00000000000E+00 0.  1.
</event>
<event>
 7    1  0.2943257E-009  0.1594457E+03  0.7561462E-02  0.1189324E+00
         -1   -1    0    0    0  501 -0.00000000000E+00  0.00000000000E+00  0.23122449354E+02  0.23122449354E+02  0.00000000000E+00 0.  1.
          1   -1    0    0  501    0  0.00000000000E+00 -0.00000000000E+00 -0.11993321978E+04  0.11993321978E+04  0.00000000000E+00 0. -1.
         25    2    1    2    0    0 -0.99882755958E+02 -0.83560154364E+02 -0.64800422720E+03  0.67269327809E+03  0.12509158076E+03 0.  0.
          5    1    3    3  502    0 -0.11557782843E+03 -0.23792414019E+02 -0.44963798582E+03  0.46488289286E+03  0.41800000000E+01 0.  1.
         -5    1    3    3    0  502  0.15695072467E+02 -0.59767740344E+02 -0.19836624138E+03  0.20781038522E+03  0.41800000000E+01 0.  1.
        -11    1    1    2    0    0  0.32970487465E+01  0.26489852753E+02 -0.35338487855E+02  0.44287600445E+02  0.00000000000E+00 0.  1.
         11    1    1    2    0    0  0.96585707211E+02  0.57070301610E+02 -0.49286703343E+03  0.50547376866E+03  0.00000000000E+00 0. -1.
</event>
<event>
 7    1  0.2943257E-009  0.7254070E+02  0.7561462E-02  0.1351660E+00
         -2   -1    0    0    0  501 -0.00000000000E+00  0.00000000000E+00  0.30959402557E+02  0.30959402557E+02  0.00000000000E+00 0.  1.
          2   -1    0    0  501    0  0.00000000000E+00 -0.00000000000E+00 -0.46583363154E+03  0.46583363154E+03  0.00000000000E+00 0. -1.
         25    2    1    2    0    0 -0.99817781792E+01  0.20360179152E+01 -0.13277734318E+03  0.18269969448E+03  0.12508226988E+03 0.  0.
          5    1    3    3  502    0  0.17382263099E+02  0.20454353164E+02 -0.14481319910E+03  0.14733926383E+03  0.41800000000E+01 0.  1.
         -5    1    3    3    0  502 -0.27364041278E+02 -0.18418335248E+02  0.12035855918E+02  0.35360430654E+02  0.41800000000E+01 0.  1.
        -11    1    1    2    0    0  0.18756555358E+01  0.40914527361E+02 -0.17359541731E+03  0.17836167062E+03  0.00000000000E+00 0.  1.
         11    1    1    2    0    0  0.81061226434E+01 -0.42950545276E+02 -0.12850146849E+03  0.13573166900E+03  0.00000000000E+00 0. -1.
</event>
<event>
 7    1  0.2943257E-009  0.7611798E+02  0.7561462E-02  0.1340444E+00
          1   -1    0    0  501    0  0.00000000000E+00  0.00000000000E+00  0.35723371886E+03  0.35723371886E+03  0.00000000000E+00 0.  1.
         -1   -1    0    0    0  501 -0.00000000000E+00 -0.00000000000E+00 -0.66508030115E+02  0.66508030115E+02  0.00000000000E+00 0. -1.
         25    2    1    2    0    0 -0.51973163627E+02 -0.49546712667E+02  0.26937763523E+03  0.30556233012E+03  0.12509172935E+03 0.  0.
          5    1    3    3  502    0 -0.36490433099E+02 -0.31238455005E+02  0.27612685522E+03  0.28030502199E+03  0.41800000000E+01 0. -1.
         -5    1    3    3    0  502 -0.15482730528E+02 -0.18308257663E+02 -0.67492199926E+01  0.25257308125E+02  0.41800000000E+01 0. -1.
        -11    1    1    2    0    0  0.38931352588E+02  0.53396553219E+02 -0.24407872671E+02  0.70445626964E+02  0.00000000000E+00 0. -1.
         11    1    1    2    0    0  0.13041811039E+02 -0.38498405514E+01  0.45755926186E+02  0.47733791894E+02  0.00000000000E+00 0.  1.
</event>
<event>
 7    1  0.2943257E-009  0.1517259E+03  0.7561462E-02  0.1198368E+00
          1   -1    0    0  501    0  0.00000000000E+00  0.00000000000E+00  0.23133521953E+03  0.23133521953E+03  0.00000000000E+00 0. -1.
         -1   -1    0    0    0  501 -0.00000000000E+00 -0.00000000000E+00 -0.13344986904E+03  0.13344986904E+03  0.00000000000E+00 0.  1.
         25    2    1    2    0    0  0.12262140319E+03 -0.16874262661E+02  0.11356606643E+03  0.20944299484E+03  0.12509343462E+03 0.  0.
          5    1    3    3  502    0  0.12201969791E+03  0.23017486104E+02  0.11500960104E+03  0.16930236878E+03  0.41800000000E+01 0. -1.
         -5    1    3    3    0  502  0.60170528356E+00 -0.39891748765E+02 -0.14435346064E+01  0.40140626066E+02  0.41800000000E+01 0. -1.
        -11    1    1    2    0    0 -0.11573662355E+03 -0.53187543681E+01 -0.39170508522E+02  0.12230120162E+03  0.00000000000E+00 0.  1.
         11    1    1    2    0    0 -0.68847796374E+01  0.22193017029E+02  0.23489792580E+02  0.33040892103E+02  0.00000000000E+00 0. -1.
</event>
<event>
 7    1  0.2943257E-009  0.1129723E+03  0.7561462E-02  0.1255163E+00
          2   -1    0    0  501    0  0.00000000000E+00  0.00000000000E+00  0.37505865817E+03  0.37505865817E+03  0.00000000000E+00 0. -1.
         -2   -1    0    0    0  501 -0.00000000000E+00 -0.00000000000E+00 -0.50236046330E+02  0.50236046330E+02  0.00000000000E+00 0.  1.
         25    2    1    2    0    0 -0.45555145142E+02  0.18098863532E+02  0.28366068546E+03  0.31386667115E+03  0.12508422230E+03 0.  0.
          5    1    3    3  502    0 -0.76477268604E+02  0.42792508360E+02  0.23598669313E+03  0.25176807407E+03  0.41800000000E+01 0. -1.
         -5    1    3    3    0  502  0.30922123462E+02 -0.24693644827E+02  0.47673992328E+02  0.62098597075E+02  0.41800000000E+01 0. -1.
        -11    1    1    2    0    0 -0.62717326576E+01 -0.41200251167E+02  0.60087020101E+00  0.41679207906E+02  0.00000000000E+00 0.  1.
         11    1    1    2    0    0  0.51826877800E+02  0.23101387634E+02  0.40561056176E+02  0.69748825447E+02  0.00000000000E+00 0. -1.
</event>
<event>
 7    1  0.2943257E-009  0.8232973E+02  0.7561462E-02  0.1322567E+00
         -1   -1    0    0    0  501 -0.00000000000E+00  0.00000000000E+00  0.22503936529E+02  0.22503936529E+02  0.00000000000E+00 0.  1.
          1   -1    0    0  501    0  0.00000000000E+00 -0.00000000000E+00 -0.60580806464E+03  0.60580806464E+03  0.00000000000E+00 0. -1.
         25    2    1    2    0    0  0.10905380635E+02  0.58743136136E+01 -0.45373704744E+03  0.47082725431E+03  0.12509020865E+03 0.  0.
          5    1    3    3  502    0  0.60500896784E+02  0.30193144608E+01 -0.13257119230E+03  0.14581518508E+03  0.41800000000E+01 0.  1.
         -5    1    3    3    0  502 -0.49595516149E+02  0.28549991528E+01 -0.32116585514E+03  0.32501206923E+03  0.41800000000E+01 0.  1.
        -11    1    1    2    0    0 -0.28164862702E+02  0.10726862386E+02 -0.48948174984E+01  0.30533331067E+02  0.00000000000E+00 0.  1.
         11    1    1    2    0    0  0.17259482067E+02 -0.16601175999E+02 -0.12467226317E+03  0.12695141579E+03  0.00000000000E+00 0. -1.
</event>
<event>
 7    1  0.2943257E-009  0.1030471E+03  0.7561462E-02  0.1274016E+00
          1   -1    0    0  501    0  0.00000000000E+00  0.00000000000E+00  0.47420867063E+02  0.47420867063E+02  0.00000000000E+00 0. -1.
         -1   -1    0    0    0  501 -0.00000000000E+00 -0.00000000000E+00 -0.31651581991E+03  0.31651581991E+03  0.00000000000E+00 0.  1.
         25    2    1    2    0    0 -0.39900872424E+01  0.48455350691E+02 -0.18830479718E+03  0.23123353044E+03  0.12508559929E+03 0.  0.
          5    1    3    3  502    0  0.20390470544E+02  0.74092346840E+02 -0.17834613468E+03  0.19424279473E+03  0.41800000000E+01 0.  1.
         -5    1    3    3    0  502 -0.24380557786E+02 -0.25636996149E+02 -0.99586625035E+01  0.36990735710E+02  0.41800000000E+01 0.  1.
        -11    1    1    2    0    0 -0.35315037366E+02 -0.39899141528E+02 -0.14597959381E+02  0.55246663039E+02  0.00000000000E+00 0. -1.
         11    1    1    2    0    0  0.39305124608E+02 -0.85562091634E+01 -0.66192196281E+02  0.77456493493E+02  0.00000000000E+00 0.  1.
</event>
<event>
 7    1  0.2943257E-009  0.1079727E+03  0.7561462E-02  0.1264371E+00
          1   -1    0    0  501    0  0.00000000000E+00  0.00000000000E+00  0.58458492901E+03  0.58458492901E+03  0.00000000000E+00 0. -1.
         -1   -1    0    0    0  501 -0.00000000000E+00 -0.00000000000E+00 -0.23033029168E+02  0.23033029168E+02  0.00000000000E+00 0.  1.
         25    2    1    2    0    0  0.18775500598E+02  0.32414227392E+02  0.36777969595E+03  0.39027311972E+03  0.12509197281E+03 0.  0.
          5    1    3    3  502    0 -0.51676485477E+02  0.22445758913E+02  0.12352861251E+03  0.13583468539E+03  0.41800000000E+01 0. -1.
         -5    1    3    3    0  502  0.70451986075E+02  0.99684684788E+01  0.24425108343E+03  0.25443843433E+03  0.41800000000E+01 0. -1.
        -11    1    1    2    0    0  0.31522206666E+02 -0.96666168741E+01  0.30210291436E+02  0.44718616968E+02  0.00000000000E+00 0.  1.
         11    1    1    2    0    0 -0.50297707264E+02 -0.22747610518E+02  0.16356191246E+03  0.17262622149E+03  0.00000000000E+00 0. -1.
</event>
<event>
 7    1  0.2943257E-009  0.1157415E+03  0.7561462E-02  0.1250292E+00
         -2   -1    0    0    0  501 -0.00000000000E+00  0.00000000000E+00  0.25381304786E+02  0.25381304786E+02  0.00000000000E+00 0.  1.
          2   -1    0    0  501    0  0.00000000000E+00 -0.00000000000E+00 -0.60212884992E+03  0.60212884992E+03  0.00000000000E+00 0. -1.
         25    2    1    2    0    0 -0.82826020947E+01 -0.24937006160E+02 -0.24592491602E+03  0.27715848112E+03  0.12508918245E+03 0.  0.
          5    1    3    3  502    0  0.39886371620E+02  0.29626276659E+02 -0.63717273226E+02  0.80907368126E+02  0.41800000000E+01 0. -1.
         -5    1    3    3    0  502 -0.48168973715E+02 -0.54563282819E+02 -0.18220764279E+03  0.19625111300E+03  0.41800000000E+01 0. -1.
        -11    1    1    2    0    0 -0.32413516488E+02  0.50973662914E+02 -0.23992547108E+03  0.24741297871E+03  0.00000000000E+00 0. -1.
         11    1    1    2    0    0  0.40696118583E+02 -0.26036656754E+02 -0.90897158030E+02  0.10293869487E+03  0.00000000000E+00 0.  1.
</event>
<event>
 7    1  0.2943257E-009  0.1364472E+03  0.7561462E-02  0.1218191E+00
         -3   -1    0    0    0  501 -0.00000000000E+00  0.00000000000E+00  0.80161398436E+02  0.80161398436E+02  0.00000000000E+00 0.  1.
          3   -1    0    0  501    0  0.00000000000E+00 -0.00000000000E+00 -0.25414150624E+03  0.25414150624E+03  0.00000000000E+00 0. -1.
         25    2    1    2    0    0  0.85281301427E+02  0.37441107234E+02 -0.96073109848E+02  0.18317246737E+03  0.12508946192E+03 0.  0.
          5    1    3    3  502    0 -0.31849998284E+02 -0.11691841145E+00 -0.27472424598E+02  0.42268694963E+02  0.41800000000E+01 0.  1.
         -5    1    3    3    0  502  0.11713129971E+03  0.37558025646E+02 -0.68600685251E+02  0.14090377241E+03  0.41800000000E+01 0.  1.
        -11    1    1    2    0    0 -0.28801192715E+02 -0.51933263803E+02 -0.70771041052E+02  0.92385674445E+02  0.00000000000E+00 0.  1.
         11    1    1    2    0    0 -0.56480108713E+02  0.14492156569E+02 -0.71359569018E+01  0.58744762857E+02  0.00000000000E+00 0. -1.
</event>
<event>
 7    1  0.2943257E-009  0.9189074E+02  0.7561462E-02  0.1298337E+00
         -4   -1    0    0    0  501 -0.00000000000E+00  0.00000000000E+00  0.10660817996E+03  0.10660817996E+03  0.00000000000E+00 0.  1.
          4   -1    0    0  501    0  0.00000000000E+00 -0.00000000000E+00 -0.11923875084E+03  0.11923875084E+03  0.00000000000E+00 0. -1.
         25    2    1    2    0    0  0.22551821168E+02  0.91480176107E+01 -0.56228843340E+01  0.12756873039E+03  0.12509953349E+03 0.  0.
          5    1    3    3  502    0  0.41453170959E+02 -0.25582047582E+02  0.42755000048E+02  0.64948202209E+02  0.41800000000E+01 0. -1.
         -5    1    3    3    0  502 -0.18901349791E+02  0.34730065193E+02 -0.48377884382E+02  0.62620528180E+02  0.41800000000E+01 0. -1.
        -11    1    1    2    0    0 -0.47979096533E+02  0.23762647721E+02  0.78524580248E+01  0.54113937464E+02  0.00000000000E+00 0.  1.
         11    1    1    2    0    0  0.25427275365E+02 -0.32910665332E+02 -0.14860144569E+02  0.44164262947E+02  0.00000000000E+00 0. -1.
</event>
<event>
 7    1  0.2943257E-009  0.1341707E+03  0.7561462E-02  0.1221395E+00
         -4   -1    0    0    0  501 -0.00000000000E+00  0.00000000000E+00  0.15556306094E+03  0.15556306094E+03  0.00000000000E+00 0. -1.
          4   -1    0    0  501    0  0.00000000000E+00 -0.00000000000E+00 -0.14355298647E+03  0.14355298647E+03  0.00000000000E+00 0.  1.
         25    2    1    2    0    0  0.86557551157E+02  0.58680125896E+02  0.88984848231E+01  0.16328956901E+03  0.12509489788E+03 0.  0.
          5    1    3    3  502    0  0.74242437590E+00  0.74797069005E+02 -0.35002522070E+01  0.74999179270E+02  0.41800000000E+01 0.  1.
         -5    1    3    3    0  502  0.85815126781E+02 -0.16116943109E+02  0.12398737030E+02  0.88290389735E+02  0.41800000000E+01 0.  1.
        -11    1    1    2    0    0 -0.71453617087E+02 -0.39665441320E+02 -0.36387705273E+02  0.89459665352E+02  0.00000000000E+00 0.  1.
         11    1    1    2    0    0 -0.15103934070E+02 -0.19014684576E+02  0.39499294913E+02  0.46366813051E+02  0.00000000000E+00 0. -1.
</event>
<event>
 7    1  0.2943257E-009  0.9071453E+02  0.7561462E-02  0.1301131E+00
         -1   -1    0    0    0  501 -0.00000000000E+00  0.00000000000E+00  0.27519232134E+03  0.27519232134E+03  0.00000000000E+00 0.  1.
          1   -1    0    0  501    0  0.00000000000E+00 -0.00000000000E+00 -0.43792706555E+02  0.43792706555E+02  0.00000000000E+00 0. -1.
         25    2    1    2    0    0  0.27146341656E+02 -0.16758991817E+02  0.11875512401E+03  0.17540614082E+03  0.12508695810E+03 0.  0.
          5    1    3    3  502    0  0.61612064973E+02 -0.36971528843E+01  0.12338374380E+03  0.13802440408E+03  0.41800000000E+01 0.  1.
         -5    1    3    3    0  502 -0.34465723317E+02 -0.13061838933E+02 -0.46286197904E+01  0.37381736734E+02  0.41800000000E+01 0.  1.
        -11    1    1    2    0    0 -0.46865955125E+02 -0.11268054266E+02  0.37777627958E+02  0.61241619597E+02  0.00000000000E+00 0. -1.
         11    1    1    2    0    0  0.19719613468E+02  0.28027046083E+02  0.74866862823E+02  0.82337267482E+02  0.00000000000E+00 0.  1.
</event>
<event>
 7    1  0.2943257E-009  0.3955019E+03  0.7561462E-02  0.1045348E+00
         -1   -1    0    0    0  501 -0.00000000000E+00  0.00000000000E+00  0.44738394986E+03  0.44738394986E+03  0.00000000000E+00 0.  1.
          1   -1    0    0  501    0  0.00000000000E+00 -0.00000000000E+00 -0.35813603324E+03  0.35813603324E+03  0.00000000000E+00 0. -1.
         25    2    1    2    0    0  0.35014420423E+03  0.14940306686E+03  0.10140571022E+03  0.41334371327E+03  0.12509063553E+03 0.  0.
          5    1    3    3  502    0  0.32982592934E+03  0.96223604726E+02  0.85222512442E+02  0.35401196985E+03  0.41800000000E+01 0. -1.
         -5    1    3    3    0  502  0.20318274885E+02  0.53179462131E+02  0.16183197775E+02  0.59331743419E+02  0.41800000000E+01 0. -1.
        -11    1    1    2    0    0 -0.32377788538E+03 -0.16090401401E+03 -0.20763710450E+02  0.36215100781E+03  0.00000000000E+00 0. -1.
         11    1    1    2    0    0 -0.26366318848E+02  0.11500947152E+02  0.86059168545E+01  0.30025262029E+02  0.00000000000E+00 0.  1.
</event>
<event>
 7    1  0.2943257E-009  0.1208695E+03  0.7561462E-02  0.1241669E+00
         -4   -1    0    0    0  501 -0.00000000000E+00  0.00000000000E+00  0.23568491785E+02  0.23568491785E+02  0.00000000000E+00 0.  1.
          4   -1    0    0  501    0  0.00000000000E+00 -0.00000000000E+00 -0.74615724963E+03  0.74615724963E+03  0.00000000000E+00 0. -1.
         25    2    1    2    0    0 -0.67098426876E+02 -0.35519396067E+02 -0.38987722198E+03  0.41643894397E+03  0.12511322652E+03 0.  0.
          5    1    3    3  502    0 -0.75162539550E+02  0.10684061626E+02 -0.11704266915E+03  0.13957082548E+03  0.41800000000E+01 0.  1.
         -5    1    3    3    0  502  0.80641126744E+01 -0.46203457693E+02 -0.27283455284E+03  0.27686811849E+03  0.41800000000E+01 0.  1.
        -11    1    1    2    0    0 -0.15800120932E+02 -0.14794823132E+02 -0.68699617532E+02  0.72028939059E+02  0.00000000000E+00 0. -1.
         11    1    1    2    0    0  0.82898547808E+02  0.50314219199E+02 -0.26401191833E+03  0.28125785839E+03  0.00000000000E+00 0.  1.
</event>
<event>
 7    1  0.2943257E-009  0.9962285E+02  0.7561462E-02  0.1281091E+00
          1   -1    0    0  501    0  0.00000000000E+00  0.00000000000E+00  0.39902383749E+03  0.39902383749E+03  0.00000000000E+00 0. -1.
         -1   -1    0    0    0  501 -0.00000000000E+00 -0.00000000000E+00 -0.31699801287E+02  0.31699801287E+02  0.00000000000E+00 0.  1.
         25    2    1    2    0    0  0.35555295221E+02 -0.10820165614E+02  0.20502031392E+03  0.24302725692E+03  0.12509062109E+03 0.  0.
          5    1    3    3  502    0  0.47719377689E+02 -0.57824141305E+02  0.84581248933E+02  0.11310274265E+03  0.41800000000E+01 0.  1.
         -5    1    3    3    0  502 -0.12164082469E+02  0.47003975691E+02  0.12043906499E+03  0.12992451427E+03  0.41800000000E+01 0.  1.
        -11    1    1    2    0    0 -0.54426256052E+02  0.14214012474E+02  0.54925559236E+02  0.78619797480E+02  0.00000000000E+00 0.  1.
         11    1    1    2    0    0  0.18870960832E+02 -0.33938468594E+01  0.10737816305E+03  0.10907658437E+03  0.00000000000E+00 0. -1.
</event>
<event>
 7    1  0.2943257E-009  0.1087543E+03  0.7561462E-02  0.1262894E+00
          2   -1    0    0  501    0  0.00000000000E+00  0.00000000000E+00  0.19789389778E+04  0.19789389778E+04  0.00000000000E+00 0. -1.
         -2   -1    0    0    0  501 -0.00000000000E+00 -0.00000000000E+00 -0.16637643135E+02  0.16637643135E+02  0.00000000000E+00 0.  1.
         25    2    1    2    0    0 -0.66468115990E+02 -0.17902792992E+02  0.17344692697E+04  0.17403362831E+04  0.12509280687E+03 0.  0.
          5    1    3    3  502    0 -0.97790526472E+02 -0.21062497162E+02  0.15435549297E+04  0.15467986000E+04  0.41800000000E+01 0. -1.
         -5    1    3    3    0  502  0.31322410482E+02  0.31597041705E+01  0.19091434005E+03  0.19353768306E+03  0.41800000000E+01 0. -1.
        -11    1    1    2    0    0  0.50981939077E+02 -0.11622894836E+02  0.43794342930E+02  0.68206995748E+02  0.00000000000E+00 0.  1.
         11    1    1    2    0    0  0.15486176913E+02  0.29525687827E+02  0.18403772201E+03  0.18703334206E+03  0.00000000000E+00 0. -1.
</event>
<event>
 7    1  0.2943257E-009  0.1185748E+03  0.7561462E-02  0.1245467E+00
         -2   -1    0    0    0  501 -0.00000000000E+00  0.00000000000E+00  0.25964051631E+02  0.25964051631E+02  0.00000000000E+00 0.  1.
          2   -1    0    0  501    0  0.00000000000E+00 -0.00000000000E+00 -0.89173635671E+03  0.89173635671E+03  0.00000000000E+00 0. -1.
         25    2    1    2    0    0 -0.66224101011E+02 -0.69114164501E+02 -0.31869682600E+03  0.35549643416E+03  0.12509056124E+03 0.  0.
          5    1    3    3  502    0 -0.64852308658E+02 -0.76132799654E+02 -0.32806234767E+03  0.34299329656E+03  0.41800000000E+01 0. -1.
         -5    1    3    3    0  502 -0.13717923523E+01  0.70186351525E+01  0.93655216775E+01  0.12503137604E+02  0.41800000000E+01 0. -1.
        -11    1    1    2    0    0 -0.20000113689E+02  0.24687110204E+02 -0.11010151437E+03  0.11459407238E+03  0.00000000000E+00 0. -1.
         11    1    1    2    0    0  0.86224214700E+02  0.44427054298E+02 -0.43697396471E+03  0.44760990180E+03  0.00000000000E+00 0.  1.
</event>
<event>
 7    1  0.3816881E-009  0.1666510E+03  0.7561462E-02  0.1181386E+00
         -1   -1    0    0    0  501 -0.00000000000E+00  0.00000000000E+00  0.48691704243E+02  0.48691704243E+02  0.00000000000E+00 0.  1.
          1   -1    0    0  501    0  0.00000000000E+00 -0.00000000000E+00 -0.77190345984E+03  0.77190345984E+03  0.00000000000E+00 0. -1.
         25    2    1    2    0    0  0.12372600143E+03  0.76515371909E+02 -0.52087441562E+03  0.55508945696E+03  0.12510564660E+03 0.  0.
          5    1    3    3  502    0  0.36146590006E+02  0.70339028845E+02 -0.11386333061E+03  0.13869565749E+03  0.41800000000E+01 0.  1.
         -5    1    3    3    0  502  0.87579411422E+02  0.61763430642E+01 -0.40701108501E+03  0.41639379947E+03  0.41800000000E+01 0.  1.
        -11    1    1    2    0    0 -0.77227702503E+02 -0.64940001721E+00 -0.60667827177E+02  0.98209597335E+02  0.00000000000E+00 0.  1.
         11    1    1    2    0    0 -0.46498298925E+02 -0.75865971892E+02 -0.14166951280E+03  0.16729610979E+03  0.00000000000E+00 0. -1.
</event>
<event>
 7    1  0.2943257E-009  0.1210475E+03  0.7561462E-02  0.1241379E+00
         -2   -1    0    0    0  501 -0.00000000000E+00  0.00000000000E+00  0.36904053676E+02  0.36904053676E+02  0.00000000000E+00 0.  1.
          2   -1    0    0  501    0  0.00000000000E+00 -0.00000000000E+00 -0.88271522040E+03  0.88271522040E+03  0.00000000000E+00 0. -1.
         25    2    1    2    0    0 -0.82748353799E+01  0.11159827191E+03 -0.67892318102E+03  0.69936232913E+03  0.12509330307E+03 0.  0.
          5    1    3    3  502    0  0.12374950732E+02  0.81806589224E+02 -0.64245435291E+03  0.64777351398E+03  0.41800000000E+01 0. -1.
         -5    1    3    3    0  502 -0.20649786112E+02  0.29791682685E+02 -0.36468828117E+02  0.51588815143E+02  0.41800000000E+01 0. -1.
        -11    1    1    2    0    0  0.29665793744E+02 -0.61081053812E+02 -0.32861646690E+02  0.75437671467E+02  0.00000000000E+00 0.  1.
         11    1    1    2    0    0 -0.21390958364E+02 -0.50517218097E+02 -0.13402633901E+03  0.14481927348E+03  0.00000000000E+00 0. -1.
</event>
<event>
 7    1  0.2943257E-009  0.8671170E+02  0.7561462E-02  0.1311016E+00
         -2   -1    0    0    0  501 -0.00000000000E+00  0.00000000000E+00  0.43294751081E+02  0.43294751081E+02  0.00000000000E+00 0.  1.
          2   -1    0    0  501    0  0.00000000000E+00 -0.00000000000E+00 -0.32465102782E+03  0.32465102782E+03  0.00000000000E+00 0. -1.
         25    2    1    2    0    0  0.26469225508E+02  0.20348117448E+02 -0.22402677470E+03  0.25874829735E+03  0.12509204536E+03 0.  0.
          5    1    3    3  502    0  0.14664491615E+02  0.66654522665E+02 -0.71830854784E+02  0.99171653233E+02  0.41800000000E+01 0. -1.
         -5    1    3    3    0  502  0.11804733893E+02 -0.46306405217E+02 -0.15219591992E+03  0.15957664411E+03  0.41800000000E+01 0. -1.
        -11    1    1    2    0    0 -0.36672870098E+02 -0.28020159572E+01  0.10619126886E+02  0.38282065650E+02  0.00000000000E+00 0.  1.
         11    1    1    2    0    0  0.10203644590E+02 -0.17546101491E+02 -0.67948628920E+02  0.70915415902E+02  0.00000000000E+00 0. -1.
</event>
<event>
 7    1  0.2943257E-009  0.1631203E+03  0.7561462E-02  0.1185218E+00
          1   -1    0    0  501    0  0.00000000000E+00  0.00000000000E+00  0.95330362619E+03  0.95330362619E+03  0.00000000000E+00 0. -1.
         -1   -1    0    0    0  501 -0.00000000000E+00 -0.00000000000E+00 -0.32369770879E+02  0.32369770879E+02  0.00000000000E+00 0.  1.
         25    2    1    2    0    0  0.11883894760E+03 -0.66630774511E+02  0.53203573250E+03  0.56326854645E+03  0.12508828559E+03 0.  0.
          5    1    3    3  502    0  0.94029354965E+02 -0.97842277383E+02  0.32216446096E+03  0.34960269327E+03  0.41800000000E+01 0.  1.
         -5    1    3    3    0  502  0.24809592631E+02  0.31211502872E+02  0.20987127154E+03  0.21366585318E+03  0.41800000000E+01 0.  1.
        -11    1    1    2    0    0 -0.16245747368E+02  0.41778572848E+02  0.48626205865E+02  0.66135326064E+02  0.00000000000E+00 0.  1.
         11    1    1    2    0    0 -0.10259320023E+03  0.24852201663E+02  0.34027191694E+03  0.35626952455E+03  0.00000000000E+00 0. -1.
</event>
<event>
 7    1  0.2943257E-009  0.3437728E+03  0.7561462E-02  0.1065200E+00
         -2   -1    0    0    0  501 -0.00000000000E+00  0.00000000000E+00  0.18020781416E+04  0.18020781416E+04  0.00000000000E+00 0. -1.
          2   -1    0    0  501    0  0.00000000000E+00 -0.00000000000E+00 -0.86896536750E+02  0.86896536750E+02  0.00000000000E+00 0.  1.
         25    2    1    2    0    0  0.21455252005E+03  0.26029949979E+03  0.44758207994E+03  0.57425494193E+03  0.12510158512E+03 0.  0.
          5    1    3    3  502    0  0.18779691515E+03  0.20885818698E+03  0.42981536273E+03  0.51346678768E+03  0.41800000000E+01 0.  1.
         -5    1    3    3    0  502  0.26755604898E+02  0.51441312811E+02  0.17766717206E+02  0.60788154253E+02  0.41800000000E+01 0.  1.
        -11    1    1    2    0    0 -0.30600405547E+02 -0.99780110115E+02  0.40577165908E+03  0.41897863252E+03  0.00000000000E+00 0. -1.
         11    1    1    2    0    0 -0.18395211450E+03 -0.16051938968E+03  0.86182786586E+03  0.89574110393E+03  0.00000000000E+00 0.  1.
</event>
<event>
 7    1  0.2943257E-009  0.1004175E+03  0.7561462E-02  0.1279420E+00
          2   -1    0    0  501    0  0.00000000000E+00  0.00000000000E+00  0.52253051127E+02  0.52253051127E+02  0.00000000000E+00 0. -1.
         -2   -1    0    0    0  501 -0.00000000000E+00 -0.00000000000E+00 -0.25504256772E+03  0.25504256772E+03  0.00000000000E+00 0.  1.
         25    2    1    2    0    0 -0.38090093814E+02 -0.18889530619E+02 -0.93883897581E+02  0.16207277368E+03  0.12508288504E+03 0.  0.
          5    1    3    3  502    0  0.37385511346E+02 -0.27638198748E+02 -0.80581337082E+01  0.47370374787E+02  0.41800000000E+01 0.  1.
         -5    1    3    3    0  502 -0.75475605160E+02  0.87486681293E+01 -0.85825763873E+02  0.11470239890E+03  0.41800000000E+01 0.  1.
        -11    1    1    2    0    0  0.52937146776E+02 -0.13543791185E+01 -0.10778772540E+03  0.12009317049E+03  0.00000000000E+00 0.  1.
         11    1    1    2    0    0 -0.14847052962E+02  0.20243909737E+02 -0.11178936141E+01  0.25129674675E+02  0.00000000000E+00 0. -1.
</event>
<event>
 7    1  0.2943257E-009  0.5875574E+02  0.7561462E-02  0.1403129E+00
          1   -1    0    0  501    0  0.00000000000E+00  0.00000000000E+00  0.14431360668E+03  0.14431360668E+03  0.00000000000E+00 0. -1.
         -1   -1    0    0    0  501 -0.00000000000E+00 -0.00000000000E+00 -0.87613905012E+02  0.87613905012E+02  0.00000000000E+00 0.  1.
         25    2    1    2    0    0  0.17187177241E+02  0.33243874238E+02  0.37710654892E+02  0.13588843945E+03  0.12507206022E+03 0.  0.
          5    1    3    3  502    0  0.78028424849E+01  0.39963132817E+01 -0.45795533241E+02  0.46814080527E+02  0.41800000000E+01 0.  1.
         -5    1    3    3    0  502  0.93843347565E+01  0.29247560956E+02  0.83506188133E+02  0.89074358921E+02  0.41800000000E+01 0.  1.
        -11    1    1    2    0    0  0.58393999555E+01  0.18908875224E+02 -0.19077747998E+02  0.27488263364E+02  0.00000000000E+00 0.  1.
         11    1    1    2    0    0 -0.23026577197E+02 -0.52152749462E+02  0.38066794777E+02  0.68550808883E+02  0.00000000000E+00 0. -1.
</event>
<event>
 7    1  0.2943257E-009  0.1043159E+03  0.7561462E-02  0.1271473E+00
         -2   -1    0    0    0  501 -0.00000000000E+00  0.00000000000E+00  0.68876235226E+02  0.68876235226E+02  0.00000000000E+00 0.  1.
          2   -1    0    0  501    0  0.00000000000E+00 -0.00000000000E+00 -0.20594159853E+03  0.20594159853E+03  0.00000000000E+00 0. -1.
         25    2    1    2    0    0  0.16110112661E+02  0.44529040413E+02 -0.10183126961E+03  0.16810572011E+03  0.12509018544E+03 0.  0.
          5    1    3    3  502    0 -0.41204622993E+02 -0.25696150774E+01  0.67704414132E+00  0.41501261022E+02  0.41800000000E+01 0. -1.
         -5    1    3    3    0  502  0.57314735654E+02  0.47098655490E+02 -0.10250831375E+03  0.12660445908E+03  0.41800000000E+01 0. -1.
        -11    1    1    2    0    0  0.32489809213E+02 -0.13559377154E+02  0.61824870358E+01  0.35744475901E+02  0.00000000000E+00 0.  1.
         11    1    1    2    0    0 -0.48599921874E+02 -0.30969663259E+02 -0.41416580737E+02  0.70967637754E+02  0.00000000000E+00 0. -1.
</event>
<event>
 7    1  0.2943257E-009  0.1856850E+03  0.7561462E-02  0.1162412E+00
          1   -1    0    0  501    0  0.00000000000E+00  0.00000000000E+00  0.72689017618E+03  0.72689017618E+03  0.00000000000E+00 0. -1.
         -1   -1    0    0    0  501 -0.00000000000E+00 -0.00000000000E+00 -0.50648029653E+02  0.50648029653E+02  0.00000000000E+00 0.  1.
         25    2    1    2    0    0  0.10753550157E+03  0.11739611073E+03  0.37345435327E+03  0.42480790225E+03  0.12509144228E+03 0.  0.
          5    1    3    3  502    0  0.87279819193E+01 -0.21197348118E+02  0.10001489028E+03  0.10269350473E+03  0.41800000000E+01 0. -1.
         -5    1    3    3    0  502  0.98807519652E+02  0.13859345885E+03  0.27343946299E+03  0.32211439753E+03  0.41800000000E+01 0. -1.
        -11    1    1    2    0    0 -0.70437420238E+02 -0.12154357880E+03  0.26304009227E+03  0.29820188104E+03  0.00000000000E+00 0.  1.
         11    1    1    2    0    0 -0.37098081334E+02  0.41474680724E+01  0.39747700990E+02  0.54528422534E+02  0.00000000000E+00 0. -1.
</event>
<event>
 7    1  0.2943257E-009  0.2417055E+03  0.7561462E-02  0.1118662E+00
         -2   -1    0    0    0  501 -0.00000000000E+00  0.00000000000E+00  0.20000737231E+03  0.20000737231E+03  0.00000000000E+00 0.  1.
          2   -1    0    0  501    0  0.00000000000E+00 -0.00000000000E+00 -0.45160127658E+03  0.45160127658E+03  0.00000000000E+00 0. -1.
         25    2    1    2    0    0 -0.16655244491E+03 -0.16181146384E+03  0.27675969355E+02  0.26520712674E+03  0.12508474750E+03 0.  0.
          5    1    3    3  502    0 -0.70049086130E+02 -0.72260869477E+02 -0.49828702644E+02  0.11237828853E+03  0.41800000000E+01 0. -1.
         -5    1    3    3    0  502 -0.96503358780E+02 -0.89550594366E+02  0.77504671999E+02  0.15282883821E+03  0.41800000000E+01 0. -1.
        -11    1    1    2    0    0  0.65415073451E+02  0.66495391614E+01 -0.21874590168E+02  0.69295352663E+02  0.00000000000E+00 0. -1.
         11    1    1    2    0    0  0.10113737146E+03  0.15516192468E+03 -0.25739528346E+03  0.31710616949E+03  0.00000000000E+00 0.  1.
</event>
<event>
 7    1  0.2943257E-009  0.1109457E+03  0.7561462E-02  0.1258829E+00
         -2   -1    0    0    0  501 -0.00000000000E+00  0.00000000000E+00  0.59901132306E+02  0.59901132306E+02  0.00000000000E+00 0.  1.
          2   -1    0    0  501    0  0.00000000000E+00 -0.00000000000E+00 -0.38043117661E+03  0.38043117661E+03  0.00000000000E+00 0. -1.
         25    2    1    2    0    0  0.78243757325E+02  0.24616415925E+02 -0.26295002781E+03  0.30251634535E+03  0.12508144780E+03 0.  0.
          5    1    3    3  502    0  0.15407223286E+02 -0.26993456888E+02 -0.19192368811E+03  0.19446903019E+03  0.41800000000E+01 0. -1.
         -5    1    3    3    0  502  0.62836534039E+02  0.51609872813E+02 -0.71026339699E+02  0.10804731516E+03  0.41800000000E+01 0. -1.
        -11    1    1    2    0    0 -0.86505376561E+02 -0.36599715085E+01 -0.12578896864E+02  0.87491737963E+02  0.00000000000E+00 0.  1.
         11    1    1    2    0    0  0.82616192362E+01 -0.20956444416E+02 -0.45001119632E+02  0.50324225608E+02  0.00000000000E+00 0. -1.
</event>
<event>
 7    1  0.2943257E-009  0.1113407E+03  0.7561462E-02  0.1258107E+00
          2   -1    0    0  501    0  0.00000000000E+00  0.00000000000E+00  0.16538565027E+03  0.16538565027E+03  0.00000000000E+00 0. -1.
         -2   -1    0    0    0  501 -0.00000000000E+00 -0.00000000000E+00 -0.14384985350E+03  0.14384985350E+03  0.00000000000E+00 0.  1.
         25    2    1    2    0    0  0.22250921477E+02 -0.10452601510E+03  0.34459622293E+02  0.16809971596E+03  0.12509699276E+03 0.  0.
          5    1    3    3  502    0  0.31008114347E+02 -0.98250737443E+02 -0.26167564417E+02  0.10638103398E+03  0.41800000000E+01 0.  1.
         -5    1    3    3    0  502 -0.87571928702E+01 -0.62752776551E+01  0.60627186709E+02  0.61718681977E+02  0.41800000000E+01 0.  1.
        -11    1    1    2    0    0 -0.22170860811E+02  0.68743070751E+02 -0.51354575708E+02  0.88625330981E+02  0.00000000000E+00 0.  1.
         11    1    1    2    0    0 -0.80060665901E-01  0.35782944347E+02  0.38430750191E+02  0.52510456826E+02  0.00000000000E+00 0. -1.
</event>
<event>
 7    1  0.2943257E-009  0.1809179E+03  0.7561462E-02  0.1166918E+00
          3   -1    0    0  501    0  0.00000000000E+00  0.00000000000E+00  0.56235468082E+02  0.56235468082E+02  0.00000000000E+00 0. -1.
         -3   -1    0    0    0  501 -0.00000000000E+00 -0.00000000000E+00 -0.65923452724E+03  0.65923452724E+03  0.00000000000E+00 0.  1.
         25    2    1    2    0    0 -0.13331022261E+03  0.75983064821E+02 -0.39046660891E+03  0.43778604465E+03  0.12508959437E+03 0.  0.
          5    1    3    3  502    0 -0.12043024425E+03  0.10285940697E+03 -0.26489910472E+03  0.30866245223E+03  0.41800000000E+01 0.  1.
         -5    1    3    3    0  502 -0.12879978354E+02 -0.26876342152E+02 -0.12556750420E+03  0.12912359242E+03  0.41800000000E+01 0.  1.
        -11    1    1    2    0    0  0.11977022117E+03 -0.92945671385E+02 -0.20444486410E+03  0.25452211331E+03  0.00000000000E+00 0.  1.
         11    1    1    2    0    0  0.13540001437E+02  0.16962606564E+02 -0.80875861456E+01  0.23161837363E+02  0.00000000000E+00 0. -1.
</event>
<event>
 7    1  0.2943257E-009  0.9792074E+02  0.7561462E-02  0.1284730E+00
          2   -1    0    0  501    0  0.00000000000E+00  0.00000000000E+00  0.45815912341E+03  0.45815912341E+03  0.00000000000E+00 0. -1.
         -2   -1    0    0    0  501 -0.00000000000E+00 -0.00000000000E+00 -0.35800643278E+02  0.35800643278E+02  0.00000000000E+00 0.  1.
         25    2    1    2    0    0 -0.70430121718E+02  0.58641831909E+01  0.21023764687E+03  0.25464132997E+03  0.12509015979E+03 0.  0.
          5    1    3    3  502    0  0.24481848217E+00  0.36530909469E+02  0.72405297757E+01  0.37476191831E+02  0.41800000000E+01 0.  1.
         -5    1    3    3    0  502 -0.70674940200E+02 -0.30666726278E+02  0.20299711710E+03  0.21716513814E+03  0.41800000000E+01 0.  1.
        -11    1    1    2    0    0  0.45236727224E+02 -0.23680445120E+02  0.19958470143E+03  0.20601256762E+03  0.00000000000E+00 0. -1.
         11    1    1    2    0    0  0.25193394494E+02  0.17816261929E+02  0.12536131825E+02  0.33305869098E+02  0.00000000000E+00 0.  1.
</event>
<event>
 7    1  0.2943257E-009  0.2236314E+03  0.7561462E-02  0.1131204E+00
          1   -1    0    0  501    0  0.00000000000E+00  0.00000000000E+00  0.70323839931E+03  0.70323839931E+03  0.00000000000E+00 0. -1.
         -1   -1    0    0    0  501 -0.00000000000E+00 -0.00000000000E+00 -0.83226810519E+02  0.83226810519E+02  0.00000000000E+00 0.  1.
         25    2    1    2    0    0 -0.19708169236E+03 -0.68285788445E+02  0.41092193524E+03  0.47750214352E+03  0.12508923950E+03 0.  0.
          5    1    3    3  502    0 -0.14290085205E+03 -0.88062444906E+02  0.21253322176E+03  0.27085695574E+03  0.41800000000E+01 0. -1.
         -5    1    3    3    0  502 -0.54180840302E+02  0.19776656461E+02  0.19838871348E+03  0.20664518778E+03  0.41800000000E+01 0. -1.
        -11    1    1    2    0    0 -0.54058963521E+01  0.90676343282E+01 -0.17480283049E+01  0.10700528521E+02  0.00000000000E+00 0.  1.
         11    1    1    2    0    0  0.20248758871E+03  0.59218154117E+02  0.21083768186E+03  0.29826253779E+03  0.00000000000E+00 0. -1.
</event>
<event>
 7    1  0.2943257E-009  0.1359204E+03  0.7561462E-02  0.1218926E+00
         -2   -1    0    0    0  501 -0.00000000000E+00  0.00000000000E+00  0.26584679897E+02  0.26584679897E+02  0.00000000000E+00 0.  1.
          2   -1    0    0  501    0  0.00000000000E+00 -0.00000000000E+00 -0.97998295367E+03  0.97998295367E+03  0.00000000000E+00 0. -1.
         25    2    1    2    0    0 -0.55962172444E+02 -0.83848421326E+02 -0.71014774283E+03  0.72809338017E+03  0.12509129106E+03 0.  0.
          5    1    3    3  502    0  0.22284657178E+02 -0.74756969080E+02 -0.27624670100E+03  0.28707999336E+03  0.41800000000E+01 0. -1.
         -5    1    3    3    0  502 -0.78246829621E+02 -0.90914522465E+01 -0.43390104183E+03  0.44101338681E+03  0.41800000000E+01 0. -1.
        -11    1    1    2    0    0 -0.10550505863E+02  0.20136665397E+02 -0.13247121356E+03  0.13440766678E+03  0.00000000000E+00 0. -1.
         11    1    1    2    0    0  0.66512678307E+02  0.63711755929E+02 -0.11077931738E+03  0.14406658661E+03  0.00000000000E+00 0.  1.
</event>
<event>
 7    1  0.2943257E-009  0.2093229E+03  0.7561462E-02  0.1142103E+00
          1   -1    0    0  501    0  0.00000000000E+00  0.00000000000E+00  0.12491487453E+04  0.12491487453E+04  0.00000000000E+00 0. -1.
         -1   -1    0    0    0  501 -0.00000000000E+00 -0.00000000000E+00 -0.37784175848E+02  0.37784175848E+02  0.00000000000E+00 0.  1.
         25    2    1    2    0    0  0.87623427381E+02  0.16503969808E+03  0.69187124585E+03  0.72749543850E+03  0.12509126765E+03 0.  0.
          5    1    3    3  502    0  0.11256397840E+03  0.85572038613E+02  0.43864879281E+03  0.46089419486E+03  0.41800000000E+01 0.  1.
         -5    1    3    3    0  502 -0.24940551023E+02  0.79467659471E+02  0.25322245304E+03  0.26660124364E+03  0.41800000000E+01 0.  1.
        -11    1    1    2    0    0 -0.15500246686E+02 -0.83525410056E+02  0.33148040102E+03  0.34219293978E+03  0.00000000000E+00 0.  1.
         11    1    1    2    0    0 -0.72123180695E+02 -0.81514288028E+02  0.18801292257E+03  0.21724454285E+03  0.00000000000E+00 0. -1.
</event>
<event>
 7    1  0.2943257E-009  0.2249881E+03  0.7561462E-02  0.1130218E+00
         -1   -1    0    0    0  501 -0.00000000000E+00  0.00000000000E+00  0.92185891340E+02  0.92185891340E+02  0.00000000000E+00 0. -1.
          1   -1    0    0  501    0  0.00000000000E+00 -0.00000000000E+00 -0.12125142882E+04  0.12125142882E+04  0.00000000000E+00 0.  1.
         25    2    1    2    0    0 -0.44659907023E+02  0.21244364856E+03 -0.10175646932E+04  0.10479549957E+04  0.12507980297E+03 0.  0.
          5    1    3    3  502    0  0.85108956829E+01  0.13513514364E+03 -0.79383620861E+03  0.80531195253E+03  0.41800000000E+01 0. -1.
         -5    1    3    3    0  502 -0.53170802705E+02  0.77308504918E+02 -0.22372848460E+03  0.24264304320E+03  0.41800000000E+01 0. -1.
        -11    1    1    2    0    0  0.26201230199E+02 -0.44561150753E+02  0.11336055441E+02  0.52921704180E+02  0.00000000000E+00 0. -1.
         11    1    1    2    0    0  0.18458676823E+02 -0.16788249781E+03 -0.11409975908E+03  0.20382347962E+03  0.00000000000E+00 0.  1.
</event>
<event>
 7    1  0.2943257E-009  0.1766468E+03  0.7561462E-02  0.1171088E+00
         -1   -1    0    0    0  501 -0.00000000000E+00  0.00000000000E+00  0.36264933252E+03  0.36264933252E+03  0.00000000000E+00 0.  1.
          1   -1    0    0  501    0  0.00000000000E+00 -0.00000000000E+00 -0.98751901679E+02  0.98751901679E+02  0.00000000000E+00 0. -1.
         25    2    1    2    0    0 -0.14546464473E+03 -0.16846791289E+02  0.19905825282E+03  0.27697453300E+03  0.12508767594E+03 0.  0.
          5    1    3    3  502    0 -0.16685616907E+03 -0.41763880183E+01  0.16645650298E+03  0.23576187809E+03  0.41800000000E+01 0. -1.
         -5    1    3    3    0  502  0.21391524338E+02 -0.12670403270E+02  0.32601749840E+02  0.41212654915E+02  0.41800000000E+01 0. -1.
        -11    1    1    2    0    0  0.88065204975E+02  0.43049618508E+02  0.60898757761E+01  0.98213219924E+02  0.00000000000E+00 0. -1.
         11    1    1    2    0    0  0.57399439758E+02 -0.26202827220E+02  0.58749302239E+02  0.86213481268E+02  0.00000000000E+00 0.  1.
</event>
<event>
 7    1  0.2943257E-009  0.1042142E+03  0.7561462E-02  0.1271676E+00
          1   -1    0    0  501    0  0.00000000000E+00  0.00000000000E+00  0.10875350398E+03  0.10875350398E+03  0.00000000000E+00 0. -1.
         -1   -1    0    0    0  501 -0.00000000000E+00 -0.00000000000E+00 -0.11388760030E+03  0.11388760030E+03  0.00000000000E+00 0.  1.
         25    2    1    2    0    0 -0.94016852810E+01  0.16560026625E+02 -0.22344104313E+02  0.12849942370E+03  0.12510082624E+03 0.  0.
          5    1    3    3  502    0 -0.35714507500E+02  0.60975671806E+02  0.29692848590E+01  0.70850883204E+02  0.41800000000E+01 0. -1.
         -5    1    3    3    0  502  0.26312822219E+02 -0.44415645182E+02 -0.25313389172E+02  0.57648540497E+02  0.41800000000E+01 0. -1.
        -11    1    1    2    0    0 -0.77621749284E+01 -0.48751063665E+02 -0.77073962132E+01  0.49963201704E+02  0.00000000000E+00 0.  1.
         11    1    1    2    0    0  0.17163860209E+02  0.32191037041E+02  0.24917404208E+02  0.44178478873E+02  0.00000000000E+00 0. -1.
</event>
<event>
 7    1  0.2943257E-009  0.1455503E+03  0.7561462E-02  0.1206050E+00
         -4   -1    0    0    0  501 -0.00000000000E+00  0.00000000000E+00  0.25934477170E+02  0.25934477170E+02  0.00000000000E+00 0.  1.
          4   -1    0    0  501    0  0.00000000000E+00 -0.00000000000E+00 -0.10162601273E+04  0.10162601273E+04  0.00000000000E+00 0. -1.
         25    2    1    2    0    0  0.10664036342E+03  0.46608371976E+02 -0.64827856394E+03  0.67041546851E+03  0.12508915423E+03 0.  0.
          5    1    3    3  502    0  0.90064194049E+02  0.82876098973E+02 -0.38241055466E+03  0.40154117042E+03  0.41800000000E+01 0.  1.
         -5    1    3    3    0  502  0.16576169371E+02 -0.36267726997E+02 -0.26586800928E+03  0.26887429809E+03  0.41800000000E+01 0.  1.
        -11    1    1    2    0    0 -0.24477042513E+02 -0.38976047173E+02 -0.48530474152E+02  0.66883965080E+02  0.00000000000E+00 0.  1.
         11    1    1    2    0    0 -0.82163320906E+02 -0.76323248023E+01 -0.29351661208E+03  0.30489517093E+03  0.00000000000E+00 0. -1.
</event>
<event>
 7    1  0.2943257E-009  0.1203067E+03  0.7561462E-02  0.1242592E+00
          2   -1    0    0  501    0  0.00000000000E+00  0.00000000000E+00  0.17655298552E+03  0.17655298552E+03  0.00000000000E+00 0. -1.
         -2   -1    0    0    0  501 -0.00000000000E+00 -0.00000000000E+00 -0.11728010925E+03  0.11728010925E+03  0.00000000000E+00 0.  1.
         25    2    1    2    0    0  0.72576902350E+02 -0.51101555855E+02  0.18724647683E+01  0.15339370689E+03  0.12508935776E+03 0.  0.
          5    1    3    3  502    0  0.83754788341E+02 -0.11103479738E+02 -0.40612563585E+02  0.93834985764E+02  0.41800000000E+01 0. -1.
         -5    1    3    3    0  502 -0.11177885991E+02 -0.39998076118E+02  0.42485028353E+02  0.59558721129E+02  0.41800000000E+01 0. -1.
        -11    1    1    2    0    0 -0.68927686753E+02  0.61708373285E+01  0.22906393175E+01  0.69241261274E+02  0.00000000000E+00 0.  1.
         11    1    1    2    0    0 -0.36492155979E+01  0.44930718527E+02  0.55109772184E+02  0.71198126604E+02  0.00000000000E+00 0. -1.
</event>
<event>
 7    1  0.2943257E-009  0.1024057E+03  0.7561462E-02  0.1275317E+00
         -2   -1    0    0    0  501 -0.00000000000E+00  0.00000000000E+00  0.80975501363E+02  0.80975501363E+02  0.00000000000E+00 0.  1.
          2   -1    0    0  501    0  0.00000000000E+00 -0.00000000000E+00 -0.26839255396E+03  0.26839255396E+03  0.00000000000E+00 0. -1.
         25    2    1    2    0    0  0.68067243002E+01 -0.90874014186E+02 -0.59640666004E+02  0.16586470224E+03  0.12509865091E+03 0.  0.
          5    1    3    3  502    0 -0.23191538657E+02 -0.33666493679E+02 -0.86513453765E+02  0.95777504375E+02  0.41800000000E+01 0. -1.
         -5    1    3    3    0  502  0.29998262957E+02 -0.57207520506E+02  0.26872787761E+02  0.70087197868E+02  0.41800000000E+01 0. -1.
        -11    1    1    2    0    0 -0.16237528691E+02  0.13719642064E+02  0.11378494679E+02  0.24111326333E+02  0.00000000000E+00 0.  1.
         11    1    1    2    0    0  0.94308043911E+01  0.77154372121E+02 -0.13915488127E+03  0.15939202674E+03  0.00000000000E+00 0. -1.
</event>
<event>
 7    1  0.2943257E-009  0.1264283E+03  0.7561462E-02  0.1232854E+00
         -3   -1    0    0    0  501 -0.00000000000E+00  0.00000000000E+00  0.12340622797E+04  0.12340622797E+04  0.00000000000E+00 0.  1.
          3   -1    0    0  501    0  0.00000000000E+00 -0.00000000000E+00 -0.18647044627E+02  0.18647044627E+02  0.00000000000E+00 0. -1.
         25    2    1    2    0    0 -0.81919483008E+02  0.33521642909E+02  0.89632368008E+03  0.90932823343E+03  0.12508874611E+03 0.  0.
          5    1    3    3  502    0 -0.10733207807E+03  0.39961022104E+02  0.54055971275E+03  0.55257518377E+03  0.41800000000E+01 0.  1.
         -5    1    3    3    0  502  0.25412595060E+02 -0.64393791956E+01  0.35576396732E+03  0.35675304966E+03  0.41800000000E+01 0.  1.
        -11    1    1    2    0    0  0.24690436532E+02 -0.46836725170E+02  0.23438409334E+03  0.24028982437E+03  0.00000000000E+00 0.  1.
         11    1    1    2    0    0  0.57229046476E+02  0.13315082261E+02  0.84707461657E+02  0.10309126654E+03  0.00000000000E+00 0. -1.
</event>
<event>
 7    1  0.2943257E-009  0.1145617E+03  0.7561462E-02  0.1252348E+00
         -4   -1    0    0    0  501 -0.00000000000E+00  0.00000000000E+00  0.62737282234E+02  0.62737282234E+02  0.00000000000E+00 0.  1.
          4   -1    0    0  501    0  0.00000000000E+00 -0.00000000000E+00 -0.25164298580E+03  0.25164298580E+03  0.00000000000E+00 0. -1.
         25    2    1    2    0    0 -0.52106086326E+02 -0.36386222213E+02 -0.11492291258E+03  0.18136668416E+03  0.12509035489E+03 0.  0.
          5    1    3    3  502    0 -0.89191105781E+02 -0.24054220250E+01 -0.80772975012E+02  0.12042668017E+03  0.41800000000E+01 0. -1.
         -5    1    3    3    0  502  0.37085019455E+02 -0.33980800188E+02 -0.34149937571E+02  0.60940003983E+02  0.41800000000E+01 0. -1.
        -11    1    1    2    0    0  0.66234898484E+02  0.23718825688E+02 -0.85570879922E+02  0.11077914948E+03  0.00000000000E+00 0.  1.
         11    1    1    2    0    0 -0.14128812158E+02  0.12667396525E+02  0.11588088936E+02  0.22234434396E+02  0.00000000000E+00 0. -1.
</event>
<event>
 7    1  0.2943257E-009  0.1061072E+03  0.7561462E-02  0.1267953E+00
         -1   -1    0    0    0  501 -0.00000000000E+00  0.00000000000E+00  0.19555815435E+03  0.19555815435E+03  0.00000000000E+00 0.  1.
          1   -1    0    0  501    0  0.00000000000E+00 -0.00000000000E+00 -0.97283224879E+02  0.97283224879E+02  0.00000000000E+00 0. -1.
         25    2    1    2    0    0  0.21278087952E+01 -0.45563074780E+02  0.12981098539E+03  0.18595572668E+03  0.12509244183E+03 0.  0.
          5    1    3    3  502    0  0.41143995301E+02  0.98571305404E+01  0.36373686981E+01  0.42669593657E+02  0.41800000000E+01 0.  1.
         -5    1    3    3    0  502 -0.39016186506E+02 -0.55420205320E+02  0.12617361669E+03  0.14328613302E+03  0.41800000000E+01 0.  1.
        -11    1    1    2    0    0 -0.22715669170E+02  0.67791985823E+02 -0.26051981884E+02  0.76095076896E+02  0.00000000000E+00 0.  1.
         11    1    1    2    0    0  0.20587860375E+02 -0.22228911044E+02 -0.54840740347E+01  0.30790575653E+02  0.00000000000E+00 0. -1.
</event>
<event>
 7    1  0.2943257E-009  0.1246660E+03  0.7561462E-02  0.1235592E+00
          1   -1    0    0  501    0  0.00000000000E+00  0.00000000000E+00  0.47909864776E+03  0.47909864776E+03  0.00000000000E+00 0. -1.
         -1   -1    0    0    0  501 -0.00000000000E+00 -0.00000000000E+00 -0.48044791468E+02  0.48044791468E+02  0.00000000000E+00 0.  1.
         25    2    1    2    0    0  0.62451810289E+02 -0.57916145052E+02  0.11484034650E+03  0.18997386320E+03  0.12508898852E+03 0.  0.
          5    1    3    3  502    0  0.65469715200E+02  0.12894911077E+02  0.16819785051E+02  0.68941568804E+02  0.41800000000E+01 0.  1.
         -5    1    3    3    0  502 -0.30179049111E+01 -0.70811056129E+02  0.98020561445E+02  0.12103229439E+03  0.41800000000E+01 0.  1.
        -11    1    1    2    0    0 -0.14940023868E+02  0.62012805199E+02  0.22959679081E+03  0.23829284225E+03  0.00000000000E+00 0. -1.
         11    1    1    2    0    0 -0.47511786421E+02 -0.40966601468E+01  0.86616718988E+02  0.98876733772E+02  0.00000000000E+00 0.  1.
</event>
<event>
 7    1  0.2943257E-009  0.1072459E+03  0.7561462E-02  0.1265757E+00
         -1   -1    0    0    0  501 -0.00000000000E+00  0.00000000000E+00  0.18273929401E+03  0.18273929401E+03  0.00000000000E+00 0.  1.
          1   -1    0    0  501    0  0.00000000000E+00 -0.00000000000E+00 -0.12376127306E+03  0.12376127306E+03  0.00000000000E+00 0. -1.
         25    2    1    2    0    0 -0.24639464979E+02  0.24408837674E+02  0.13017253941E+03  0.18382846996E+03  0.12508046115E+03 0.  0.
          5    1    3    3  502    0 -0.47273837107E+02 -0.31280011742E+02  0.10318205453E+03  0.11780179789E+03  0.41800000000E+01 0. -1.
         -5    1    3    3    0  502  0.22634372127E+02  0.55688849416E+02  0.26990484880E+02  0.66026672072E+02  0.41800000000E+01 0. -1.
        -11    1    1    2    0    0  0.35261880662E+02 -0.54819905527E+02 -0.34166969671E+02  0.73593505735E+02  0.00000000000E+00 0.  1.
         11    1    1    2    0    0 -0.10622415683E+02  0.30411067853E+02 -0.37027548786E+02  0.49078591381E+02  0.00000000000E+00 0. -1.
</event>
<event>
 7    1  0.2943257E-009  0.1186809E+03  0.7561462E-02  0.1245289E+00
         -2   -1    0    0    0  501 -0.00000000000E+00  0.00000000000E+00  0.10475662224E+03  0.10475662224E+03  0.00000000000E+00 0.  1.
          2   -1    0    0  501    0  0.00000000000E+00 -0.00000000000E+00 -0.35241649167E+03  0.35241649167E+03  0.00000000000E+00 0. -1.
         25    2    1    2    0    0 -0.99475622951E+02 -0.36963268245E+02  0.84033785895E+01  0.16425530865E+03  0.12508999515E+03 0.  0.
          5    1    3    3  502    0 -0.25053608842E+02 -0.19869358813E+02  0.62672075074E+02  0.70482168878E+02  0.41800000000E+01 0.  1.
         -5    1    3    3    0  502 -0.74422014109E+02 -0.17093909432E+02 -0.54268696484E+02  0.93773139768E+02  0.41800000000E+01 0.  1.
        -11    1    1    2    0    0  0.59041959954E+02  0.58254099327E+02 -0.98032852937E+02  0.12841313554E+03  0.00000000000E+00 0.  1.
         11    1    1    2    0    0  0.40433662997E+02 -0.21290831082E+02 -0.15803039508E+03  0.16450466973E+03  0.00000000000E+00 0. -1.
</event>
<event>
 7    1  0.2943257E-009  0.8684501E+02  0.7561462E-02  0.1310677E+00
          2   -1    0    0  501    0  0.00000000000E+00  0.00000000000E+00  0.14789404114E+03  0.14789404114E+03  0.00000000000E+00 0.  1.
         -2   -1    0    0    0  501 -0.00000000000E+00 -0.00000000000E+00 -0.13316426447E+03  0.13316426447E+03  0.00000000000E+00 0. -1.
         25    2    1    2    0    0  0.40587698510E+02 -0.73753574199E+01 -0.71575626543E+02  0.14990773663E+03  0.12508997569E+03 0.  0.
          5    1    3    3  502    0 -0.26740939709E+02 -0.19485704483E+01  0.21645412024E+02  0.34711252426E+02  0.41800000000E+01 0.  1.
         -5    1    3    3    0  502  0.67328638219E+02 -0.54267869716E+01 -0.93221038567E+02  0.11519648420E+03  0.41800000000E+01 0.  1.
        -11    1    1    2    0    0  0.15307374330E+02  0.16203049917E+02 -0.58164663586E+01  0.23036619031E+02  0.00000000000E+00 0. -1.
         11    1    1    2    0    0 -0.55895072839E+02 -0.88276924972E+01  0.92121869571E+02  0.10811394996E+03  0.00000000000E+00 0.  1.
</event>
<event>
 7    1  0.2943257E-009  0.7445702E+02  0.7561462E-02  0.1345561E+00
          2   -1    0    0  501    0  0.00000000000E+00  0.00000000000E+00  0.10919346654E+03  0.10919346654E+03  0.00000000000E+00 0. -1.
         -2   -1    0    0    0  501 -0.00000000000E+00 -0.00000000000E+00 -0.13120626187E+03  0.13120626187E+03  0.00000000000E+00 0.  1.
         25    2    1    2    0    0 -0.35061656693E+02 -0.29374586247E+02 -0.31239753263E+02  0.13680692146E+03  0.12509206805E+03 0.  0.
          5    1    3    3  502    0 -0.29812041010E+02 -0.39034123597E+02  0.40692118536E+02  0.63919805265E+02  0.41800000000E+01 0. -1.
         -5    1    3    3    0  502 -0.52496156832E+01  0.96595373499E+01 -0.71931871799E+02  0.72887116195E+02  0.41800000000E+01 0. -1.
        -11    1    1    2    0    0  0.27997031394E+02 -0.22244422304E+02 -0.22825806947E+02  0.42422465196E+02  0.00000000000E+00 0.  1.
         11    1    1    2    0    0  0.70646252996E+01  0.51619008551E+02  0.32052764878E+02  0.61170341757E+02  0.00000000000E+00 0. -1.
</event>
<event>
 7    1  0.2943257E-009  0.1103121E+03  0.7561462E-02  0.1259993E+00
         -4   -1    0    0    0  501 -0.00000000000E+00  0.00000000000E+00  0.27835444706E+02  0.27835444706E+02  0.00000000000E+00 0.  1.
          4   -1    0    0  501    0  0.00000000000E+00 -0.00000000000E+00 -0.59230323038E+03  0.59230323038E+03  0.00000000000E+00 0. -1.
         25    2    1    2    0    0 -0.37888359246E+02 -0.81804135235E+01 -0.17692223772E+03  0.22011926816E+03  0.12509423281E+03 0.  0.
          5    1    3    3  502    0  0.32182210602E+02  0.34042016103E+02 -0.83796582104E+02  0.96093148101E+02  0.41800000000E+01 0.  1.
         -5    1    3    3    0  502 -0.70070569848E+02 -0.42222429626E+02 -0.93125655616E+02  0.12402612006E+03  0.41800000000E+01 0.  1.
        -11    1    1    2    0    0  0.47276479693E+02  0.37847491943E+02 -0.31960518956E+03  0.32529213850E+03  0.00000000000E+00 0. -1.
         11    1    1    2    0    0 -0.93881204475E+01 -0.29667078419E+02 -0.67940358392E+02  0.74727268423E+02  0.00000000000E+00 0.  1.
</event>
<event>
 7    1  0.2943257E-009  0.1153516E+03  0.7561462E-02  0.1250969E+00
          2   -1    0    0  501    0  0.00000000000E+00  0.00000000000E+00  0.59512078861E+03  0.59512078861E+03  0.00000000000E+00 0.  1.
         -2   -1    0    0    0  501 -0.00000000000E+00 -0.00000000000E+00 -0.23113138873E+02  0.23113138873E+02  0.00000000000E+00 0. -1.
         25    2    1    2    0    0 -0.94233102331E+01  0.43873469017E+02  0.34885250543E+03  0.37330567607E+03  0.12508148214E+03 0.  0.
          5    1    3    3  502    0  0.40893933421E+02 -0.22114828997E+02  0.16642871339E+03  0.17285071158E+03  0.41800000000E+01 0.  1.
         -5    1    3    3    0  502 -0.50317243654E+02  0.65988298013E+02  0.18242379204E+03  0.20045496449E+03  0.41800000000E+01 0.  1.
        -11    1    1    2    0    0 -0.28266368605E+02  0.14255711916E+02  0.67898985485E+02  0.74916521183E+02  0.00000000000E+00 0.  1.
         11    1    1    2    0    0  0.37689678838E+02 -0.58129180933E+02  0.15525615882E+03  0.17001173024E+03  0.00000000000E+00 0. -1.
</event>
<event>
 7    1  0.2943257E-009  0.1271494E+03  0.7561462E-02  0.1231748E+00
          1   -1    0    0  501    0  0.00000000000E+00  0.00000000000E+00  0.17932652821E+03  0.17932652821E+03  0.00000000000E+00 0. -1.
         -1   -1    0    0    0  501 -0.00000000000E+00 -0.00000000000E+00 -0.20618928799E+03  0.20618928799E+03  0.00000000000E+00 0.  1.
         25    2    1    2    0    0  0.42002246619E+02 -0.52432281382E+02 -0.15648366707E+03  0.21132384864E+03  0.12512912567E+03 0.  0.
          5    1    3    3  502    0  0.86026689044E+02 -0.31169966301E+02 -0.87527506248E+02  0.12669133663E+03  0.41800000000E+01 0.  1.
         -5    1    3    3    0  502 -0.44024442424E+02 -0.21262315080E+02 -0.68956160826E+02  0.84632512010E+02  0.41800000000E+01 0.  1.
        -11    1    1    2    0    0 -0.71296346810E+02  0.33660659231E+02  0.10613239609E+03  0.13221306497E+03  0.00000000000E+00 0. -1.
         11    1    1    2    0    0  0.29294100190E+02  0.18771622150E+02  0.23488511203E+02  0.41978902590E+02  0.00000000000E+00 0.  1.
</event>
<event>
 7    1  0.2943257E-009  0.6633289E+02  0.7561462E-02  0.1373027E+00
         -1   -1    0    0    0  501 -0.00000000000E+00  0.00000000000E+00  0.41523624901E+02  0.41523624901E+02  0.00000000000E+00 0.  1.
          1   -1    0    0  501    0  0.00000000000E+00 -0.00000000000E+00 -0.30208745910E+03  0.30208745910E+03  0.00000000000E+00 0. -1.
         25    2    1    2    0    0 -0.19902886328E+02 -0.91497721380E+01 -0.18240303737E+03  0.22226167047E+03  0.12509811711E+03 0.  0.
          5    1    3    3  502    0 -0.10730475075E+01  0.11118714319E+02 -0.19223532431E+03  0.19260495723E+03  0.41800000000E+01 0. -1.
         -5    1    3    3    0  502 -0.18829838820E+02 -0.20268486457E+02  0.98322869434E+01  0.29656713233E+02  0.41800000000E+01 0. -1.
        -11    1    1    2    0    0 -0.28817124647E+02  0.28320091559E+02 -0.36319442980E+02  0.54328226524E+02  0.00000000000E+00 0. -1.
         11    1    1    2    0    0  0.48720010974E+02 -0.19170319421E+02 -0.41841353854E+02  0.67021187011E+02  0.00000000000E+00 0.  1.
</event>
<event>
 7    1  0.2943257E-009  0.1574835E+03  0.7561462E-02  0.1191568E+00
         -2   -1    0    0    0  501 -0.00000000000E+00  0.00000000000E+00  0.15859240452E+03  0.15859240452E+03  0.00000000000E+00 0.  1.
          2   -1    0    0  501    0  0.00000000000E+00 -0.00000000000E+00 -0.16016049308E+03  0.16016049308E+03  0.00000000000E+00 0. -1.
         25    2    1    2    0    0  0.10675278190E+03 -0.45259422232E+02 -0.90106448286E+01  0.17080203841E+03  0.12509025886E+03 0.  0.
          5    1    3    3  502    0 -0.80496145139E+01  0.30480897975E+02  0.60786703033E+01  0.32377524116E+02  0.41800000000E+01 0.  1.
         -5    1    3    3    0  502  0.11480239641E+03 -0.75740320207E+02 -0.15089315132E+02  0.13842451430E+03  0.41800000000E+01 0.  1.
        -11    1    1    2    0    0 -0.10569474506E+03  0.66123694942E+02 -0.27525315162E+01  0.12470484592E+03  0.00000000000E+00 0. -1.
         11    1    1    2    0    0 -0.10580368348E+01 -0.20864272710E+02  0.10195087786E+02  0.23246013263E+02  0.00000000000E+00 0.  1.
</event>
<event>
 7    1  0.2943257E-009  0.1311076E+03  0.7561462E-02  0.1225821E+00
         -1   -1    0    0    0  501 -0.00000000000E+00  0.00000000000E+00  0.55426255455E+03  0.55426255455E+03  0.00000000000E+00 0.  1.
          1   -1    0    0  501    0  0.00000000000E+00 -0.00000000000E+00 -0.54555404498E+02  0.54555404498E+02  0.00000000000E+00 0. -1.
         25    2    1    2    0    0 -0.73347306620E+02 -0.20783325316E+02  0.69417945162E+02  0.16210471348E+03  0.12508922025E+03 0.  0.
          5    1    3    3  502    0  0.32754164102E+02  0.54786643967E+01  0.18225945289E+01  0.33520818612E+02  0.41800000000E+01 0.  1.
         -5    1    3    3    0  502 -0.10610147072E+03 -0.26261989713E+02  0.67595350633E+02  0.12858389487E+03  0.41800000000E+01 0.  1.
        -11    1    1    2    0    0 -0.11668101544E+02  0.31576099356E+02  0.10136555915E+03  0.10680904094E+03  0.00000000000E+00 0.  1.
         11    1    1    2    0    0  0.85015408164E+02 -0.10792774039E+02  0.32892364574E+03  0.33990420462E+03  0.00000000000E+00 0. -1.
</event>
<event>
 7    1  0.2943257E-009  0.5987235E+02  0.7561462E-02  0.1398368E+00
          2   -1    0    0  501    0  0.00000000000E+00  0.00000000000E+00  0.94991516908E+02  0.94991516908E+02  0.00000000000E+00 0. -1.
         -2   -1    0    0    0  501 -0.00000000000E+00 -0.00000000000E+00 -0.14190900540E+03  0.14190900540E+03  0.00000000000E+00 0.  1.
         25    2    1    2    0    0  0.37155524905E+02 -0.92856660384E+01 -0.11595583251E+02  0.13131257660E+03  0.12506709638E+03 0.  0.
          5    1    3    3  502    0 -0.77989410529E+01 -0.29884589247E+02 -0.56409624340E+02  0.64447112225E+02  0.41800000000E+01 0.  1.
         -5    1    3    3    0  502  0.44954465958E+02  0.20598923209E+02  0.44814041088E+02  0.66865464371E+02  0.41800000000E+01 0.  1.
        -11    1    1    2    0    0 -0.11249765625E+02 -0.49720195615E+00  0.31394512826E+02  0.33352958969E+02  0.00000000000E+00 0. -1.
         11    1    1    2    0    0 -0.25905759280E+02  0.97828679946E+01 -0.66716418064E+02  0.72234986740E+02  0.00000000000E+00 0.  1.
</event>
<event>
 6    1  0.2943257E-009  0.9509401E+02  0.7561462E-02  0.1290964E+00
         -2   -1    0    0    0  501 -0.00000000000E+00  0.00000000000E+00  0.51980152370E+02  0.51980152370E+02  0.00000000000E+00 0.  1.
          2   -1    0    0  501    0  0.00000000000E+00 -0.00000000000E+00 -0.26868714007E+03  0.26868714007E+03  0.00000000000E+00 0. -1.
          5    1    1    2  502    0 -0.38442779065E+02  0.43570235973E+02 -0.17072796377E+03  0.18039324471E+03  0.41800000000E+01 0. -1.
         -5    1    1    2    0  502  0.27710213351E+02 -0.25433795430E+02 -0.79391366181E+01  0.38668283698E+02  0.41800000000E+01 0. -1.
        -11    1    1    2    0    0  0.18647591153E+00 -0.55379976902E+02 -0.24987085976E+02  0.60756325437E+02  0.00000000000E+00 0. -1.
         11    1    1    2    0    0  0.10546089803E+02  0.37243536359E+02 -0.13052801337E+02  0.40849438594E+02  0.00000000000E+00 0.  1.
</event>
<event>
 7    1  0.2943257E-009  0.1129921E+03  0.7561462E-02  0.1255127E+00
          2   -1    0    0  501    0  0.00000000000E+00  0.00000000000E+00  0.19658378822E+03  0.19658378822E+03  0.00000000000E+00 0. -1.
         -2   -1    0    0    0  501 -0.00000000000E+00 -0.00000000000E+00 -0.73899762118E+02  0.73899762118E+02  0.00000000000E+00 0.  1.
         25    2    1    2    0    0 -0.61858360831E+00 -0.41144203932E+02  0.10799876627E+03  0.17030450649E+03  0.12508662300E+03 0.  0.
          5    1    3    3  502    0  0.42384629962E+02 -0.65653475821E+02  0.85082040911E+02  0.11559957539E+03  0.41800000000E+01 0.  1.
         -5    1    3    3    0  502 -0.43003213571E+02  0.24509271889E+02  0.22916725359E+02  0.54704931104E+02  0.41800000000E+01 0.  1.
        -11    1    1    2    0    0  0.44793672933E+02  0.22071511186E+02  0.14726595938E+02  0.52062437215E+02  0.00000000000E+00 0.  1.
         11    1    1    2    0    0 -0.44175089324E+02  0.19072692746E+02 -0.41336102473E-01  0.48116606635E+02  0.00000000000E+00 0. -1.
</event>
<event>
 7    1  0.2943257E-009  0.1096218E+03  0.7561462E-02  0.1261272E+00
          1   -1    0    0  501    0  0.00000000000E+00  0.00000000000E+00  0.49503780932E+02  0.49503780932E+02  0.00000000000E+00 0. -1.
         -1   -1    0    0    0  501 -0.00000000000E+00 -0.00000000000E+00 -0.41012763012E+03  0.41012763012E+03  0.00000000000E+00 0.  1.
         25    2    1    2    0    0 -0.81895350334E+02  0.35814539168E+02 -0.23136883936E+03  0.27779261695E+03  0.12509064147E+03 0.  0.
          5    1    3    3  502    0 -0.46838046213E+02  0.10669791501E+02 -0.63484130895E+01  0.48635601904E+02  0.41800000000E+01 0. -1.
         -5    1    3    3    0  502 -0.35057304121E+02  0.25144747667E+02 -0.22502042627E+03  0.22915701505E+03  0.41800000000E+01 0. -1.
        -11    1    1    2    0    0  0.82731723604E+02  0.86722009589E+01 -0.79055097373E+02  0.11475823971E+03  0.00000000000E+00 0. -1.
         11    1    1    2    0    0 -0.83637326954E+00 -0.44486740127E+02 -0.50199912460E+02  0.67080554398E+02  0.00000000000E+00 0.  1.
</event>
<event>
 7    1  0.2943257E-009  0.9172123E+02  0.7561462E-02  0.1298736E+00
          1   -1    0    0  501    0  0.00000000000E+00  0.00000000000E+00  0.17227849991E+03  0.17227849991E+03  0.00000000000E+00 0. -1.
         -1   -1    0    0    0  501 -0.00000000000E+00 -0.00000000000E+00 -0.73086963685E+02  0.73086963685E+02  0.00000000000E+00 0.  1.
         25    2    1    2    0    0 -0.84211079334E+01  0.77746823794E+01  0.31811566252E+02  0.12957795373E+03  0.12508840714E+03 0.  0.
          5    1    3    3  502    0  0.52535193890E+02  0.72410033445E+01  0.41814031385E+02  0.67662872738E+02  0.41800000000E+01 0.  1.
         -5    1    3    3    0  502 -0.60956301824E+02  0.53367903491E+00 -0.10002465133E+02  0.61915080991E+02  0.41800000000E+01 0.  1.
        -11    1    1    2    0    0  0.33360400764E+02 -0.22446889374E+02 -0.23648646586E+01  0.40278676326E+02  0.00000000000E+00 0.  1.
         11    1    1    2    0    0 -0.24939292831E+02  0.14672206994E+02  0.69744834631E+02  0.75508833541E+02  0.00000000000E+00 0. -1.
</event>
<event>
 7    1  0.2943257E-009  0.1948594E+03  0.7561462E-02  0.1154150E+00
          3   -1    0    0  501    0  0.00000000000E+00  0.00000000000E+00  0.13529814128E+03  0.13529814128E+03  0.00000000000E+00 0. -1.
         -3   -1    0    0    0  501 -0.00000000000E+00 -0.00000000000E+00 -0.34744219283E+03  0.34744219283E+03  0.00000000000E+00 0.  1.
         25    2    1    2    0    0  0.12044112182E+03  0.13867282265E+03 -0.15299030073E+03  0.26979733862E+03  0.12509339009E+03 0.  0.
          5    1    3    3  502    0  0.11114621398E+03  0.13437574547E+03 -0.17379416040E+03  0.24623607461E+03  0.41800000000E+01 0.  1.
         -5    1    3    3    0  502  0.92949078408E+01  0.42970771885E+01  0.20803859678E+02  0.23561264008E+02  0.41800000000E+01 0.  1.
        -11    1    1    2    0    0 -0.27930249688E+02 -0.10021872361E+03 -0.36260890615E+02  0.11017596652E+03  0.00000000000E+00 0.  1.
         11    1    1    2    0    0 -0.92510872129E+02 -0.38454099042E+02 -0.22892860204E+02  0.10276702897E+03  0.00000000000E+00 0. -1.
</event>
<event>
 7    1  0.2943257E-009  0.9603560E+02  0.7561462E-02  0.1288861E+00
         -2   -1    0    0    0  501 -0.00000000000E+00  0.00000000000E+00  0.22038227655E+03  0.22038227655E+03  0.00000000000E+00 0.  1.
          2   -1    0    0  501    0  0.00000000000E+00 -0.00000000000E+00 -0.64614072939E+02  0.64614072939E+02  0.00000000000E+00 0. -1.
         25    2    1    2    0    0  0.13371826590E+02 -0.28740999432E+02  0.13142976417E+03  0.18419404559E+03  0.12509521464E+03 0.  0.
          5    1    3    3  502    0  0.40607640502E+02 -0.60403130199E+02  0.12047258560E+03  0.14081418567E+03  0.41800000000E+01 0.  1.
         -5    1    3    3    0  502 -0.27235813912E+02  0.31662130768E+02  0.10957178573E+02  0.43379859918E+02  0.41800000000E+01 0.  1.
        -11    1    1    2    0    0 -0.24406352132E+01 -0.23598903187E+02  0.38740113409E+02  0.45427539211E+02  0.00000000000E+00 0.  1.
         11    1    1    2    0    0 -0.10931191377E+02  0.52339902618E+02 -0.14401673973E+02  0.55374764688E+02  0.00000000000E+00 0. -1.
</event>
<event>
 7    1  0.2943257E-009  0.1276104E+03  0.7561462E-02  0.1231045E+00
          3   -1    0    0  501    0  0.00000000000E+00  0.00000000000E+00  0.30811491803E+03  0.30811491803E+03  0.00000000000E+00 0. -1.
         -3   -1    0    0    0  501 -0.00000000000E+00 -0.00000000000E+00 -0.78028882458E+02  0.78028882458E+02  0.00000000000E+00 0.  1.
         25    2    1    2    0    0 -0.77012733755E+02 -0.45340746280E+02  0.20245713742E+03  0.25420465288E+03  0.12507745049E+03 0.  0.
          5    1    3    3  502    0  0.15317701302E+02 -0.29787581809E+02  0.30780790290E+01  0.33895117255E+02  0.41800000000E+01 0.  1.
         -5    1    3    3    0  502 -0.92330435056E+02 -0.15553164470E+02  0.19937905839E+03  0.22030953562E+03  0.41800000000E+01 0.  1.
        -11    1    1    2    0    0  0.59646190200E+02 -0.17808134555E+02  0.42300380799E+01  0.62391432776E+02  0.00000000000E+00 0.  1.
         11    1    1    2    0    0  0.17366543555E+02  0.63148880834E+02  0.23398860072E+02  0.69547714832E+02  0.00000000000E+00 0. -1.
</event>
<event>
 7    1  0.2943257E-009  0.1194742E+03  0.7561462E-02  0.1243967E+00
         -1   -1    0    0    0  501 -0.00000000000E+00  0.00000000000E+00  0.72488668494E+02  0.72488668494E+02  0.00000000000E+00 0.  1.
          1   -1    0    0  501    0  0.00000000000E+00 -0.00000000000E+00 -0.39273961235E+03  0.39273961235E+03  0.00000000000E+00 0. -1.
         25    2    1    2    0    0  0.66381804165E+02 -0.35062879118E+02 -0.31442319921E+03  0.34662374189E+03  0.12510044294E+03 0.  0.
          5    1    3    3  502    0  0.53241030299E+02 -0.72192536320E+02 -0.13002696416E+03  0.15802168654E+03  0.41800000000E+01 0. -1.
         -5    1    3    3    0  502  0.13140773866E+02  0.37129657202E+02 -0.18439623505E+03  0.18860205535E+03  0.41800000000E+01 0. -1.
        -11    1    1    2    0    0  0.18101299546E+02  0.77745374811E-01  0.16482941181E+02  0.24481634740E+02  0.00000000000E+00 0.  1.
         11    1    1    2    0    0 -0.84483103711E+02  0.34985133744E+02 -0.22310685827E+02  0.94122904214E+02  0.00000000000E+00 0. -1.
</event>
<event>
 7    1  0.2943257E-009  0.1229800E+03  0.7561462E-02  0.1238260E+00
         -1   -1    0    0    0  501 -0.00000000000E+00  0.00000000000E+00  0.17245117725E+02  0.17245117725E+02  0.00000000000E+00 0.  1.
          1   -1    0    0  501    0  0.00000000000E+00 -0.00000000000E+00 -0.98663375972E+03  0.98663375972E+03  0.00000000000E+00 0. -1.
         25    2    1    2    0    0 -0.60126781062E+02 -0.37065646710E+02 -0.57088966121E+03  0.58868660212E+03  0.12509123982E+03 0.  0.
          5    1    3    3  502    0  0.17475621339E+01 -0.63410361195E+02 -0.39952834369E+03  0.40455444342E+03  0.41800000000E+01 0.  1.
         -5    1    3    3    0  502 -0.61874343195E+02  0.26344714485E+02 -0.17136131752E+03  0.18413215871E+03  0.41800000000E+01 0.  1.
        -11    1    1    2    0    0  0.63477973260E+02 -0.13029693550E+02 -0.19051860472E+03  0.20123758284E+03  0.00000000000E+00 0.  1.
         11    1    1    2    0    0 -0.33511921984E+01  0.50095340260E+02 -0.20798037607E+03  0.21395469248E+03  0.00000000000E+00 0. -1.
</event>
<event>
 7    1  0.2943257E-009  0.1066290E+03  0.7561462E-02  0.1266943E+00
         -2   -1    0    0    0  501 -0.00000000000E+00  0.00000000000E+00  0.14039476265E+03  0.14039476265E+03  0.00000000000E+00 0.  1.
          2   -1    0    0  501    0  0.00000000000E+00 -0.00000000000E+00 -0.13364995790E+03  0.13364995790E+03  0.00000000000E+00 0. -1.
         25    2    1    2    0    0 -0.34755415063E+02 -0.52307654783E+02 -0.51690887638E+02  0.14920828858E+03  0.12508851222E+03 0.  0.
          5    1    3    3  502    0 -0.19268958601E+02  0.33617394838E+02  0.12312375780E+02  0.40871616050E+02  0.41800000000E+01 0. -1.
         -5    1    3    3    0  502 -0.15486456462E+02 -0.85925049621E+02 -0.64003263418E+02  0.10833667253E+03  0.41800000000E+01 0. -1.
        -11    1    1    2    0    0  0.65637549572E+01  0.57785034182E+02 -0.17145858063E+01  0.58181894598E+02  0.00000000000E+00 0. -1.
         11    1    1    2    0    0  0.28191660106E+02 -0.54773793989E+01  0.60150278197E+02  0.66654537368E+02  0.00000000000E+00 0.  1.
</event>
<event>
 7    1  0.2943257E-009  0.1118729E+03  0.7561462E-02  0.1257140E+00
          2   -1    0    0  501    0  0.00000000000E+00  0.00000000000E+00  0.27425638069E+03  0.27425638069E+03  0.00000000000E+00 0. -1.
         -2   -1    0    0    0  501 -0.00000000000E+00 -0.00000000000E+00 -0.71019687369E+02  0.71019687369E+02  0.00000000000E+00 0.  1.
         25    2    1    2    0    0 -0.48060026985E+02 -0.61244527277E+02  0.16718332341E+03  0.22283920943E+03  0.12508553601E+03 0.  0.
          5    1    3    3  502    0 -0.72530448012E+02 -0.64061635816E+02  0.17199697760E+03  0.19739552116E+03  0.41800000000E+01 0.  1.
         -5    1    3    3    0  502  0.24470421027E+02  0.28171085388E+01 -0.48136541941E+01  0.25443688264E+02  0.41800000000E+01 0.  1.
        -11    1    1    2    0    0  0.61574265452E+02  0.63211169472E+02  0.48518036068E+01  0.88377497759E+02  0.00000000000E+00 0.  1.
         11    1    1    2    0    0 -0.13514238467E+02 -0.19666421944E+01  0.31201566305E+02  0.34059360868E+02  0.00000000000E+00 0. -1.
</event>
<event>
 7    1  0.2943257E-009  0.7446460E+02  0.7561462E-02  0.1345537E+00
         -4   -1    0    0    0  501 -0.00000000000E+00  0.00000000000E+00  0.37230263624E+02  0.37230263624E+02  0.00000000000E+00 0. -1.
          4   -1    0    0  501    0  0.00000000000E+00 -0.00000000000E+00 -0.53853688051E+03  0.53853688051E+03  0.00000000000E+00 0.  1.
         25    2    1    2    0    0  0.17985236730E+02  0.21132750728E+02 -0.23687992511E+03  0.26931381100E+03  0.12509103878E+03 0.  0.
          5    1    3    3  502    0  0.57654486869E+01  0.15889905839E+02 -0.24974160370E+03  0.25034789898E+03  0.41800000000E+01 0. -1.
         -5    1    3    3    0  502  0.12219788044E+02  0.52428448896E+01  0.12861678593E+02  0.18965912016E+02  0.41800000000E+01 0. -1.
        -11    1    1    2    0    0 -0.61748022241E+02 -0.35857563436E+02 -0.24697803985E+03  0.25709285341E+03  0.00000000000E+00 0.  1.
         11    1    1    2    0    0  0.43762785510E+02  0.14724812708E+02 -0.17448651932E+02  0.49360479730E+02  0.00000000000E+00 0. -1.
</event>
<event>
 7    1  0.2943257E-009  0.8287481E+02  0.7561462E-02  0.1321086E+00
         -1   -1    0    0    0  501 -0.00000000000E+00  0.00000000000E+00  0.85371648479E+02  0.85371648479E+02  0.00000000000E+00 0.  1.
          1   -1    0    0  501    0  0.00000000000E+00 -0.00000000000E+00 -0.13898447037E+03  0.13898447037E+03  0.00000000000E+00 0. -1.
         25    2    1    2    0    0 -0.12601101002E+02 -0.36867189094E+00 -0.24171103863E+02  0.12802324639E+03  0.12508711240E+03 0.  0.
          5    1    3    3  502    0  0.31750943239E+02  0.20764052523E+02 -0.57136223059E+02  0.68711634089E+02  0.41800000000E+01 0. -1.
         -5    1    3    3    0  502 -0.44352044241E+02 -0.21132724414E+02  0.32965119196E+02  0.59311612296E+02  0.41800000000E+01 0. -1.
        -11    1    1    2    0    0  0.31071955927E+02  0.30108495831E+02  0.91545081689E+01  0.44224348341E+02  0.00000000000E+00 0.  1.
         11    1    1    2    0    0 -0.18470854925E+02 -0.29739823940E+02 -0.38596226199E+02  0.52108524125E+02  0.00000000000E+00 0. -1.
</event>
<event>
 7    1  0.2943257E-009  0.1110796E+03  0.7561462E-02  0.1258584E+00
         -1   -1    0    0    0  501 -0.00000000000E+00  0.00000000000E+00  0.24329022985E+03  0.24329022985E+03  0.00000000000E+00 0.  1.
          1   -1    0    0  501    0  0.00000000000E+00 -0.00000000000E+00 -0.84580578983E+02  0.84580578983E+02  0.00000000000E+00 0. -1.
         25    2    1    2    0    0  0.43631378230E+02 -0.25614811830E+02  0.17612692428E+03  0.22188571207E+03  0.12511099077E+03 0.  0.
          5    1    3    3  502    0 -0.92639449449E+01  0.43826074524E+02  0.40454051649E+02  0.60502464238E+02  0.41800000000E+01 0.  1.
         -5    1    3    3    0  502  0.52895323175E+02 -0.69440886354E+02  0.13567287263E+03  0.16138324783E+03  0.41800000000E+01 0.  1.
        -11    1    1    2    0    0 -0.96210253271E+01  0.48069859494E+02  0.17767504862E+02  0.52143645338E+02  0.00000000000E+00 0.  1.
         11    1    1    2    0    0 -0.34010352903E+02 -0.22455047664E+02 -0.35184778273E+02  0.53841451432E+02  0.00000000000E+00 0. -1.
</event>
<event>
 7    1  0.2943257E-009  0.3036546E+03  0.7561462E-02  0.1083428E+00
          2   -1    0    0  501    0  0.00000000000E+00  0.00000000000E+00  0.34668840523E+03  0.34668840523E+03  0.00000000000E+00 0. -1.
         -2   -1    0    0    0  501 -0.00000000000E+00 -0.00000000000E+00 -0.29009787118E+03  0.29009787118E+03  0.00000000000E+00 0.  1.
         25    2    1    2    0    0 -0.58275493264E+02 -0.28772266112E+03 -0.18860611458E+02  0.31965970029E+03  0.12508492509E+03 0.  0.
          5    1    3    3  502    0  0.28373216963E+02 -0.43307290583E+02  0.23251538944E+02  0.56909290294E+02  0.41800000000E+01 0. -1.
         -5    1    3    3    0  502 -0.86648710227E+02 -0.24441537054E+03 -0.42112150402E+02  0.26275040999E+03  0.41800000000E+01 0. -1.
        -11    1    1    2    0    0  0.47218486866E+00  0.90321353369E+02 -0.16502831351E+02  0.91817826568E+02  0.00000000000E+00 0.  1.
         11    1    1    2    0    0  0.57803308396E+02  0.19740130775E+03  0.91953976863E+02  0.22530874955E+03  0.00000000000E+00 0. -1.
</event>
<event>
 7    1  0.2943257E-009  0.1346781E+03  0.7561462E-02  0.1220675E+00
         -1   -1    0    0    0  501 -0.00000000000E+00  0.00000000000E+00  0.32427683803E+03  0.32427683803E+03  0.00000000000E+00 0.  1.
          1   -1    0    0  501    0  0.00000000000E+00 -0.00000000000E+00 -0.56115421860E+02  0.56115421860E+02  0.00000000000E+00 0. -1.
         25    2    1    2    0    0 -0.80428207950E+02 -0.21885269436E+01  0.14562348062E+03  0.20815128703E+03  0.12508906387E+03 0.  0.
          5    1    3    3  502    0  0.20867968290E+02 -0.35719910693E+02  0.34399208106E+02  0.53964451622E+02  0.41800000000E+01 0. -1.
         -5    1    3    3    0  502 -0.10129617624E+03  0.33531383749E+02  0.11122427251E+03  0.15418683541E+03  0.41800000000E+01 0. -1.
        -11    1    1    2    0    0  0.98688894725E+02  0.13355676733E+02  0.98940567774E+02  0.14038200737E+03  0.00000000000E+00 0.  1.
         11    1    1    2    0    0 -0.18260686774E+02 -0.11167149789E+02  0.23597367779E+02  0.31858965488E+02  0.00000000000E+00 0. -1.
</event>
<event>
 7    1  0.2943257E-009  0.1423987E+03  0.7561462E-02  0.1210137E+00
         -1   -1    0    0    0  501 -0.00000000000E+00  0.00000000000E+00  0.16496411001E+03  0.16496411001E+03  0.00000000000E+00 0.  1.
          1   -1    0    0  501    0  0.00000000000E+00 -0.00000000000E+00 -0.32160680380E+03  0.32160680380E+03  0.00000000000E+00 0. -1.
         25    2    1    2    0    0 -0.21374918931E+02 -0.99539429222E+02 -0.26720861925E+03  0.31210705566E+03  0.12508150488E+03 0.  0.
          5    1    3    3  502    0  0.43156978851E+02 -0.20907585662E+02 -0.14645710363E+03  0.15416487137E+03  0.41800000000E+01 0. -1.
         -5    1    3    3    0  502 -0.64531897782E+02 -0.78631843560E+02 -0.12075151562E+03  0.15794218429E+03  0.41800000000E+01 0. -1.
        -11    1    1    2    0    0 -0.28550575668E+02  0.65247614107E+01  0.26852649403E+02  0.39733772315E+02  0.00000000000E+00 0.  1.
         11    1    1    2    0    0  0.49925494599E+02  0.93014667811E+02  0.83713276066E+02  0.13473008583E+03  0.00000000000E+00 0. -1.
</event>
<event>
 7    1  0.2943257E-009  0.5817294E+02  0.7561462E-02  0.1405663E+00
         -1   -1    0    0    0  501 -0.00000000000E+00  0.00000000000E+00  0.53161054406E+02  0.53161054406E+02  0.00000000000E+00 0.  1.
          1   -1    0    0  501    0  0.00000000000E+00 -0.00000000000E+00 -0.37995746666E+03  0.37995746666E+03  0.00000000000E+00 0. -1.
         25    2    1    2    0    0 -0.18004255614E+02 -0.61862111290E+01 -0.31487459643E+03  0.33934562838E+03  0.12508805538E+03 0.  0.
          5    1    3    3  502    0 -0.48660521319E+01 -0.71907327485E+01 -0.32311073345E+03  0.32325439451E+03  0.41800000000E+01 0. -1.
         -5    1    3    3    0  502 -0.13138203482E+02  0.10045216195E+01  0.82361370222E+01  0.16091233870E+02  0.41800000000E+01 0. -1.
        -11    1    1    2    0    0 -0.16546070402E+02 -0.35247037238E+02 -0.74080338571E+01  0.39635906013E+02  0.00000000000E+00 0. -1.
         11    1    1    2    0    0  0.34550326016E+02  0.41433248367E+02 -0.45137819691E+01  0.54136986670E+02  0.00000000000E+00 0.  1.
</event>
<event>
 7    1  0.2943257E-009  0.1436752E+03  0.7561462E-02  0.1208468E+00
         -1   -1    0    0    0  501 -0.00000000000E+00  0.00000000000E+00  0.48636227588E+03  0.48636227588E+03  0.00000000000E+00 0.  1.
          1   -1    0    0  501    0  0.00000000000E+00 -0.00000000000E+00 -0.53135669888E+02  0.53135669888E+02  0.00000000000E+00 0. -1.
         25    2    1    2    0    0  0.17230815516E+02  0.11721296691E+03  0.25901075827E+03  0.31108802884E+03  0.12511358109E+03 0.  0.
          5    1    3    3  502    0  0.55669071415E+02  0.36458005011E+02  0.17899217888E+03  0.19100760231E+03  0.41800000000E+01 0. -1.
         -5    1    3    3    0  502 -0.38438255899E+02  0.80754961894E+02  0.80018579392E+02  0.12008042653E+03  0.41800000000E+01 0. -1.
        -11    1    1    2    0    0 -0.37185042000E+02 -0.60441083384E+02  0.40332632992E+02  0.81624586940E+02  0.00000000000E+00 0. -1.
         11    1    1    2    0    0  0.19954226484E+02 -0.56771883522E+02  0.13388321473E+03  0.14678532999E+03  0.00000000000E+00 0.  1.
</event>
<event>
 7    1  0.2943257E-009  0.1137768E+03  0.7561462E-02  0.1253731E+00
          1   -1    0    0  501    0  0.00000000000E+00  0.00000000000E+00  0.72659326220E+03  0.72659326220E+03  0.00000000000E+00 0. -1.
         -1   -1    0    0    0  501 -0.00000000000E+00 -0.00000000000E+00 -0.18966389193E+02  0.18966389193E+02  0.00000000000E+00 0.  1.
         25    2    1    2    0    0 -0.13565198562E+02 -0.44694038436E+02  0.44450621324E+03  0.46412841318E+03  0.12509132115E+03 0.  0.
          5    1    3    3  502    0  0.25466612404E+02 -0.75924581183E+02  0.22204286947E+03  0.23607964473E+03  0.41800000000E+01 0.  1.
         -5    1    3    3    0  502 -0.39031810966E+02  0.31230542747E+02  0.22246334377E+03  0.22804876845E+03  0.41800000000E+01 0.  1.
        -11    1    1    2    0    0  0.15522247235E+02 -0.23943428701E+02  0.50577540877E+02  0.58071641774E+02  0.00000000000E+00 0. -1.
         11    1    1    2    0    0 -0.19570486731E+01  0.68637467137E+02  0.21254311889E+03  0.22335959644E+03  0.00000000000E+00 0.  1.
</event>
<event>
 7    1  0.2943257E-009  0.6301845E+02  0.7561462E-02  0.1385584E+00
          2   -1    0    0  501    0  0.00000000000E+00  0.00000000000E+00  0.32641093494E+03  0.32641093494E+03  0.00000000000E+00 0. -1.
         -2   -1    0    0    0  501 -0.00000000000E+00 -0.00000000000E+00 -0.49302874255E+02  0.49302874255E+02  0.00000000000E+00 0.  1.
         25    2    1    2    0    0  0.93083157759E+01  0.28935685784E+02  0.23171326438E+03  0.26506861866E+03  0.12508563889E+03 0.  0.
          5    1    3    3  502    0  0.12658652297E+02  0.19045396195E+02  0.24588173455E+03  0.24697827511E+03  0.41800000000E+01 0.  1.
         -5    1    3    3    0  502 -0.33503365208E+01  0.98902895885E+01 -0.14168470165E+02  0.18090343551E+02  0.41800000000E+01 0.  1.
        -11    1    1    2    0    0 -0.39463864458E+02 -0.42916441772E+02  0.52688634624E+01  0.58540400533E+02  0.00000000000E+00 0.  1.
         11    1    1    2    0    0  0.30155548683E+02  0.13980755988E+02  0.40125932839E+02  0.52104789996E+02  0.00000000000E+00 0. -1.
</event>
<event>
 7    1  0.2943257E-009  0.9414318E+02  0.7561462E-02  0.1293118E+00
          2   -1    0    0  501    0  0.00000000000E+00  0.00000000000E+00  0.33994906356E+03  0.33994906356E+03  0.00000000000E+00 0. -1.
         -2   -1    0    0    0  501 -0.00000000000E+00 -0.00000000000E+00 -0.36356420989E+02  0.36356420989E+02  0.00000000000E+00 0.  1.
         25    2    1    2    0    0  0.15264196997E+02  0.97619621376E+01  0.20355606320E+03  0.23960866783E+03  0.12509576818E+03 0.  0.
          5    1    3    3  502    0  0.16918790299E+02  0.52799771711E+02  0.35261349015E+02  0.65839930834E+02  0.41800000000E+01 0. -1.
         -5    1    3    3    0  502 -0.16545933022E+01 -0.43037809573E+02  0.16829471419E+03  0.17376873699E+03  0.41800000000E+01 0. -1.
        -11    1    1    2    0    0 -0.61584584612E+01 -0.48871117723E+02  0.35612055070E+02  0.60782655622E+02  0.00000000000E+00 0. -1.
         11    1    1    2    0    0 -0.91057385357E+01  0.39109155586E+02  0.64424524300E+02  0.75914161104E+02  0.00000000000E+00 0.  1.
</event>
<event>
 7    1  0.2943257E-009  0.1077287E+03  0.7561462E-02  0.1264835E+00
         -2   -1    0    0    0  501 -0.00000000000E+00  0.00000000000E+00  0.13343603303E+02  0.13343603303E+02  0.00000000000E+00 0.  1.
          2   -1    0    0  501    0  0.00000000000E+00 -0.00000000000E+00 -0.10909267120E+04  0.10909267120E+04  0.00000000000E+00 0. -1.
         25    2    1    2    0    0  0.23458764409E+02  0.42072631405E+02 -0.68905524192E+03  0.70197264726E+03  0.12509217061E+03 0.  0.
          5    1    3    3  502    0  0.89396633624E+00  0.76487080806E+02 -0.58504362466E+03  0.59003778512E+03  0.41800000000E+01 0.  1.
         -5    1    3    3    0  502  0.22564798073E+02 -0.34414449401E+02 -0.10401161726E+03  0.11193486215E+03  0.41800000000E+01 0.  1.
        -11    1    1    2    0    0  0.30121930788E+02 -0.30102653907E+02 -0.10158768834E+03  0.11015243487E+03  0.00000000000E+00 0.  1.
         11    1    1    2    0    0 -0.53580695197E+02 -0.11969977498E+02 -0.28694017841E+03  0.29214523314E+03  0.00000000000E+00 0. -1.
</event>
<event>
 7    1  0.2943257E-009  0.1464093E+03  0.7561462E-02  0.1204956E+00
          1   -1    0    0  501    0  0.00000000000E+00  0.00000000000E+00  0.55789344844E+03  0.55789344844E+03  0.00000000000E+00 0.  1.
         -1   -1    0    0    0  501 -0.00000000000E+00 -0.00000000000E+00 -0.44969341440E+02  0.44969341440E+02  0.00000000000E+00 0. -1.
         25    2    1    2    0    0  0.10999347107E+03 -0.33025844681E+02  0.24165326560E+03  0.29536181722E+03  0.12511207855E+03 0.  0.
          5    1    3    3  502    0  0.24473981683E+02 -0.69394654104E+02  0.13524558181E+03  0.15402413316E+03  0.41800000000E+01 0.  1.
         -5    1    3    3    0  502  0.85519489384E+02  0.36368809423E+02  0.10640768380E+03  0.14133768406E+03  0.41800000000E+01 0.  1.
        -11    1    1    2    0    0 -0.64086125690E+02  0.45408243340E+02  0.87063981867E+02  0.11725645828E+03  0.00000000000E+00 0. -1.
         11    1    1    2    0    0 -0.45907345376E+02 -0.12382398659E+02  0.18420685953E+03  0.19024451438E+03  0.00000000000E+00 0.  1.
</event>
<event>
 7    1  0.2943257E-009  0.9621396E+02  0.7561462E-02  0.1288465E+00
          1   -1    0    0  501    0  0.00000000000E+00  0.00000000000E+00  0.24541636801E+02  0.24541636801E+02  0.00000000000E+00 0. -1.
         -1   -1    0    0    0  501 -0.00000000000E+00 -0.00000000000E+00 -0.61800761309E+03  0.61800761309E+03  0.00000000000E+00 0.  1.
         25    2    1    2    0    0 -0.25382154273E+02  0.25409419161E+02 -0.45659625587E+03  0.47477612954E+03  0.12506934065E+03 0.  0.
          5    1    3    3  502    0 -0.20363901343E+02  0.60533759037E+02 -0.11748369445E+03  0.13378682792E+03  0.41800000000E+01 0.  1.
         -5    1    3    3    0  502 -0.50182529299E+01 -0.35124339876E+02 -0.33911256142E+03  0.34098930163E+03  0.41800000000E+01 0.  1.
        -11    1    1    2    0    0  0.49772569306E+02  0.89404903466E+01 -0.98810465593E+02  0.11099886997E+03  0.00000000000E+00 0.  1.
         11    1    1    2    0    0 -0.24390415033E+02 -0.34349909507E+02 -0.38059254826E+02  0.56774250383E+02  0.00000000000E+00 0. -1.
</event>
<event>
 7    1  0.2943257E-009  0.1589335E+03  0.7561462E-02  0.1189906E+00
         -1   -1    0    0    0  501 -0.00000000000E+00  0.00000000000E+00  0.12735401279E+03  0.12735401279E+03  0.00000000000E+00 0.  1.
          1   -1    0    0  501    0  0.00000000000E+00 -0.00000000000E+00 -0.30592888743E+03  0.30592888743E+03  0.00000000000E+00 0. -1.
         25    2    1    2    0    0 -0.69328768181E+02  0.26778139001E+02  0.14031899003E+02  0.14617724251E+03  0.12508934892E+03 0.  0.
          5    1    3    3  502    0 -0.46915936689E+02 -0.46597616003E+02 -0.66968477585E+01  0.66594017016E+02  0.41800000000E+01 0.  1.
         -5    1    3    3    0  502 -0.22412831492E+02  0.73375755004E+02  0.20728746762E+02  0.79583225495E+02  0.41800000000E+01 0.  1.
        -11    1    1    2    0    0  0.70863836738E+02 -0.88308004219E+02 -0.35956350548E+02  0.11879750044E+03  0.00000000000E+00 0.  1.
         11    1    1    2    0    0 -0.15350685576E+01  0.61529865217E+02 -0.15665042309E+03  0.16830815727E+03  0.00000000000E+00 0. -1.
</event>
<event>
 7    1  0.2943257E-009  0.3784429E+02  0.7561462E-02  0.1524702E+00
          1   -1    0    0  501    0  0.00000000000E+00  0.00000000000E+00  0.88276353694E+02  0.88276353694E+02  0.00000000000E+00 0. -1.
         -1   -1    0    0    0  501 -0.00000000000E+00 -0.00000000000E+00 -0.14205436235E+03  0.14205436235E+03  0.00000000000E+00 0.  1.
         25    2    1    2    0    0 -0.13646772228E+02 -0.94775358750E+01 -0.48287234442E+02  0.13511281338E+03  0.12509099588E+03 0.  0.
          5    1    3    3  502    0 -0.34512698847E+01 -0.99800591644E+01 -0.90639201137E+02  0.91347961266E+02  0.41800000000E+01 0.  1.
         -5    1    3    3    0  502 -0.10195502344E+02  0.50252328935E+00  0.42351966695E+02  0.43764852114E+02  0.41800000000E+01 0.  1.
        -11    1    1    2    0    0  0.16000136495E+02 -0.18935639787E+02 -0.42075722115E+02  0.48835737053E+02  0.00000000000E+00 0.  1.
         11    1    1    2    0    0 -0.23533642669E+01  0.28413175662E+02  0.36584947896E+02  0.46382165615E+02  0.00000000000E+00 0. -1.
</event>
<event>
 7    1  0.3199492E-009  0.1270925E+03  0.7561462E-02  0.1231835E+00
         -2   -1    0    0    0  501 -0.00000000000E+00  0.00000000000E+00  0.27479070910E+03  0.27479070910E+03  0.00000000000E+00 0. -1.
          2   -1    0    0  501    0  0.00000000000E+00 -0.00000000000E+00 -0.86272361465E+02  0.86272361465E+02  0.00000000000E+00 0.  1.
         25    2    1    2    0    0 -0.79102559965E+02  0.61858827078E+02  0.15095953896E+03  0.22027123303E+03  0.12508758619E+03 0.  0.
          5    1    3    3  502    0 -0.85749279513E+02 -0.46869172806E+01  0.51113807123E+02  0.10002499592E+03  0.41800000000E+01 0. -1.
         -5    1    3    3    0  502  0.66467195481E+01  0.66545744359E+02  0.99845731836E+02  0.12024623711E+03  0.41800000000E+01 0. -1.
        -11    1    1    2    0    0  0.55895946930E+02 -0.36160657156E+02  0.67653563758E+02  0.94915513475E+02  0.00000000000E+00 0. -1.
         11    1    1    2    0    0  0.23206613035E+02 -0.25698169922E+02 -0.30094755081E+02  0.45876324060E+02  0.00000000000E+00 0.  1.
</event>
<event>
 7    1  0.2943257E-009  0.1366283E+03  0.7561462E-02  0.1217939E+00
          2   -1    0    0  501    0  0.00000000000E+00  0.00000000000E+00  0.14839743015E+03  0.14839743015E+03  0.00000000000E+00 0. -1.
         -2   -1    0    0    0  501 -0.00000000000E+00 -0.00000000000E+00 -0.29988083639E+03  0.29988083639E+03  0.00000000000E+00 0.  1.
         25    2    1    2    0    0  0.10480816352E+03 -0.19233198529E+01  0.76602722920E+02  0.18028671518E+03  0.12508745825E+03 0.  0.
          5    1    3    3  502    0  0.10281793412E+03 -0.41531276606E+02  0.22748492049E+02  0.11327550840E+03  0.41800000000E+01 0. -1.
         -5    1    3    3    0  502  0.19902294031E+01  0.39607956753E+02  0.53854230872E+02  0.67011206779E+02  0.41800000000E+01 0. -1.
        -11    1    1    2    0    0 -0.20741319689E+02  0.27586978068E+02 -0.15276061967E+02  0.37743897130E+02  0.00000000000E+00 0. -1.
         11    1    1    2    0    0 -0.84066843831E+02 -0.25663658215E+02 -0.21281006719E+03  0.23024765424E+03  0.00000000000E+00 0.  1.
</event>
<event>
 7    1  0.2943257E-009  0.7248561E+02  0.7561462E-02  0.1351839E+00
          1   -1    0    0  501    0  0.00000000000E+00  0.00000000000E+00  0.10747076655E+04  0.10747076655E+04  0.00000000000E+00 0. -1.
         -1   -1    0    0    0  501 -0.00000000000E+00 -0.00000000000E+00 -0.21937674900E+02  0.21937674900E+02  0.00000000000E+00 0.  1.
         25    2    1    2    0    0  0.23237149648E+01 -0.10343347293E+02  0.95010770037E+03  0.95836543256E+03  0.12508907041E+03 0.  0.
          5    1    3    3  502    0 -0.25462313022E+02  0.87501982277E+01  0.88038702537E+03  0.88080853890E+03  0.41800000000E+01 0. -1.
         -5    1    3    3    0  502  0.27786027987E+02 -0.19093545520E+02  0.69720674996E+02  0.77556893657E+02  0.41800000000E+01 0. -1.
        -11    1    1    2    0    0  0.40075055165E+02  0.10204111832E+02  0.80352479187E+02  0.90369546066E+02  0.00000000000E+00 0. -1.
         11    1    1    2    0    0 -0.42398770130E+02  0.13923546018E+00  0.22309811009E+02  0.47910361742E+02  0.00000000000E+00 0.  1.
</event>
<event>
 7    1  0.2943257E-009  0.7991831E+02  0.7561462E-02  0.1329283E+00
          2   -1    0    0  501    0  0.00000000000E+00  0.00000000000E+00  0.10330699673E+03  0.10330699673E+03  0.00000000000E+00 0. -1.
         -2   -1    0    0    0  501 -0.00000000000E+00 -0.00000000000E+00 -0.12559354719E+03  0.12559354719E+03  0.00000000000E+00 0.  1.
         25    2    1    2    0    0 -0.20085296880E+02 -0.18213994128E+02 -0.10386145399E+02  0.12841344155E+03  0.12508785401E+03 0.  0.
          5    1    3    3  502    0 -0.72603117377E+02 -0.75271299792E+01 -0.14364259676E+02  0.74509561095E+02  0.41800000000E+01 0.  1.
         -5    1    3    3    0  502  0.52517820497E+02 -0.10686864149E+02  0.39781142769E+01  0.53903880456E+02  0.41800000000E+01 0.  1.
        -11    1    1    2    0    0  0.17318611147E+02  0.30890144286E+01 -0.53403989004E+02  0.56226882749E+02  0.00000000000E+00 0.  1.
         11    1    1    2    0    0  0.27666857328E+01  0.15124979700E+02  0.41503583946E+02  0.44260219625E+02  0.00000000000E+00 0. -1.
</event>
<event>
 7    1  0.2943257E-009  0.1486015E+03  0.7561462E-02  0.1202202E+00
         -1   -1    0    0    0  501 -0.00000000000E+00  0.00000000000E+00  0.68618771718E+02  0.68618771718E+02  0.00000000000E+00 0.  1.
          1   -1    0    0  501    0  0.00000000000E+00 -0.00000000000E+00 -0.32891188331E+03  0.32891188331E+03  0.00000000000E+00 0. -1.
         25    2    1    2    0    0 -0.48655160248E+02 -0.89862603097E+02 -0.16464866526E+03  0.23065085579E+03  0.12509205510E+03 0.  0.
          5    1    3    3  502    0 -0.87712038715E+02 -0.84046597558E+02 -0.11825859572E+03  0.16958714621E+03  0.41800000000E+01 0.  1.
         -5    1    3    3    0  502  0.39056878466E+02 -0.58160055392E+01 -0.46390069541E+02  0.61063709582E+02  0.41800000000E+01 0.  1.
        -11    1    1    2    0    0  0.54281394583E+02  0.91645496740E+01 -0.29943581136E+02  0.62666393066E+02  0.00000000000E+00 0.  1.
         11    1    1    2    0    0 -0.56262343349E+01  0.80698053423E+02 -0.65700865195E+02  0.10421340617E+03  0.00000000000E+00 0. -1.
</event>
<event>
 7    1  0.2943257E-009  0.8464652E+02  0.7561462E-02  0.1316360E+00
         -2   -1    0    0    0  501 -0.00000000000E+00  0.00000000000E+00  0.46536489680E+02  0.46536489680E+02  0.00000000000E+00 0.  1.
          2   -1    0    0  501    0  0.00000000000E+00 -0.00000000000E+00 -0.29299841201E+03  0.29299841201E+03  0.00000000000E+00 0. -1.
         25    2    1    2    0    0  0.24709148206E+02  0.33604697354E+02 -0.16614309719E+03  0.21211106161E+03  0.12509099099E+03 0.  0.
          5    1    3    3  502    0 -0.80905144905E+01  0.36136419054E+02  0.51653083047E+01  0.37622466913E+02  0.41800000000E+01 0. -1.
         -5    1    3    3    0  502  0.32799662696E+02 -0.25317217001E+01 -0.17130840549E+03  0.17448859470E+03  0.41800000000E+01 0. -1.
        -11    1    1    2    0    0  0.33405559301E+02 -0.20814571181E+02 -0.34115626724E+02  0.52086982562E+02  0.00000000000E+00 0. -1.
         11    1    1    2    0    0 -0.58114707506E+02 -0.12790126173E+02 -0.46203198416E+02  0.75336857513E+02  0.00000000000E+00 0.  1.
</event>
<event>
 7    1  0.2943257E-009  0.8289810E+02  0.7561462E-02  0.1321023E+00
          2   -1    0    0  501    0  0.00000000000E+00  0.00000000000E+00  0.65338533486E+03  0.65338533486E+03  0.00000000000E+00 0. -1.
         -2   -1    0    0    0  501 -0.00000000000E+00 -0.00000000000E+00 -0.23163426849E+02  0.23163426849E+02  0.00000000000E+00 0.  1.
         25    2    1    2    0    0  0.54519108391E+02  0.13990207124E+02  0.40933788297E+03  0.43169847014E+03  0.12505201962E+03 0.  0.
          5    1    3    3  502    0  0.39924336430E+00  0.25310288002E+02  0.34826688944E+03  0.34921063666E+03  0.41800000000E+01 0. -1.
         -5    1    3    3    0  502  0.54119865027E+02 -0.11320080878E+02  0.61070993529E+02  0.82487833480E+02  0.41800000000E+01 0. -1.
        -11    1    1    2    0    0 -0.44501513836E+02 -0.38099843088E+02  0.68009069802E+02  0.89761998376E+02  0.00000000000E+00 0.  1.
         11    1    1    2    0    0 -0.10017594555E+02  0.24109635964E+02  0.15287495524E+03  0.15508829320E+03  0.00000000000E+00 0. -1.
</event>
<event>
 7    1  0.2943257E-009  0.1375239E+03  0.7561462E-02  0.1216700E+00
         -1   -1    0    0    0  501 -0.00000000000E+00  0.00000000000E+00  0.14308126586E+02  0.14308126586E+02  0.00000000000E+00 0.  1.
          1   -1    0    0  501    0  0.00000000000E+00 -0.00000000000E+00 -0.14844527956E+04  0.14844527956E+04  0.00000000000E+00 0. -1.
         25    2    1    2    0    0 -0.27311640393E+01 -0.89095702929E+02 -0.10027367218E+04  0.10144327824E+04  0.12508970059E+03 0.  0.
          5    1    3    3  502    0 -0.34290106079E+02 -0.10776066776E+03 -0.65064228020E+03  0.66040973802E+03  0.41800000000E+01 0. -1.
         -5    1    3    3    0  502  0.31558942040E+02  0.18664964827E+02 -0.35209444157E+03  0.35402304434E+03  0.41800000000E+01 0. -1.
        -11    1    1    2    0    0  0.34993858298E+02  0.55592054934E+01 -0.97615860969E+02  0.10384763453E+03  0.00000000000E+00 0.  1.
         11    1    1    2    0    0 -0.32262694259E+02  0.83536497436E+02 -0.36979208629E+03  0.38048050532E+03  0.00000000000E+00 0. -1.
</event>
<event>
 7    1  0.2943257E-009  0.6688414E+02  0.7561462E-02  0.1371021E+00
          2   -1    0    0  501    0  0.00000000000E+00  0.00000000000E+00  0.19086843443E+03  0.19086843443E+03  0.00000000000E+00 0. -1.
         -2   -1    0    0    0  501 -0.00000000000E+00 -0.00000000000E+00 -0.80795618614E+02  0.80795618614E+02  0.00000000000E+00 0.  1.
         25    2    1    2    0    0  0.37875681362E+02  0.21194373735E+02  0.10531674010E+03  0.16918430189E+03  0.12509174051E+03 0.  0.
          5    1    3    3  502    0  0.25860509453E+01  0.27519260795E+02 -0.22804019301E+02  0.36076211975E+02  0.41800000000E+01 0. -1.
         -5    1    3    3    0  502  0.35289630416E+02 -0.63248870597E+01  0.12812075940E+03  0.13310808991E+03  0.41800000000E+01 0. -1.
        -11    1    1    2    0    0 -0.28684004324E+02 -0.39745627187E+02  0.38882214115E+02  0.62564475216E+02  0.00000000000E+00 0. -1.
         11    1    1    2    0    0 -0.91916770378E+01  0.18551253452E+02 -0.34126138398E+02  0.39915275940E+02  0.00000000000E+00 0.  1.
</event>
<event>
 7    1  0.2943257E-009  0.9503943E+02  0.7561462E-02  0.1291087E+00
          1   -1    0    0  501    0  0.00000000000E+00  0.00000000000E+00  0.73596429554E+02  0.73596429554E+02  0.00000000000E+00 0. -1.
         -1   -1    0    0    0  501 -0.00000000000E+00 -0.00000000000E+00 -0.19993684027E+03  0.19993684027E+03  0.00000000000E+00 0.  1.
         25    2    1    2    0    0 -0.17077236775E+02  0.39790687355E+02 -0.30241492427E+02  0.13578138940E+03  0.12508839685E+03 0.  0.
          5    1    3    3  502    0 -0.56219026862E+02  0.53097255632E+02 -0.47431319000E+02  0.90813545019E+02  0.41800000000E+01 0. -1.
         -5    1    3    3    0  502  0.39141790087E+02 -0.13306568276E+02  0.17189826573E+02  0.44967844379E+02  0.41800000000E+01 0. -1.
        -11    1    1    2    0    0  0.37916207426E+02 -0.23239470740E+02 -0.10130400248E+03  0.11063549477E+03  0.00000000000E+00 0.  1.
         11    1    1    2    0    0 -0.20838970651E+02 -0.16551216615E+02  0.52050841912E+01  0.27116385650E+02  0.00000000000E+00 0. -1.
</event>
<event>
 7    1  0.2943257E-009  0.1186787E+03  0.7561462E-02  0.1245293E+00
         -2   -1    0    0    0  501 -0.00000000000E+00  0.00000000000E+00  0.29335502354E+02  0.29335502354E+02  0.00000000000E+00 0.  1.
          2   -1    0    0  501    0  0.00000000000E+00 -0.00000000000E+00 -0.57671088259E+03  0.57671088259E+03  0.00000000000E+00 0. -1.
         25    2    1    2    0    0 -0.24074410997E+02 -0.66910748482E+02 -0.27497271067E+03  0.31034425634E+03  0.12508773042E+03 0.  0.
          5    1    3    3  502    0 -0.14665226174E+02  0.26116939180E+02 -0.15632551164E+03  0.15922406024E+03  0.41800000000E+01 0.  1.
         -5    1    3    3    0  502 -0.94091848231E+01 -0.93027687662E+02 -0.11864719903E+03  0.15112019610E+03  0.41800000000E+01 0.  1.
        -11    1    1    2    0    0  0.10519583617E+02  0.87903234995E+02 -0.23046698095E+03  0.24688594466E+03  0.00000000000E+00 0.  1.
         11    1    1    2    0    0  0.13554827380E+02 -0.20992486512E+02 -0.41935688618E+02  0.48816183947E+02  0.00000000000E+00 0. -1.
</event>
<event>
 7    1  0.2943257E-009  0.1569933E+03  0.7561462E-02  0.1192134E+00
          4   -1    0    0  501    0  0.00000000000E+00  0.00000000000E+00  0.91637936186E+02  0.91637936186E+02  0.00000000000E+00 0. -1.
         -4   -1    0    0    0  501 -0.00000000000E+00 -0.00000000000E+00 -0.32696269402E+03  0.32696269402E+03  0.00000000000E+00 0.  1.
         25    2    1    2    0    0 -0.72578214755E+02  0.11234246172E+03 -0.10854579490E+03  0.21288000632E+03  0.12508909440E+03 0.  0.
          5    1    3    3  502    0 -0.74608586239E+00  0.92936202773E+02 -0.10202064718E+03  0.13807019693E+03  0.41800000000E+01 0. -1.
         -5    1    3    3    0  502 -0.71832128893E+02  0.19406258945E+02 -0.65251477168E+01  0.74809809385E+02  0.41800000000E+01 0. -1.
        -11    1    1    2    0    0  0.17713650528E+02 -0.81677304141E+02 -0.27062300132E+02  0.87848298305E+02  0.00000000000E+00 0. -1.
         11    1    1    2    0    0  0.54864564228E+02 -0.30665157577E+02 -0.99716662801E+02  0.11787232558E+03  0.00000000000E+00 0.  1.
</event>
<event>
 7    1  0.2943257E-009  0.1037979E+03  0.7561462E-02  0.1272506E+00
          1   -1    0    0  501    0  0.00000000000E+00  0.00000000000E+00  0.27877775076E+02  0.27877775076E+02  0.00000000000E+00 0. -1.
         -1   -1    0    0    0  501 -0.00000000000E+00 -0.00000000000E+00 -0.55877246724E+03  0.55877246724E+03  0.00000000000E+00 0.  1.
         25    2    1    2    0    0  0.33068320232E+02 -0.48057693610E+02 -0.33951781968E+03  0.36649964644E+03  0.12508631116E+03 0.  0.
          5    1    3    3  502    0  0.55407604856E+02 -0.97961340155E+01 -0.30501292729E+03  0.31018756444E+03  0.41800000000E+01 0. -1.
         -5    1    3    3    0  502 -0.22339284624E+02 -0.38261559595E+02 -0.34504892384E+02  0.56312081994E+02  0.41800000000E+01 0. -1.
        -11    1    1    2    0    0 -0.18366385386E+02 -0.25630057618E+02 -0.38168444611E+02  0.49508121856E+02  0.00000000000E+00 0.  1.
         11    1    1    2    0    0 -0.14701934846E+02  0.73687751228E+02 -0.15320842787E+03  0.17064247402E+03  0.00000000000E+00 0. -1.
</event>
<event>
 7    1  0.2943257E-009  0.1047094E+03  0.7561462E-02  0.1270693E+00
         -2   -1    0    0    0  501 -0.00000000000E+00  0.00000000000E+00  0.28436401892E+02  0.28436401892E+02  0.00000000000E+00 0.  1.
          2   -1    0    0  501    0  0.00000000000E+00 -0.00000000000E+00 -0.43801143391E+03  0.43801143391E+03  0.00000000000E+00 0. -1.
         25    2    1    2    0    0  0.53922506624E+01  0.26131587392E+02 -0.27420686048E+03  0.30257090244E+03  0.12509121648E+03 0.  0.
          5    1    3    3  502    0  0.12750870215E+02 -0.44466199839E+02 -0.17132654537E+03  0.17751080296E+03  0.41800000000E+01 0.  1.
         -5    1    3    3    0  502 -0.73586195531E+01  0.70597787231E+02 -0.10288031511E+03  0.12506009948E+03  0.41800000000E+01 0.  1.
        -11    1    1    2    0    0  0.18499216760E+02 -0.52869119027E+02 -0.74105778982E+02  0.92892579069E+02  0.00000000000E+00 0.  1.
         11    1    1    2    0    0 -0.23891467422E+02  0.26737531636E+02 -0.61262392555E+02  0.70984354298E+02  0.00000000000E+00 0. -1.
</event>
<event>
 7    1  0.2943257E-009  0.1105584E+03  0.7561462E-02  0.1259539E+00
         -3   -1    0    0    0  501 -0.00000000000E+00  0.00000000000E+00  0.14683282650E+03  0.14683282650E+03  0.00000000000E+00 0.  1.
          3   -1    0    0  501    0  0.00000000000E+00 -0.00000000000E+00 -0.17442424718E+03  0.17442424718E+03  0.00000000000E+00 0. -1.
         25    2    1    2    0    0 -0.16606502835E+02  0.34344743199E+02 -0.12457610428E+03  0.18061382934E+03  0.12508721865E+03 0.  0.
          5    1    3    3  502    0 -0.68428902014E+02  0.68620912002E+01 -0.86372087150E+02  0.11048625600E+03  0.41800000000E+01 0. -1.
         -5    1    3    3    0  502  0.51822399179E+02  0.27482651999E+02 -0.38204017126E+02  0.70127573337E+02  0.41800000000E+01 0. -1.
        -11    1    1    2    0    0  0.45891456182E+02 -0.42983534164E+02  0.36029946032E+02  0.72469075962E+02  0.00000000000E+00 0. -1.
         11    1    1    2    0    0 -0.29284953347E+02  0.86387909655E+01  0.60954737571E+02  0.68174168379E+02  0.00000000000E+00 0.  1.
</event>
<event>
 7    1  0.2943257E-009  0.2036047E+03  0.7561462E-02  0.1146733E+00
          2   -1    0    0  501    0  0.00000000000E+00  0.00000000000E+00  0.90013146299E+03  0.90013146299E+03  0.00000000000E+00 0. -1.
         -2   -1    0    0    0  501 -0.00000000000E+00 -0.00000000000E+00 -0.11884002812E+03  0.11884002812E+03  0.00000000000E+00 0.  1.
         25    2    1    2    0    0 -0.11060208821E+03 -0.15357741085E+03  0.77435938166E+03  0.80690654788E+03  0.12508749739E+03 0.  0.
          5    1    3    3  502    0 -0.11904400616E+03 -0.12668270476E+03  0.74847508196E+03  0.76840900815E+03  0.41800000000E+01 0.  1.
         -5    1    3    3    0  502  0.84419179478E+01 -0.26894706088E+02  0.25884299693E+02  0.38497539724E+02  0.41800000000E+01 0.  1.
        -11    1    1    2    0    0  0.44160935976E+02  0.81079158158E+01 -0.21254330836E+02  0.49675679607E+02  0.00000000000E+00 0.  1.
         11    1    1    2    0    0  0.66441152235E+02  0.14546949503E+03  0.28186384044E+02  0.16238926363E+03  0.00000000000E+00 0. -1.
</event>
<event>
 7    1  0.2943257E-009  0.9532394E+02  0.7561462E-02  0.1290448E+00
         -1   -1    0    0    0  501 -0.00000000000E+00  0.00000000000E+00  0.12234527514E+03  0.12234527514E+03  0.00000000000E+00 0. -1.
          1   -1    0    0  501    0  0.00000000000E+00 -0.00000000000E+00 -0.11924963345E+03  0.11924963345E+03  0.00000000000E+00 0.  1.
         25    2    1    2    0    0  0.48814505859E+01 -0.54523391247E+02 -0.44235064832E+01  0.13661382055E+03  0.12508852786E+03 0.  0.
          5    1    3    3  502    0 -0.30360188569E+02 -0.77392180285E+02  0.22891199371E+02  0.86329427357E+02  0.41800000000E+01 0.  1.
         -5    1    3    3    0  502  0.35241639155E+02  0.22868789037E+02 -0.27314705855E+02  0.50284393188E+02  0.41800000000E+01 0.  1.
        -11    1    1    2    0    0  0.14779418170E+02  0.15062653070E+02 -0.36829707498E+02  0.42446932437E+02  0.00000000000E+00 0.  1.
         11    1    1    2    0    0 -0.19660868756E+02  0.39460738177E+02  0.44348855668E+02  0.62534155601E+02  0.00000000000E+00 0. -1.
</event>
<event>
 7    1  0.4075939E-009  0.2090505E+03  0.7561462E-02  0.1142320E+00
          2   -1    0    0  501    0  0.00000000000E+00  0.00000000000E+00  0.97433992290E+03  0.97433992290E+03  0.00000000000E+00 0. -1.
         -2   -1    0    0    0  501 -0.00000000000E+00 -0.00000000000E+00 -0.84080018442E+02  0.84080018442E+02  0.00000000000E+00 0.  1.
         25    2    1    2    0    0 -0.83724077907E+01  0.19661006015E+03  0.12824224928E+03  0.26611906865E+03  0.12509065207E+03 0.  0.
          5    1    3    3  502    0 -0.42846917831E+02  0.17543253408E+03  0.13417002040E+03  0.22501444211E+03  0.41800000000E+01 0. -1.
         -5    1    3    3    0  502  0.34474510040E+02  0.21177526067E+02 -0.59277711238E+01  0.41104626544E+02  0.41800000000E+01 0. -1.
        -11    1    1    2    0    0  0.35581126115E+01 -0.87623097366E+02  0.51290322289E+03  0.52034621495E+03  0.00000000000E+00 0. -1.
         11    1    1    2    0    0  0.48142951792E+01 -0.10898696278E+03  0.24911443229E+03  0.27195465775E+03  0.00000000000E+00 0.  1.
</event>
<event>
 7    1  0.2943257E-009  0.2160498E+03  0.7561462E-02  0.1136863E+00
         -2   -1    0    0    0  501 -0.00000000000E+00  0.00000000000E+00  0.72918242941E+02  0.72918242941E+02  0.00000000000E+00 0.  1.
          2   -1    0    0  501    0  0.00000000000E+00 -0.00000000000E+00 -0.78865352666E+03  0.78865352666E+03  0.00000000000E+00 0. -1.
         25    2    1    2    0    0  0.34953712555E+02  0.20036169031E+03 -0.25823518249E+03  0.35170993898E+03  0.12509157741E+03 0.  0.
          5    1    3    3  502    0  0.38277068101E+02  0.21102942222E+03 -0.26253502413E+03  0.33902899917E+03  0.41800000000E+01 0. -1.
         -5    1    3    3    0  502 -0.33233555462E+01 -0.10667731918E+02  0.42998416373E+01  0.12680939810E+02  0.41800000000E+01 0. -1.
        -11    1    1    2    0    0  0.51366612603E+01 -0.41392972958E+02 -0.28271817966E+02  0.50389078086E+02  0.00000000000E+00 0.  1.
         11    1    1    2    0    0 -0.40090373815E+02 -0.15896871735E+03 -0.42922828326E+03  0.45947275253E+03  0.00000000000E+00 0. -1.
</event>
<event>
 7    1  0.2943257E-009  0.9968146E+02  0.7561462E-02  0.1280967E+00
          2   -1    0    0  501    0  0.00000000000E+00  0.00000000000E+00  0.15748545165E+02  0.15748545165E+02  0.00000000000E+00 0. -1.
         -2   -1    0    0    0  501 -0.00000000000E+00 -0.00000000000E+00 -0.83704464529E+03  0.83704464529E+03  0.00000000000E+00 0.  1.
         25    2    1    2    0    0  0.36915960013E+02  0.32636025546E+01 -0.49492475489E+03  0.51183165021E+03  0.12509071088E+03 0.  0.
          5    1    3    3  502    0  0.59391089772E+02 -0.26994172243E+02 -0.44151279222E+03  0.44632611953E+03  0.41800000000E+01 0.  1.
         -5    1    3    3    0  502 -0.22475129759E+02  0.30257774798E+02 -0.53411962667E+02  0.65505530677E+02  0.41800000000E+01 0.  1.
        -11    1    1    2    0    0  0.10320066985E+02  0.34235643309E+02 -0.16134355891E+03  0.16525836456E+03  0.00000000000E+00 0.  1.
         11    1    1    2    0    0 -0.47236026998E+02 -0.37499245864E+02 -0.16502778632E+03  0.17570317568E+03  0.00000000000E+00 0. -1.
</event>
<event>
 7    1  0.2943257E-009  0.1150973E+03  0.7561462E-02  0.1251411E+00
         -1   -1    0    0    0  501 -0.00000000000E+00  0.00000000000E+00  0.24951183877E+03  0.24951183877E+03  0.00000000000E+00 0.  1.
          1   -1    0    0  501    0  0.00000000000E+00 -0.00000000000E+00 -0.94937111747E+02  0.94937111747E+02  0.00000000000E+00 0. -1.
         25    2    1    2    0    0  0.10779833370E+03  0.11324769022E+02  0.98696297113E+02  0.19270748093E+03  0.12508590249E+03 0.  0.
          5    1    3    3  502    0  0.74125539986E+02  0.98825687127E+01 -0.12950481008E+02  0.76009527040E+02  0.41800000000E+01 0.  1.
         -5    1    3    3    0  502  0.33672793717E+02  0.14422003096E+01  0.11164677812E+03  0.11669795389E+03  0.41800000000E+01 0.  1.
        -11    1    1    2    0    0 -0.84123751861E+01 -0.19874377479E+02  0.46848679454E+02  0.51580594249E+02  0.00000000000E+00 0.  1.
         11    1    1    2    0    0 -0.99385958516E+02  0.85496084570E+01  0.90297504611E+01  0.10016087534E+03  0.00000000000E+00 0. -1.
</event>
<event>
 7    1  0.2943257E-009  0.9580759E+02  0.7561462E-02  0.1289367E+00
          2   -1    0    0  501    0  0.00000000000E+00  0.00000000000E+00  0.56776337248E+03  0.56776337248E+03  0.00000000000E+00 0. -1.
         -2   -1    0    0    0  501 -0.00000000000E+00 -0.00000000000E+00 -0.21929504250E+02  0.21929504250E+02  0.00000000000E+00 0.  1.
         25    2    1    2    0    0  0.23285467750E+02 -0.12688116931E+02  0.30388349675E+03  0.32968704750E+03  0.12508064749E+03 0.  0.
          5    1    3    3  502    0 -0.31811556328E+02 -0.49073155864E+02  0.17905684059E+03  0.18841171488E+03  0.41800000000E+01 0. -1.
         -5    1    3    3    0  502  0.55097024078E+02  0.36385038933E+02  0.12482665616E+03  0.14127533262E+03  0.41800000000E+01 0. -1.
        -11    1    1    2    0    0 -0.10101841776E+02 -0.24964493391E+02  0.17682082476E+02  0.32216908267E+02  0.00000000000E+00 0.  1.
         11    1    1    2    0    0 -0.13183625973E+02  0.37652610322E+02  0.22426828900E+03  0.22778892096E+03  0.00000000000E+00 0. -1.
</event>
<event>
 7    1  0.2943257E-009  0.1005184E+03  0.7561462E-02  0.1279210E+00
         -1   -1    0    0    0  501 -0.00000000000E+00  0.00000000000E+00  0.11671120432E+04  0.11671120432E+04  0.00000000000E+00 0.  1.
          1   -1    0    0  501    0  0.00000000000E+00 -0.00000000000E+00 -0.24437052744E+02  0.24437052744E+02  0.00000000000E+00 0. -1.
         25    2    1    2    0    0  0.19784957155E+02 -0.44456688409E+02  0.10285324242E+04  0.10372529669E+04  0.12508768116E+03 0.  0.
          5    1    3    3  502    0  0.43106432861E+02 -0.65231787854E+02  0.38142729100E+03  0.38938104913E+03  0.41800000000E+01 0.  1.
         -5    1    3    3    0  502 -0.23321475706E+02  0.20775099446E+02  0.64710513321E+03  0.64787191775E+03  0.41800000000E+01 0.  1.
        -11    1    1    2    0    0 -0.30766585389E+02 -0.12508226292E+02  0.80855831360E+02  0.87411120382E+02  0.00000000000E+00 0.  1.
         11    1    1    2    0    0  0.10981628234E+02  0.56964914700E+02  0.33286734866E+02  0.66885008660E+02  0.00000000000E+00 0. -1.
</event>
<event>
 7    1  0.2943257E-009  0.1183458E+03  0.7561462E-02  0.1245851E+00
         -2   -1    0    0    0  501 -0.00000000000E+00  0.00000000000E+00  0.37585430691E+03  0.37585430691E+03  0.00000000000E+00 0.  1.
          2   -1    0    0  501    0  0.00000000000E+00 -0.00000000000E+00 -0.70131044440E+02  0.70131044440E+02  0.00000000000E+00 0. -1.
         25    2    1    2    0    0 -0.52958122737E+02  0.29269141815E+02  0.20771003301E+02  0.14049946108E+03  0.12508964209E+03 0.  0.
          5    1    3    3  502    0 -0.37580671582E+02  0.73500548984E+02  0.37274594919E+02  0.90672517357E+02  0.41800000000E+01 0. -1.
         -5    1    3    3    0  502 -0.15377451154E+02 -0.44231407169E+02 -0.16503591619E+02  0.49826943720E+02  0.41800000000E+01 0. -1.
        -11    1    1    2    0    0  0.66882098515E+01 -0.54097998404E+02  0.10907783379E+03  0.12193973678E+03  0.00000000000E+00 0. -1.
         11    1    1    2    0    0  0.46269912885E+02  0.24828856589E+02  0.17587442538E+03  0.18354615349E+03  0.00000000000E+00 0.  1.
</event>
<event>
 7    1  0.2943257E-009  0.1822120E+03  0.7561462E-02  0.1165679E+00
          2   -1    0    0  501    0  0.00000000000E+00  0.00000000000E+00  0.17666043869E+04  0.17666043869E+04  0.00000000000E+00 0. -1.
         -2   -1    0    0    0  501 -0.00000000000E+00 -0.00000000000E+00 -0.28908077697E+02  0.28908077697E+02  0.00000000000E+00 0.  1.
         25    2    1    2    0    0 -0.63939353941E+01 -0.18045885565E+03  0.12183786750E+04  0.12380228160E+04  0.12509043187E+03 0.  0.
          5    1    3    3  502    0 -0.18122171189E+02 -0.11226969116E+03  0.10468578092E+04  0.10530249957E+04  0.41800000000E+01 0. -1.
         -5    1    3    3    0  502  0.11728235795E+02 -0.68189164496E+02  0.17152086586E+03  0.18499782024E+03  0.41800000000E+01 0. -1.
        -11    1    1    2    0    0  0.10400571170E+02  0.69239634395E+02  0.90258219344E+02  0.11423154123E+03  0.00000000000E+00 0.  1.
         11    1    1    2    0    0 -0.40066357757E+01  0.11121922126E+03  0.42905941486E+03  0.44325810741E+03  0.00000000000E+00 0. -1.
</event>
<event>
 7    1  0.2943257E-009  0.1315944E+03  0.7561462E-02  0.1225109E+00
          1   -1    0    0  501    0  0.00000000000E+00  0.00000000000E+00  0.10144685378E+04  0.10144685378E+04  0.00000000000E+00 0. -1.
         -1   -1    0    0    0  501 -0.00000000000E+00 -0.00000000000E+00 -0.19926108473E+02  0.19926108473E+02  0.00000000000E+00 0.  1.
         25    2    1    2    0    0  0.42108933154E+02 -0.69499646545E+02  0.70510774019E+03  0.72071308274E+03  0.12508820580E+03 0.  0.
          5    1    3    3  502    0 -0.11904391372E+02  0.29796756456E+02  0.23342619814E+03  0.23565827719E+03  0.41800000000E+01 0. -1.
         -5    1    3    3    0  502  0.54013324526E+02 -0.99296403001E+02  0.47168154205E+03  0.48505480555E+03  0.41800000000E+01 0. -1.
        -11    1    1    2    0    0  0.25886032814E+02  0.27646715334E+02  0.62153536309E+02  0.72783855623E+02  0.00000000000E+00 0.  1.
         11    1    1    2    0    0 -0.67994965968E+02  0.41852931211E+02  0.22728115288E+03  0.24089770796E+03  0.00000000000E+00 0. -1.
</event>
<event>
 7    1  0.2943257E-009  0.1289288E+03  0.7561462E-02  0.1229054E+00
          2   -1    0    0  501    0  0.00000000000E+00  0.00000000000E+00  0.47959790132E+03  0.47959790132E+03  0.00000000000E+00 0. -1.
         -2   -1    0    0    0  501 -0.00000000000E+00 -0.00000000000E+00 -0.45345178739E+02  0.45345178739E+02  0.00000000000E+00 0.  1.
         25    2    1    2    0    0 -0.89996998711E+02  0.32610612839E+02  0.28378086671E+03  0.32457894303E+03  0.12512792694E+03 0.  0.
          5    1    3    3  502    0 -0.10979121788E+03  0.22480114294E+02  0.14170669355E+03  0.18071448879E+03  0.41800000000E+01 0. -1.
         -5    1    3    3    0  502  0.19794219169E+02  0.10130498545E+02  0.14207417317E+03  0.14386445424E+03  0.41800000000E+01 0. -1.
        -11    1    1    2    0    0 -0.13021197297E+02 -0.12643848068E+02  0.57052884611E+02  0.59870277395E+02  0.00000000000E+00 0. -1.
         11    1    1    2    0    0  0.10301819601E+03 -0.19966764772E+02  0.93418971258E+02  0.14049385963E+03  0.00000000000E+00 0.  1.
</event>
<event>
 7    1  0.2943257E-009  0.1091823E+03  0.7561462E-02  0.1262092E+00
          1   -1    0    0  501    0  0.00000000000E+00  0.00000000000E+00  0.10720589842E+03  0.10720589842E+03  0.00000000000E+00 0. -1.
         -1   -1    0    0    0  501 -0.00000000000E+00 -0.00000000000E+00 -0.15522210917E+03  0.15522210917E+03  0.00000000000E+00 0.  1.
         25    2    1    2    0    0  0.31841905180E+02  0.26040496235E+02 -0.82943307814E+02  0.15562469506E+03  0.12508972393E+03 0.  0.
          5    1    3    3  502    0  0.73646175875E+02  0.93105840995E+01 -0.81587503221E+02  0.11038314762E+03  0.41800000000E+01 0.  1.
         -5    1    3    3    0  502 -0.41804270695E+02  0.16729912135E+02 -0.13558045935E+01  0.45241547437E+02  0.41800000000E+01 0.  1.
        -11    1    1    2    0    0 -0.56542285045E+02 -0.41066295916E+02  0.14411666869E+02  0.71352412715E+02  0.00000000000E+00 0.  1.
         11    1    1    2    0    0  0.24700379865E+02  0.15025799681E+02  0.20515430190E+02  0.35450899811E+02  0.00000000000E+00 0. -1.
</event>
<event>
 7    1  0.2943257E-009  0.7612302E+02  0.7561462E-02  0.1340428E+00
         -1   -1    0    0    0  501 -0.00000000000E+00  0.00000000000E+00  0.25261442078E+02  0.25261442078E+02  0.00000000000E+00 0.  1.
          1   -1    0    0  501    0  0.00000000000E+00 -0.00000000000E+00 -0.61324895280E+03  0.61324895280E+03  0.00000000000E+00 0. -1.
         25    2    1    2    0    0  0.17752713319E+02 -0.58187123722E+02 -0.31644017277E+03  0.34566044111E+03  0.12508340182E+03 0.  0.
          5    1    3    3  502    0 -0.25022718275E+02 -0.32695677182E+02 -0.21726276033E+02  0.46740209739E+02  0.41800000000E+01 0.  1.
         -5    1    3    3    0  502  0.42775431593E+02 -0.25491446540E+02 -0.29471389674E+03  0.29892023137E+03  0.41800000000E+01 0.  1.
        -11    1    1    2    0    0 -0.13151713423E+02  0.46734122397E+02 -0.27561193041E+03  0.27985528751E+03  0.00000000000E+00 0. -1.
         11    1    1    2    0    0 -0.46009998953E+01  0.11453001325E+02  0.40645924549E+01  0.12994666260E+02  0.00000000000E+00 0.  1.
</event>
<event>
 7    1  0.2974290E-009  0.1114548E+03  0.7561462E-02  0.1257899E+00
          4   -1    0    0  501    0  0.00000000000E+00  0.00000000000E+00  0.25540455931E+03  0.25540455931E+03  0.00000000000E+00 0. -1.
         -4   -1    0    0    0  501 -0.00000000000E+00 -0.00000000000E+00 -0.73879114520E+02  0.73879114520E+02  0.00000000000E+00 0.  1.
         25    2    1    2    0    0  0.36456855321E+02 -0.32739755394E+02  0.17590123946E+02  0.13548752950E+03  0.12508582776E+03 0.  0.
          5    1    3    3  502    0 -0.35624929304E+02  0.84299465005E+01  0.34717214787E+02  0.50625655438E+02  0.41800000000E+01 0.  1.
         -5    1    3    3    0  502  0.72081784625E+02 -0.41169701894E+02 -0.17127090842E+02  0.84861874063E+02  0.41800000000E+01 0.  1.
        -11    1    1    2    0    0  0.23527488479E+02  0.35851910907E+02  0.59922280274E+02  0.73685696733E+02  0.00000000000E+00 0. -1.
         11    1    1    2    0    0 -0.59984343800E+02 -0.31121555134E+01  0.10401304057E+03  0.12011044760E+03  0.00000000000E+00 0.  1.
</event>
<event>
 7    1  0.2943257E-009  0.7966077E+02  0.7561462E-02  0.1330017E+00
         -1   -1    0    0    0  501 -0.00000000000E+00  0.00000000000E+00  0.37325570303E+03  0.37325570303E+03  0.00000000000E+00 0.  1.
          1   -1    0    0  501    0  0.00000000000E+00 -0.00000000000E+00 -0.40819130902E+02  0.40819130902E+02  0.00000000000E+00 0. -1.
         25    2    1    2    0    0 -0.15884621574E+02  0.22374636564E+02  0.27437720820E+03  0.30280330981E+03  0.12511613201E+03 0.  0.
          5    1    3    3  502    0 -0.47775373640E+02 -0.20076750454E+02  0.49787685986E+02  0.71985056165E+02  0.41800000000E+01 0.  1.
         -5    1    3    3    0  502  0.31890752066E+02  0.42451387018E+02  0.22458952221E+03  0.23081825364E+03  0.41800000000E+01 0.  1.
        -11    1    1    2    0    0  0.28891306037E+02 -0.82831292564E+00 -0.16011392776E+02  0.33041766985E+02  0.00000000000E+00 0. -1.
         11    1    1    2    0    0 -0.13006684463E+02 -0.21546323639E+02  0.74070756705E+02  0.78229757138E+02  0.00000000000E+00 0.  1.
</event>
<event>
 7    1  0.2943257E-009  0.9718224E+02  0.7561462E-02  0.1286335E+00
          2   -1    0    0  501    0  0.00000000000E+00  0.00000000000E+00  0.59064507911E+03  0.59064507911E+03  0.00000000000E+00 0. -1.
         -2   -1    0    0    0  501 -0.00000000000E+00 -0.00000000000E+00 -0.20462600856E+02  0.20462600856E+02  0.00000000000E+00 0.  1.
         25    2    1    2    0    0 -0.18183056127E+02 -0.32589096498E+01  0.39537013951E+03  0.41509797415E+03  0.12509011512E+03 0.  0.
          5    1    3    3  502    0 -0.57383686143E+02  0.37571102233E+02  0.24183892111E+03  0.25141203496E+03  0.41800000000E+01 0.  1.
         -5    1    3    3    0  502  0.39200630016E+02 -0.40830011883E+02  0.15353121840E+03  0.16368593919E+03  0.41800000000E+01 0.  1.
        -11    1    1    2    0    0 -0.93732966773E+01  0.29431024621E+02  0.20464409028E+02  0.37051800735E+02  0.00000000000E+00 0.  1.
         11    1    1    2    0    0  0.27556352805E+02 -0.26172114971E+02  0.15434792971E+03  0.15895790508E+03  0.00000000000E+00 0. -1.
</event>
<event>
 7    1  0.2943257E-009  0.1051243E+03  0.7561462E-02  0.1269875E+00
          2   -1    0    0  501    0  0.00000000000E+00  0.00000000000E+00  0.21982788891E+03  0.21982788891E+03  0.00000000000E+00 0. -1.
         -2   -1    0    0    0  501 -0.00000000000E+00 -0.00000000000E+00 -0.56705941486E+02  0.56705941486E+02  0.00000000000E+00 0.  1.
         25    2    1    2    0    0 -0.10348661376E+02 -0.50627659535E+01  0.13300030348E+03  0.18294468717E+03  0.12508777498E+03 0.  0.
          5    1    3    3  502    0 -0.20606768855E+01 -0.64810247507E+02  0.64057655192E+02  0.91244014378E+02  0.41800000000E+01 0.  1.
         -5    1    3    3    0  502 -0.82879844909E+01  0.59747481553E+02  0.68942648284E+02  0.91700672796E+02  0.41800000000E+01 0.  1.
        -11    1    1    2    0    0  0.18025768691E+02 -0.37473383590E+02  0.12352593695E+01  0.41601786984E+02  0.00000000000E+00 0.  1.
         11    1    1    2    0    0 -0.76771073144E+01  0.42536149544E+02  0.28886384581E+02  0.51987356240E+02  0.00000000000E+00 0. -1.
</event>
<event>
 7    1  0.2943257E-009  0.1137572E+03  0.7561462E-02  0.1253766E+00
         -3   -1    0    0    0  501 -0.00000000000E+00  0.00000000000E+00  0.23227758185E+03  0.23227758185E+03  0.00000000000E+00 0.  1.
          3   -1    0    0  501    0  0.00000000000E+00 -0.00000000000E+00 -0.75367271264E+02  0.75367271264E+02  0.00000000000E+00 0. -1.
         25    2    1    2    0    0  0.68583352486E+02  0.31018666832E+02  0.10035354195E+03  0.17715530464E+03  0.12508930670E+03 0.  0.
          5    1    3    3  502    0  0.44404666114E+02 -0.45123041471E+02  0.28219593938E+02  0.69438326062E+02  0.41800000000E+01 0. -1.
         -5    1    3    3    0  502  0.24178686372E+02  0.76141708303E+02  0.72133948013E+02  0.10771697858E+03  0.41800000000E+01 0. -1.
        -11    1    1    2    0    0 -0.22218238709E+02 -0.30460438261E+02 -0.18707342058E+02  0.42088633587E+02  0.00000000000E+00 0. -1.
         11    1    1    2    0    0 -0.46365113777E+02 -0.55822857085E+00  0.75264110691E+02  0.88400914887E+02  0.00000000000E+00 0.  1.
</event>
<event>
 7    1  0.2943257E-009  0.1245503E+03  0.7561462E-02  0.1235774E+00
         -1   -1    0    0    0  501 -0.00000000000E+00  0.00000000000E+00  0.32722145817E+02  0.32722145817E+02  0.00000000000E+00 0.  1.
          1   -1    0    0  501    0  0.00000000000E+00 -0.00000000000E+00 -0.61265416643E+03  0.61265416643E+03  0.00000000000E+00 0. -1.
         25    2    1    2    0    0 -0.74589431449E+02  0.41913215924E+02 -0.24793729381E+03  0.29058545014E+03  0.12508677477E+03 0.  0.
          5    1    3    3  502    0 -0.92197218093E+02  0.50913422823E+02 -0.11450937006E+03  0.15563538120E+03  0.41800000000E+01 0. -1.
         -5    1    3    3    0  502  0.17607786644E+02 -0.90002068986E+01 -0.13342792374E+03  0.13495006895E+03  0.41800000000E+01 0. -1.
        -11    1    1    2    0    0 -0.12699855643E+02  0.14713963670E+02 -0.34133038711E+02  0.39279147036E+02  0.00000000000E+00 0.  1.
         11    1    1    2    0    0  0.87289287092E+02 -0.56627179594E+02 -0.29786168810E+03  0.31551171507E+03  0.00000000000E+00 0. -1.
</event>
<event>
 7    1  0.2943257E-009  0.1130724E+03  0.7561462E-02  0.1254984E+00
         -1   -1    0    0    0  501 -0.00000000000E+00  0.00000000000E+00  0.16820767056E+02  0.16820767056E+02  0.00000000000E+00 0.  1.
          1   -1    0    0  501    0  0.00000000000E+00 -0.00000000000E+00 -0.86351891321E+03  0.86351891321E+03  0.00000000000E+00 0. -1.
         25    2    1    2    0    0  0.27221016490E+02 -0.39932536194E+02 -0.49980775465E+03  0.51748513870E+03  0.12508991161E+03 0.  0.
          5    1    3    3  502    0  0.24344533981E+02 -0.81239219081E+02 -0.24490201922E+03  0.25920443374E+03  0.41800000000E+01 0.  1.
         -5    1    3    3    0  502  0.28764825093E+01  0.41306682888E+02 -0.25490573543E+03  0.25828070496E+03  0.41800000000E+01 0.  1.
        -11    1    1    2    0    0  0.25675934994E+02  0.39021840610E+02 -0.10017422828E+03  0.11052978646E+03  0.00000000000E+00 0.  1.
         11    1    1    2    0    0 -0.52896951484E+02  0.91069558338E+00 -0.24671616323E+03  0.25232475511E+03  0.00000000000E+00 0. -1.
</event>
<event>
 7    1  0.2943257E-009  0.1038448E+03  0.7561462E-02  0.1272412E+00
          2   -1    0    0  501    0  0.00000000000E+00  0.00000000000E+00  0.36391209156E+03  0.36391209156E+03  0.00000000000E+00 0. -1.
         -2   -1    0    0    0  501 -0.00000000000E+00 -0.00000000000E+00 -0.40990810188E+02  0.40990810188E+02  0.00000000000E+00 0.  1.
         25    2    1    2    0    0  0.47913159285E+02 -0.17700093309E+01  0.23407829803E+03  0.26970520057E+03  0.12509772915E+03 0.  0.
          5    1    3    3  502    0  0.88323895402E+02 -0.16686405706E+02  0.14463515443E+03  0.17034185314E+03  0.41800000000E+01 0.  1.
         -5    1    3    3    0  502 -0.40410736117E+02  0.14916396375E+02  0.89443143606E+02  0.99363347429E+02  0.41800000000E+01 0.  1.
        -11    1    1    2    0    0 -0.35703408667E+02 -0.25950316628E+02  0.94577204905E+02  0.10436953584E+03  0.00000000000E+00 0. -1.
         11    1    1    2    0    0 -0.12209750618E+02  0.27720325959E+02 -0.57342215644E+01  0.30828165343E+02  0.00000000000E+00 0.  1.
</event>
<event>
 7    1  0.2943257E-009  0.8767043E+02  0.7561462E-02  0.1308593E+00
         -2   -1    0    0    0  501 -0.00000000000E+00  0.00000000000E+00  0.27179865806E+02  0.27179865806E+02  0.00000000000E+00 0.  1.
          2   -1    0    0  501    0  0.00000000000E+00 -0.00000000000E+00 -0.61802243868E+03  0.61802243868E+03  0.00000000000E+00 0. -1.
         25    2    1    2    0    0  0.25477490142E+02 -0.60381399816E+02 -0.26203695110E+03  0.29766811958E+03  0.12509168528E+03 0.  0.
          5    1    3    3  502    0  0.34252179668E+02 -0.46405458972E+02 -0.30260812095E+02  0.65267661082E+02  0.41800000000E+01 0.  1.
         -5    1    3    3    0  502 -0.87746895263E+01 -0.13975940844E+02 -0.23177613900E+03  0.23240045850E+03  0.41800000000E+01 0.  1.
        -11    1    1    2    0    0 -0.99540273036E+01 -0.18008658508E+02 -0.20519950224E+02  0.29059642083E+02  0.00000000000E+00 0.  1.
         11    1    1    2    0    0 -0.15523462838E+02  0.78390058323E+02 -0.30828567156E+03  0.31847454283E+03  0.00000000000E+00 0. -1.
</event>
<event>
 7    1  0.2943257E-009  0.6399720E+02  0.7561462E-02  0.1381784E+00
         -2   -1    0    0    0  501 -0.00000000000E+00  0.00000000000E+00  0.23386164099E+03  0.23386164099E+03  0.00000000000E+00 0.  1.
          2   -1    0    0  501    0  0.00000000000E+00 -0.00000000000E+00 -0.52079026631E+02  0.52079026631E+02  0.00000000000E+00 0. -1.
         25    2    1    2    0    0  0.14203337780E+00  0.10410689691E+02  0.12942188703E+03  0.18030462343E+03  0.12510527468E+03 0.  0.
          5    1    3    3  502    0  0.18349026135E+02 -0.19227715321E+02 -0.15607280789E+02  0.31103880950E+02  0.41800000000E+01 0. -1.
         -5    1    3    3    0  502 -0.18206992757E+02  0.29638405012E+02  0.14502916782E+03  0.14920074248E+03  0.41800000000E+01 0. -1.
        -11    1    1    2    0    0  0.15807405493E+01  0.27780455634E+02 -0.12376179445E+02  0.30453608547E+02  0.00000000000E+00 0. -1.
         11    1    1    2    0    0 -0.17227739271E+01 -0.38191145324E+02  0.64736906770E+02  0.75182435644E+02  0.00000000000E+00 0.  1.
</event>
<event>
 7    1  0.2943257E-009  0.1254496E+03  0.7561462E-02  0.1234368E+00
         -1   -1    0    0    0  501 -0.00000000000E+00  0.00000000000E+00  0.35248613568E+02  0.35248613568E+02  0.00000000000E+00 0.  1.
          1   -1    0    0  501    0  0.00000000000E+00 -0.00000000000E+00 -0.10585772793E+04  0.10585772793E+04  0.00000000000E+00 0. -1.
         25    2    1    2    0    0 -0.10589469594E+03 -0.32991445148E+02 -0.86105305916E+03  0.87713305357E+03  0.12509157008E+03 0.  0.
          5    1    3    3  502    0 -0.10614743821E+03 -0.32717392958E+02 -0.37658240717E+03  0.39264422602E+03  0.41800000000E+01 0. -1.
         -5    1    3    3    0  502  0.25274226572E+00 -0.27405218976E+00 -0.48447065199E+03  0.48448882755E+03  0.41800000000E+01 0. -1.
        -11    1    1    2    0    0  0.85495529680E+02  0.57972364859E+02 -0.15012109881E+03  0.18222685035E+03  0.00000000000E+00 0. -1.
         11    1    1    2    0    0  0.20399166261E+02 -0.24980919712E+02 -0.12154507748E+02  0.34465988922E+02  0.00000000000E+00 0.  1.
</event>
<event>
 7    1  0.2943257E-009  0.1050780E+03  0.7561462E-02  0.1269966E+00
          2   -1    0    0  501    0  0.00000000000E+00  0.00000000000E+00  0.41725682222E+03  0.41725682222E+03  0.00000000000E+00 0. -1.
         -2   -1    0    0    0  501 -0.00000000000E+00 -0.00000000000E+00 -0.30172108326E+02  0.30172108326E+02  0.00000000000E+00 0.  1.
         25    2    1    2    0    0 -0.78805277684E+01 -0.25334535595E+02  0.20638532836E+03  0.24278880407E+03  0.12509020028E+03 0.  0.
          5    1    3    3  502    0 -0.13383732114E+02  0.44986631907E+02  0.39235529970E+02  0.61317375577E+02  0.41800000000E+01 0. -1.
         -5    1    3    3    0  502  0.55032043459E+01 -0.70321167502E+02  0.16714979839E+03  0.18147142849E+03  0.41800000000E+01 0. -1.
        -11    1    1    2    0    0  0.36117070125E+02  0.45194916135E+02  0.84270329012E+02  0.10221796100E+03  0.00000000000E+00 0.  1.
         11    1    1    2    0    0 -0.28236542356E+02 -0.19860380541E+02  0.96429056521E+02  0.10242216548E+03  0.00000000000E+00 0. -1.
</event>
<event>
 7    1  0.3025560E-009  0.9612327E+02  0.7561462E-02  0.1288666E+00
         -2   -1    0    0    0  501 -0.00000000000E+00  0.00000000000E+00  0.17869512529E+03  0.17869512529E+03  0.00000000000E+00 0.  1.
          2   -1    0    0  501    0  0.00000000000E+00 -0.00000000000E+00 -0.11646856175E+03  0.11646856175E+03  0.00000000000E+00 0. -1.
         25    2    1    2    0    0  0.38249742176E-01 -0.87224055458E+02  0.70144169048E+02  0.16785466961E+03  0.12508776257E+03 0.  0.
          5    1    3    3  502    0 -0.29175331251E+01 -0.52156989046E+02  0.10549772363E+03  0.11779688280E+03  0.41800000000E+01 0.  1.
         -5    1    3    3    0  502  0.29557828672E+01 -0.35067066412E+02 -0.35353554581E+02  0.50057786813E+02  0.41800000000E+01 0.  1.
        -11    1    1    2    0    0 -0.27440548399E+02  0.58974204981E+02  0.30915956814E+02  0.72019003987E+02  0.00000000000E+00 0.  1.
         11    1    1    2    0    0  0.27402298657E+02  0.28249850477E+02 -0.38833562322E+02  0.55290013440E+02  0.00000000000E+00 0. -1.
</event>
<event>
 7    1  0.2995064E-009  0.5404789E+02  0.7561462E-02  0.1424656E+00
          2   -1    0    0  501    0  0.00000000000E+00  0.00000000000E+00  0.16222193044E+03  0.16222193044E+03  0.00000000000E+00 0. -1.
         -2   -1    0    0    0  501 -0.00000000000E+00 -0.00000000000E+00 -0.96714818929E+02  0.96714818929E+02  0.00000000000E+00 0.  1.
         25    2    1    2    0    0 -0.43133303283E+02  0.72151061418E+01 -0.98187573505E+01  0.13287536484E+03  0.12508762919E+03 0.  0.
          5    1    3    3  502    0 -0.12501614286E+02  0.21294021161E+02 -0.64112371452E+02  0.68830184295E+02  0.41800000000E+01 0. -1.
         -5    1    3    3    0  502 -0.30631688997E+02 -0.14078915019E+02  0.54293614101E+02  0.64045180545E+02  0.41800000000E+01 0. -1.
        -11    1    1    2    0    0  0.30411453868E+02 -0.15264073704E+02 -0.13026687615E+02  0.36435464354E+02  0.00000000000E+00 0.  1.
         11    1    1    2    0    0  0.12721849414E+02  0.80489675624E+01  0.88352556475E+02  0.89625920174E+02  0.00000000000E+00 0. -1.
</event>
<event>
 7    1  0.2943257E-009  0.1467467E+03  0.7561462E-02  0.1204529E+00
          1   -1    0    0  501    0  0.00000000000E+00  0.00000000000E+00  0.17549833758E+03  0.17549833758E+03  0.00000000000E+00 0. -1.
         -1   -1    0    0    0  501 -0.00000000000E+00 -0.00000000000E+00 -0.20271128375E+03  0.20271128375E+03  0.00000000000E+00 0.  1.
         25    2    1    2    0    0  0.17441209673E+02 -0.12591163038E+03  0.75434245218E+02  0.19363821168E+03  0.12508995648E+03 0.  0.
          5    1    3    3  502    0 -0.24989693043E+02  0.72930776862E+01 -0.11709953206E+02  0.28849075282E+02  0.41800000000E+01 0. -1.
         -5    1    3    3    0  502  0.42430902716E+02 -0.13320470806E+03  0.87144198423E+02  0.16478913640E+03  0.41800000000E+01 0. -1.
        -11    1    1    2    0    0 -0.12366243340E+02  0.10594919227E+03 -0.32570329221E+02  0.11153018274E+03  0.00000000000E+00 0. -1.
         11    1    1    2    0    0 -0.50749663322E+01  0.19962438111E+02 -0.70076862164E+02  0.73041226916E+02  0.00000000000E+00 0.  1.
</event>
<event>
 7    1  0.2943257E-009  0.1840213E+03  0.7561462E-02  0.1163967E+00
         -3   -1    0    0    0  501 -0.00000000000E+00  0.00000000000E+00  0.81539225200E+03  0.81539225200E+03  0.00000000000E+00 0.  1.
          3   -1    0    0  501    0  0.00000000000E+00 -0.00000000000E+00 -0.43735058047E+02  0.43735058047E+02  0.00000000000E+00 0. -1.
         25    2    1    2    0    0  0.63024428652E+02  0.13759972432E+03  0.46449117311E+03  0.50428705301E+03  0.12509044407E+03 0.  0.
          5    1    3    3  502    0  0.64104775918E+02  0.16026678909E+03  0.42152465576E+03  0.45551660101E+03  0.41800000000E+01 0.  1.
         -5    1    3    3    0  502 -0.10803472657E+01 -0.22667064770E+02  0.42966517347E+02  0.48770452001E+02  0.41800000000E+01 0.  1.
        -11    1    1    2    0    0  0.75460703915E+01  0.76960133173E+01  0.43228386992E+01  0.11612869316E+02  0.00000000000E+00 0. -1.
         11    1    1    2    0    0 -0.70570499044E+02 -0.14529573763E+03  0.30284318215E+03  0.34322738772E+03  0.00000000000E+00 0.  1.
</event>
<event>
 7    1  0.2943257E-009  0.1669874E+03  0.7561462E-02  0.1181026E+00
         -1   -1    0    0    0  501 -0.00000000000E+00  0.00000000000E+00  0.25411652271E+02  0.25411652271E+02  0.00000000000E+00 0.  1.
          1   -1    0    0  501    0  0.00000000000E+00 -0.00000000000E+00 -0.12851269003E+04  0.12851269003E+04  0.00000000000E+00 0. -1.
         25    2    1    2    0    0 -0.70332241907E+02 -0.12614842924E+03 -0.67085853114E+03  0.69753850694E+03  0.12509496153E+03 0.  0.
          5    1    3    3  502    0 -0.37691269441E+02 -0.26611589043E+01 -0.45668564904E+02  0.59420566971E+02  0.41800000000E+01 0. -1.
         -5    1    3    3    0  502 -0.32640972466E+02 -0.12348727034E+03 -0.62518996624E+03  0.63811793996E+03  0.41800000000E+01 0. -1.
        -11    1    1    2    0    0  0.77957247626E+02  0.52195564311E+02 -0.37622258800E+03  0.38774365902E+03  0.00000000000E+00 0.  1.
         11    1    1    2    0    0 -0.76250057190E+01  0.73952864930E+02 -0.21263412893E+03  0.22525638665E+03  0.00000000000E+00 0. -1.
</event>
<event>
 7    1  0.2943257E-009  0.1177535E+03  0.7561462E-02  0.1246850E+00
         -4   -1    0    0    0  501 -0.00000000000E+00  0.00000000000E+00  0.11598087443E+02  0.11598087443E+02  0.00000000000E+00 0. -1.
          4   -1    0    0  501    0  0.00000000000E+00 -0.00000000000E+00 -0.14575445097E+04  0.14575445097E+04  0.00000000000E+00 0.  1.
         25    2    1    2    0    0  0.49447744781E+02 -0.36176161043E+02 -0.10204639407E+04  0.10299260340E+04  0.12508871685E+03 0.  0.
          5    1    3    3  502    0  0.20050795218E+02 -0.78775682360E+02 -0.46783084102E+03  0.47485872713E+03  0.41800000000E+01 0.  1.
         -5    1    3    3    0  502  0.29396949562E+02  0.42599521317E+02 -0.55263309970E+03  0.55506730686E+03  0.41800000000E+01 0.  1.
        -11    1    1    2    0    0 -0.64073194441E+02  0.50600164532E+02 -0.38777782432E+03  0.39627943668E+03  0.00000000000E+00 0.  1.
         11    1    1    2    0    0  0.14625449661E+02 -0.14424003489E+02 -0.37704657205E+02  0.42937126469E+02  0.00000000000E+00 0. -1.
</event>
<event>
 7    1  0.2943257E-009  0.1000074E+03  0.7561462E-02  0.1280280E+00
         -2   -1    0    0    0  501 -0.00000000000E+00  0.00000000000E+00  0.30644918540E+02  0.30644918540E+02  0.00000000000E+00 0.  1.
          2   -1    0    0  501    0  0.00000000000E+00 -0.00000000000E+00 -0.61860840403E+03  0.61860840403E+03  0.00000000000E+00 0. -1.
         25    2    1    2    0    0 -0.72844519209E+02 -0.13993183532E+02 -0.22819631667E+03  0.27058997868E+03  0.12507295654E+03 0.  0.
          5    1    3    3  502    0 -0.25868440199E+02  0.15582734455E+02 -0.20973664090E+03  0.21194086143E+03  0.41800000000E+01 0.  1.
         -5    1    3    3    0  502 -0.46976079010E+02 -0.29575917987E+02 -0.18459675771E+02  0.58649117244E+02  0.41800000000E+01 0.  1.
        -11    1    1    2    0    0 -0.95384331756E+01  0.28638086656E+02 -0.56414920836E+02  0.63982536740E+02  0.00000000000E+00 0.  1.
         11    1    1    2    0    0  0.82382952384E+02 -0.14644903124E+02 -0.30335224799E+03  0.31468080715E+03  0.00000000000E+00 0. -1.
</event>
<event>
 7    1  0.2943257E-009  0.2065106E+03  0.7561462E-02  0.1144359E+00
         -1   -1    0    0    0  501 -0.00000000000E+00  0.00000000000E+00  0.81798010111E+02  0.81798010111E+02  0.00000000000E+00 0.  1.
          1   -1    0    0  501    0  0.00000000000E+00 -0.00000000000E+00 -0.60429329228E+03  0.60429329228E+03  0.00000000000E+00 0. -1.
         25    2    1    2    0    0  0.16315863277E+03 -0.91733085337E+02 -0.34549065262E+03  0.41236606229E+03  0.12508509060E+03 0.  0.
          5    1    3    3  502    0  0.16881867163E+03 -0.11231645712E+03 -0.31998892372E+03  0.37884708542E+03  0.41800000000E+01 0.  1.
         -5    1    3    3    0  502 -0.56600388528E+01  0.20583371780E+02 -0.25501728898E+02  0.33518976870E+02  0.41800000000E+01 0.  1.
        -11    1    1    2    0    0 -0.22031471888E+02  0.21643538437E+02  0.67989747394E+01  0.31623639372E+02  0.00000000000E+00 0.  1.
         11    1    1    2    0    0 -0.14112716089E+03  0.70089546900E+02 -0.18380360429E+03  0.24210160072E+03  0.00000000000E+00 0. -1.
</event>
<event>
 7    1  0.2943257E-009  0.3220779E+03  0.7561462E-02  0.1074697E+00
          2   -1    0    0  501    0  0.00000000000E+00  0.00000000000E+00  0.11281334913E+04  0.11281334913E+04  0.00000000000E+00 0. -1.
         -2   -1    0    0    0  501 -0.00000000000E+00 -0.00000000000E+00 -0.13657260863E+03  0.13657260863E+03  0.00000000000E+00 0.  1.
         25    2    1    2    0    0  0.42896837466E+01  0.31003096685E+03  0.15633909942E+03  0.36908834995E+03  0.12508674697E+03 0.  0.
          5    1    3    3  502    0  0.49287239192E+02  0.26476999011E+03  0.13747101169E+03  0.30240392038E+03  0.41800000000E+01 0.  1.
         -5    1    3    3    0  502 -0.44997555445E+02  0.45260976747E+02  0.18868087728E+02  0.66684429566E+02  0.41800000000E+01 0.  1.
        -11    1    1    2    0    0 -0.12472897164E+02 -0.24250281555E+03  0.53104668042E+03  0.58392958951E+03  0.00000000000E+00 0.  1.
         11    1    1    2    0    0  0.81832134170E+01 -0.67528151300E+02  0.30417510286E+03  0.31168816051E+03  0.00000000000E+00 0. -1.
</event>
<event>
 7    1  0.2943257E-009  0.2998307E+03  0.7561462E-02  0.1085325E+00
         -2   -1    0    0    0  501 -0.00000000000E+00  0.00000000000E+00  0.51180421531E+02  0.51180421531E+02  0.00000000000E+00 0.  1.
          2   -1    0    0  501    0  0.00000000000E+00 -0.00000000000E+00 -0.21136261906E+04  0.21136261906E+04  0.00000000000E+00 0. -1.
         25    2    1    2    0    0 -0.23136793777E+03  0.15900194507E+03 -0.61555392302E+03  0.68801619293E+03  0.12508760303E+03 0.  0.
          5    1    3    3  502    0 -0.16493043488E+03  0.39408174701E+02 -0.36584255817E+03  0.40325339720E+03  0.41800000000E+01 0. -1.
         -5    1    3    3    0  502 -0.66437502890E+02  0.11959377037E+03 -0.24971136485E+03  0.28476279574E+03  0.41800000000E+01 0. -1.
        -11    1    1    2    0    0  0.20443563264E+03 -0.98477078297E+02 -0.11936181128E+04  0.12149962395E+04  0.00000000000E+00 0. -1.
         11    1    1    2    0    0  0.26932305127E+02 -0.60524866775E+02 -0.25327373325E+03  0.26179417967E+03  0.00000000000E+00 0.  1.
</event>
<event>
 7    1  0.2943257E-009  0.1266155E+03  0.7561462E-02  0.1232566E+00
          1   -1    0    0  501    0  0.00000000000E+00  0.00000000000E+00  0.77596421208E+02  0.77596421208E+02  0.00000000000E+00 0. -1.
         -1   -1    0    0    0  501 -0.00000000000E+00 -0.00000000000E+00 -0.28326659552E+03  0.28326659552E+03  0.00000000000E+00 0.  1.
         25    2    1    2    0    0 -0.43466111964E+02 -0.87505383763E+02 -0.84677684484E+02  0.17989715082E+03  0.12508468949E+03 0.  0.
          5    1    3    3  502    0 -0.62696778252E+01  0.14717441505E+02 -0.67738050489E+02  0.69726808536E+02  0.41800000000E+01 0.  1.
         -5    1    3    3    0  502 -0.37196434139E+02 -0.10222282527E+03 -0.16939633995E+02  0.11017034228E+03  0.41800000000E+01 0.  1.
        -11    1    1    2    0    0  0.55326996413E+02  0.19283697573E+02 -0.27768719707E+02  0.64838563513E+02  0.00000000000E+00 0. -1.
         11    1    1    2    0    0 -0.11860884449E+02  0.68221686190E+02 -0.93223770116E+02  0.11612730239E+03  0.00000000000E+00 0.  1.
</event>
<event>
 7    1  0.3303936E-009  0.1797552E+03  0.7561462E-02  0.1168040E+00
          1   -1    0    0  501    0  0.00000000000E+00  0.00000000000E+00  0.49032008094E+03  0.49032008094E+03  0.00000000000E+00 0. -1.
         -1   -1    0    0    0  501 -0.00000000000E+00 -0.00000000000E+00 -0.79368720455E+02  0.79368720455E+02  0.00000000000E+00 0.  1.
         25    2    1    2    0    0  0.23069981447E+02  0.15314390965E+03  0.13515602428E+03  0.24062369069E+03  0.12508928217E+03 0.  0.
          5    1    3    3  502    0  0.65007160999E+02  0.11081460815E+03  0.52982180617E+02  0.13903378087E+03  0.41800000000E+01 0.  1.
         -5    1    3    3    0  502 -0.41937179551E+02  0.42329301499E+02  0.82173843665E+02  0.10158990982E+03  0.41800000000E+01 0.  1.
        -11    1    1    2    0    0 -0.44871732417E+02 -0.56438675484E+02  0.69296486240E+02  0.10000399725E+03  0.00000000000E+00 0.  1.
         11    1    1    2    0    0  0.21801750970E+02 -0.96705234168E+02  0.20649884996E+03  0.22906111346E+03  0.00000000000E+00 0. -1.
</event>
<event>
 7    1  0.2943257E-009  0.1181436E+03  0.7561462E-02  0.1246191E+00
         -1   -1    0    0    0  501 -0.00000000000E+00  0.00000000000E+00  0.21448571888E+03  0.21448571888E+03  0.00000000000E+00 0.  1.
          1   -1    0    0  501    0  0.00000000000E+00 -0.00000000000E+00 -0.86547172577E+02  0.86547172577E+02  0.00000000000E+00 0. -1.
         25    2    1    2    0    0 -0.30295327862E+02 -0.67527318937E+02  0.10925147602E+03  0.18182556928E+03  0.12508759706E+03 0.  0.
          5    1    3    3  502    0 -0.43884926827E+02  0.25472228330E+02  0.44457978262E+02  0.67592199623E+02  0.41800000000E+01 0. -1.
         -5    1    3    3    0  502  0.13589598965E+02 -0.92999547266E+02  0.64793497755E+02  0.11423336966E+03  0.41800000000E+01 0. -1.
        -11    1    1    2    0    0  0.36704244955E+02  0.17155385952E+02  0.46204831637E+02  0.61452382635E+02  0.00000000000E+00 0.  1.
         11    1    1    2    0    0 -0.64089170936E+01  0.50371932985E+02 -0.27517761356E+02  0.57754939538E+02  0.00000000000E+00 0. -1.
</event>
<event>
 7    1  0.2943257E-009  0.8052107E+02  0.7561462E-02  0.1327579E+00
         -3   -1    0    0    0  501 -0.00000000000E+00  0.00000000000E+00  0.13075740654E+03  0.13075740654E+03  0.00000000000E+00 0.  1.
          3   -1    0    0  501    0  0.00000000000E+00 -0.00000000000E+00 -0.14654306240E+03  0.14654306240E+03  0.00000000000E+00 0. -1.
         25    2    1    2    0    0  0.15747483127E+02  0.13257802942E+02  0.74556802908E+02  0.14707189859E+03  0.12509066285E+03 0.  0.
          5    1    3    3  502    0 -0.54845250914E+01  0.35533273163E+02 -0.24204171500E+02  0.43543172084E+02  0.41800000000E+01 0. -1.
         -5    1    3    3    0  502  0.21232008219E+02 -0.22275470221E+02  0.98760974408E+02  0.10352872651E+03  0.41800000000E+01 0. -1.
        -11    1    1    2    0    0  0.25894772945E+02 -0.37525326502E+02 -0.43173914991E+02  0.62790734433E+02  0.00000000000E+00 0.  1.
         11    1    1    2    0    0 -0.41642256072E+02  0.24267523560E+02 -0.47168543776E+02  0.67437835911E+02  0.00000000000E+00 0. -1.
</event>
<event>
 7    1  0.2943257E-009  0.1632049E+03  0.7561462E-02  0.1185125E+00
          2   -1    0    0  501    0  0.00000000000E+00  0.00000000000E+00  0.24361820192E+03  0.24361820192E+03  0.00000000000E+00 0. -1.
         -2   -1    0    0    0  501 -0.00000000000E+00 -0.00000000000E+00 -0.23335919711E+03  0.23335919711E+03  0.00000000000E+00 0.  1.
         25    2    1    2    0    0 -0.12025945389E+02  0.16026406224E+03 -0.13276501602E+03  0.24311115900E+03  0.12508914080E+03 0.  0.
          5    1    3    3  502    0 -0.21300722582E+02  0.44799165910E+02 -0.11569297236E+03  0.12594849067E+03  0.41800000000E+01 0. -1.
         -5    1    3    3    0  502  0.92747771935E+01  0.11546489633E+03 -0.17072043655E+02  0.11716266833E+03  0.41800000000E+01 0. -1.
        -11    1    1    2    0    0  0.61213812772E+01 -0.86719121739E+02  0.18127642756E+02  0.88804779240E+02  0.00000000000E+00 0.  1.
         11    1    1    2    0    0  0.59045641116E+01 -0.73544940498E+02  0.12489637807E+03  0.14506146078E+03  0.00000000000E+00 0. -1.
</event>
<event>
 7    1  0.2943257E-009  0.1096489E+03  0.7561462E-02  0.1261221E+00
         -3   -1    0    0    0  501 -0.00000000000E+00  0.00000000000E+00  0.25549052678E+03  0.25549052678E+03  0.00000000000E+00 0.  1.
          3   -1    0    0  501    0  0.00000000000E+00 -0.00000000000E+00 -0.73507241872E+02  0.73507241872E+02  0.00000000000E+00 0. -1.
         25    2    1    2    0    0 -0.58327982984E+02 -0.70680448665E+01  0.30483679599E+02  0.14152445780E+03  0.12509119304E+03 0.  0.
          5    1    3    3  502    0 -0.10263506287E+02 -0.49113169382E+02  0.53547005084E+02  0.73499640282E+02  0.41800000000E+01 0. -1.
         -5    1    3    3    0  502 -0.48064476697E+02  0.42045124516E+02 -0.23063325485E+02  0.68024817516E+02  0.41800000000E+01 0. -1.
        -11    1    1    2    0    0  0.59766040368E-02  0.38636552762E+02  0.29489410546E+02  0.48604614796E+02  0.00000000000E+00 0. -1.
         11    1    1    2    0    0  0.58322006380E+02 -0.31568507896E+02  0.12201019477E+03  0.13886869606E+03  0.00000000000E+00 0.  1.
</event>
<event>
 7    1  0.2943257E-009  0.3696458E+03  0.7561462E-02  0.1054828E+00
         -1   -1    0    0    0  501 -0.00000000000E+00  0.00000000000E+00  0.11678861007E+04  0.11678861007E+04  0.00000000000E+00 0.  1.
          1   -1    0    0  501    0  0.00000000000E+00 -0.00000000000E+00 -0.13205246293E+03  0.13205246293E+03  0.00000000000E+00 0. -1.
         25    2    1    2    0    0 -0.26350141112E+03 -0.25877076493E+03  0.66382853156E+03  0.76987737215E+03  0.12509015304E+03 0.  0.
          5    1    3    3  502    0 -0.69511621316E+02 -0.80230416084E+02  0.31614453226E+03  0.33351705030E+03  0.41800000000E+01 0. -1.
         -5    1    3    3    0  502 -0.19398978980E+03 -0.17854034885E+03  0.34768399930E+03  0.43636032185E+03  0.41800000000E+01 0. -1.
        -11    1    1    2    0    0  0.11559273377E+03  0.10892808884E+03  0.21555349464E+03  0.26775047655E+03  0.00000000000E+00 0.  1.
         11    1    1    2    0    0  0.14790867734E+03  0.14984267609E+03  0.15645161159E+03  0.26231071496E+03  0.00000000000E+00 0. -1.
</event>
<event>
 7    1  0.2943257E-009  0.1131618E+03  0.7561462E-02  0.1254824E+00
          3   -1    0    0  501    0  0.00000000000E+00  0.00000000000E+00  0.17207378623E+03  0.17207378623E+03  0.00000000000E+00 0. -1.
         -3   -1    0    0    0  501 -0.00000000000E+00 -0.00000000000E+00 -0.10459627569E+03  0.10459627569E+03  0.00000000000E+00 0.  1.
         25    2    1    2    0    0 -0.10078677438E+02  0.29682420862E+02 -0.13384885865E+02  0.12964607863E+03  0.12508526967E+03 0.  0.
          5    1    3    3  502    0 -0.23396975628E+02  0.76359947456E+02 -0.12302327804E+02  0.80914026679E+02  0.41800000000E+01 0.  1.
         -5    1    3    3    0  502  0.13318298190E+02 -0.46677526593E+02 -0.10825580612E+01  0.48732051952E+02  0.41800000000E+01 0.  1.
        -11    1    1    2    0    0  0.38328084340E+02 -0.49878610842E+02  0.91201768661E+02  0.11079115703E+03  0.00000000000E+00 0. -1.
         11    1    1    2    0    0 -0.28249406902E+02  0.20196189980E+02 -0.10339372262E+02  0.36232826260E+02  0.00000000000E+00 0.  1.
</event>
<event>
 7    1  0.2943257E-009  0.1442502E+03  0.7561462E-02  0.1207722E+00
          2   -1    0    0  501    0  0.00000000000E+00  0.00000000000E+00  0.94775563536E+03  0.94775563536E+03  0.00000000000E+00 0. -1.
         -2   -1    0    0    0  501 -0.00000000000E+00 -0.00000000000E+00 -0.28119345443E+02  0.28119345443E+02  0.00000000000E+00 0.  1.
         25    2    1    2    0    0 -0.42352912924E+02  0.11250000978E+03  0.51598035916E+03  0.54436513721E+03  0.12509056772E+03 0.  0.
          5    1    3    3  502    0 -0.31255653355E+02  0.13490449309E+03  0.48465743909E+03  0.50406987987E+03  0.41800000000E+01 0.  1.
         -5    1    3    3    0  502 -0.11097259569E+02 -0.22404483313E+02  0.31322920072E+02  0.40295257342E+02  0.41800000000E+01 0.  1.
        -11    1    1    2    0    0  0.13941785283E+02 -0.80996958974E+02  0.36492823597E+03  0.37406884145E+03  0.00000000000E+00 0. -1.
         11    1    1    2    0    0  0.28411127641E+02 -0.31503050801E+02  0.38727694787E+02  0.57441002142E+02  0.00000000000E+00 0.  1.
</event>
<event>
 7    1  0.2943257E-009  0.1158492E+03  0.7561462E-02  0.1250106E+00
          1   -1    0    0  501    0  0.00000000000E+00  0.00000000000E+00  0.85561926183E+02  0.85561926183E+02  0.00000000000E+00 0. -1.
         -1   -1    0    0    0  501 -0.00000000000E+00 -0.00000000000E+00 -0.22790656276E+03  0.22790656276E+03  0.00000000000E+00 0.  1.
         25    2    1    2    0    0  0.65092038288E+02 -0.59253544152E+02 -0.74586169438E+02  0.17016907030E+03  0.12508581003E+03 0.  0.
          5    1    3    3  502    0 -0.44800933679E+01 -0.54133565558E+02 -0.83517382716E+02  0.99715293573E+02  0.41800000000E+01 0. -1.
         -5    1    3    3    0  502  0.69572131656E+02 -0.51199785946E+01  0.89312132777E+01  0.70453776723E+02  0.41800000000E+01 0. -1.
        -11    1    1    2    0    0 -0.43123619674E+02 -0.10676695466E+01  0.81335221197E+01  0.43896932400E+02  0.00000000000E+00 0. -1.
         11    1    1    2    0    0 -0.21968418613E+02  0.60321213699E+02 -0.75891989259E+02  0.99402486248E+02  0.00000000000E+00 0.  1.
</event>
<event>
 7    1  0.2943257E-009  0.1857606E+03  0.7561462E-02  0.1162341E+00
          2   -1    0    0  501    0  0.00000000000E+00  0.00000000000E+00  0.11690282220E+04  0.11690282220E+04  0.00000000000E+00 0. -1.
         -2   -1    0    0    0  501 -0.00000000000E+00 -0.00000000000E+00 -0.33631489640E+02  0.33631489640E+02  0.00000000000E+00 0.  1.
         25    2    1    2    0    0 -0.61304618689E+02  0.15291102710E+03  0.63648430930E+03  0.66925357785E+03  0.12509211404E+03 0.  0.
          5    1    3    3  502    0 -0.66473196247E+02  0.16265449830E+03  0.63300877022E+03  0.65695718826E+03  0.41800000000E+01 0. -1.
         -5    1    3    3    0  502  0.51685775574E+01 -0.97434711985E+01  0.34755390829E+01  0.12296389587E+02  0.41800000000E+01 0. -1.
        -11    1    1    2    0    0  0.49809185611E+02 -0.25356768694E+02  0.10155651475E+03  0.11592086256E+03  0.00000000000E+00 0.  1.
         11    1    1    2    0    0  0.11495433078E+02 -0.12755425841E+03  0.39735590831E+03  0.41748527123E+03  0.00000000000E+00 0. -1.
</event>
<event>
 7    1  0.2943257E-009  0.1180546E+03  0.7561462E-02  0.1246341E+00
          1   -1    0    0  501    0  0.00000000000E+00  0.00000000000E+00  0.93475147595E+02  0.93475147595E+02  0.00000000000E+00 0. -1.
         -1   -1    0    0    0  501 -0.00000000000E+00 -0.00000000000E+00 -0.35062673195E+03  0.35062673195E+03  0.00000000000E+00 0.  1.
         25    2    1    2    0    0  0.44977560683E+02  0.10400744776E+03 -0.24459858987E+03  0.29717987960E+03  0.12508749145E+03 0.  0.
          5    1    3    3  502    0  0.53606109447E+02  0.76168934756E+02 -0.25037866705E+03  0.26717460752E+03  0.41800000000E+01 0.  1.
         -5    1    3    3    0  502 -0.86285487632E+01  0.27838513006E+02  0.57800771785E+01  0.30005272075E+02  0.41800000000E+01 0.  1.
        -11    1    1    2    0    0 -0.16081118818E+02 -0.43504725131E+02 -0.51559884981E+02  0.69351894210E+02  0.00000000000E+00 0.  1.
         11    1    1    2    0    0 -0.28896441866E+02 -0.60502722630E+02  0.39006890495E+02  0.77570105739E+02  0.00000000000E+00 0. -1.
</event>
<event>
 7    1  0.2943257E-009  0.9208720E+02  0.7561462E-02  0.1297875E+00
         -1   -1    0    0    0  501 -0.00000000000E+00  0.00000000000E+00  0.39214977294E+03  0.39214977294E+03  0.00000000000E+00 0.  1.
          1   -1    0    0  501    0  0.00000000000E+00 -0.00000000000E+00 -0.25657002480E+02  0.25657002480E+02  0.00000000000E+00 0. -1.
         25    2    1    2    0    0  0.20506077025E+02  0.10322380813E+01  0.20590786875E+03  0.24179999154E+03  0.12509045043E+03 0.  0.
          5    1    3    3  502    0  0.28096729341E+02  0.57517393399E+02  0.73321905839E+02  0.97423051784E+02  0.41800000000E+01 0.  1.
         -5    1    3    3    0  502 -0.75906523159E+01 -0.56485155318E+02  0.13258596291E+03  0.14437693976E+03  0.41800000000E+01 0.  1.
        -11    1    1    2    0    0  0.13854087522E+02  0.18687041496E+02  0.22545817102E+02  0.32395294871E+02  0.00000000000E+00 0. -1.
         11    1    1    2    0    0 -0.34360164547E+02 -0.19719279578E+02  0.13803908461E+03  0.14361148901E+03  0.00000000000E+00 0.  1.
</event>
<event>
 7    1  0.2943257E-009  0.1672556E+03  0.7561462E-02  0.1180740E+00
         -2   -1    0    0    0  501 -0.00000000000E+00  0.00000000000E+00  0.11344650102E+03  0.11344650102E+03  0.00000000000E+00 0.  1.
          2   -1    0    0  501    0  0.00000000000E+00 -0.00000000000E+00 -0.24878501744E+03  0.24878501744E+03  0.00000000000E+00 0. -1.
         25    2    1    2    0    0 -0.90370364765E+02 -0.90560874314E+02 -0.68090121000E+02  0.19144608548E+03  0.12508902544E+03 0.  0.
          5    1    3    3  502    0 -0.10735991568E+03 -0.25776647823E+02 -0.30923968152E+02  0.11473600688E+03  0.41800000000E+01 0. -1.
         -5    1    3    3    0  502  0.16989550916E+02 -0.64784226491E+02 -0.37166152848E+02  0.76710078607E+02  0.41800000000E+01 0. -1.
        -11    1    1    2    0    0  0.98755272107E+02  0.41461649433E+02 -0.43477181424E+02  0.11559384693E+03  0.00000000000E+00 0.  1.
         11    1    1    2    0    0 -0.83849073424E+01  0.49099224881E+02 -0.23771213996E+02  0.55191586043E+02  0.00000000000E+00 0. -1.
</event>
<event>
 7    1  0.2943257E-009  0.1451466E+03  0.7561462E-02  0.1206567E+00
          1   -1    0    0  501    0  0.00000000000E+00  0.00000000000E+00  0.12543245117E+04  0.12543245117E+04  0.00000000000E+00 0. -1.
         -1   -1    0    0    0  501 -0.00000000000E+00 -0.00000000000E+00 -0.28536512643E+02  0.28536512643E+02  0.00000000000E+00 0.  1.
         25    2    1    2    0    0  0.11204993025E+03  0.53810476855E+02  0.92991324759E+03  0.94648665085E+03  0.12509027898E+03 0.  0.
          5    1    3    3  502    0  0.84697992841E+02  0.11145291465E+02  0.24151374491E+03  0.25621149251E+03  0.41800000000E+01 0.  1.
         -5    1    3    3    0  502  0.27351937410E+02  0.42665185389E+02  0.68839950269E+03  0.69027515834E+03  0.41800000000E+01 0.  1.
        -11    1    1    2    0    0 -0.91684007342E+02  0.48535603738E+01  0.12913808934E+03  0.15844923593E+03  0.00000000000E+00 0.  1.
         11    1    1    2    0    0 -0.20365922909E+02 -0.58664037228E+02  0.16673666217E+03  0.17792513761E+03  0.00000000000E+00 0. -1.
</event>
<event>
 7    1  0.2943257E-009  0.1076572E+03  0.7561462E-02  0.1264971E+00
         -1   -1    0    0    0  501 -0.00000000000E+00  0.00000000000E+00  0.57941996839E+02  0.57941996839E+02  0.00000000000E+00 0.  1.
          1   -1    0    0  501    0  0.00000000000E+00 -0.00000000000E+00 -0.26583358257E+03  0.26583358257E+03  0.00000000000E+00 0. -1.
         25    2    1    2    0    0 -0.31488250450E+02 -0.57879093221E+01 -0.18647525537E+03  0.22680738337E+03  0.12507421187E+03 0.  0.
          5    1    3    3  502    0 -0.17287349911E+02  0.58438812421E+02 -0.69401483149E+02  0.92455316382E+02  0.41800000000E+01 0. -1.
         -5    1    3    3    0  502 -0.14200900539E+02 -0.64226721743E+02 -0.11707377222E+03  0.13435206699E+03  0.41800000000E+01 0. -1.
        -11    1    1    2    0    0 -0.18931094623E+02  0.27530091972E+02 -0.25321213430E+02  0.41922024727E+02  0.00000000000E+00 0. -1.
         11    1    1    2    0    0  0.50419345073E+02 -0.21742182650E+02  0.39048830721E+01  0.55046171309E+02  0.00000000000E+00 0.  1.
</event>
<event>
 7    1  0.2943257E-009  0.1115022E+03  0.7561462E-02  0.1257813E+00
          1   -1    0    0  501    0  0.00000000000E+00  0.00000000000E+00  0.36077629762E+03  0.36077629762E+03  0.00000000000E+00 0. -1.
         -1   -1    0    0    0  501 -0.00000000000E+00 -0.00000000000E+00 -0.41650519492E+02  0.41650519492E+02  0.00000000000E+00 0.  1.
         25    2    1    2    0    0 -0.48031963625E+02 -0.43857083026E+02  0.14731624504E+03  0.20391148061E+03  0.12508917864E+03 0.  0.
          5    1    3    3  502    0 -0.32111089495E+02 -0.86169950750E+02  0.11882473201E+03  0.15031025187E+03  0.41800000000E+01 0.  1.
         -5    1    3    3    0  502 -0.15920874130E+02  0.42312867724E+02  0.28491513029E+02  0.53601228743E+02  0.41800000000E+01 0.  1.
        -11    1    1    2    0    0  0.11052857065E+02 -0.13411464659E+02  0.46508636565E+01  0.17990652194E+02  0.00000000000E+00 0.  1.
         11    1    1    2    0    0  0.36979106560E+02  0.57268547686E+02  0.16715866943E+03  0.18052468430E+03  0.00000000000E+00 0. -1.
</event>
<event>
 7    1  0.2943257E-009  0.1590568E+03  0.7561462E-02  0.1189766E+00
         -2   -1    0    0    0  501 -0.00000000000E+00  0.00000000000E+00  0.63559917585E+02  0.63559917585E+02  0.00000000000E+00 0.  1.
          2   -1    0    0  501    0  0.00000000000E+00 -0.00000000000E+00 -0.44627907894E+03  0.44627907894E+03  0.00000000000E+00 0. -1.
         25    2    1    2    0    0  0.98786718060E+02 -0.82578126423E+02 -0.20441750961E+03  0.27205172910E+03  0.12509061693E+03 0.  0.
          5    1    3    3  502    0  0.12462132122E+02 -0.79157961974E+02 -0.48528046822E+02  0.93774897544E+02  0.41800000000E+01 0. -1.
         -5    1    3    3    0  502  0.86324585938E+02 -0.34201644494E+01 -0.15588946279E+03  0.17827683156E+03  0.41800000000E+01 0. -1.
        -11    1    1    2    0    0 -0.64859111603E+02  0.95186944575E+02 -0.10421560864E+03  0.15533239154E+03  0.00000000000E+00 0.  1.
         11    1    1    2    0    0 -0.33927606457E+02 -0.12608818151E+02 -0.74086043098E+02  0.82454875884E+02  0.00000000000E+00 0. -1.
</event>
<event>
 6    1  0.2943257E-009  0.2805676E+03  0.7561462E-02  0.1095379E+00
         -2   -1    0    0    0  501 -0.00000000000E+00  0.00000000000E+00  0.24930222258E+03  0.24930222258E+03  0.00000000000E+00 0.  1.
          2   -1    0    0  501    0  0.00000000000E+00 -0.00000000000E+00 -0.45848453818E+03  0.45848453818E+03  0.00000000000E+00 0. -1.
          5    1    1    2  502    0  0.79130419139E+01  0.19980552869E+02  0.99066900522E+01  0.24030264939E+02  0.41800000000E+01 0.  1.
         -5    1    1    2    0  502  0.19882369899E+03 -0.17607590346E+03  0.80221361873E+02  0.27746445964E+03  0.41800000000E+01 0.  1.
        -11    1    1    2    0    0 -0.41066096343E+02 -0.64076491853E+01 -0.59519154495E+02  0.72594848225E+02  0.00000000000E+00 0.  1.
         11    1    1    2    0    0 -0.16567064456E+03  0.16250299978E+03 -0.23979121303E+03  0.33369718796E+03  0.00000000000E+00 0. -1.
</event>
<event>
 7    1  0.2943257E-009  0.1177945E+03  0.7561462E-02  0.1246780E+00
         -1   -1    0    0    0  501 -0.00000000000E+00  0.00000000000E+00  0.72067433538E+02  0.72067433538E+02  0.00000000000E+00 0.  1.
          1   -1    0    0  501    0  0.00000000000E+00 -0.00000000000E+00 -0.22395595054E+03  0.22395595054E+03  0.00000000000E+00 0. -1.
         25    2    1    2    0    0 -0.15274942381E+02 -0.52247036684E+02 -0.40490642017E+02  0.14229563108E+03  0.12508188448E+03 0.  0.
          5    1    3    3  502    0 -0.19291996386E+02  0.39050040161E+02 -0.21958401052E+02  0.48956414675E+02  0.41800000000E+01 0.  1.
         -5    1    3    3    0  502  0.40170540043E+01 -0.91297076846E+02 -0.18532240966E+02  0.93339216403E+02  0.41800000000E+01 0.  1.
        -11    1    1    2    0    0 -0.10125337837E+02 -0.20735738545E+02 -0.49864513837E+02  0.54945091314E+02  0.00000000000E+00 0.  1.
         11    1    1    2    0    0  0.25400280219E+02  0.72982775230E+02 -0.61533361145E+02  0.98782661684E+02  0.00000000000E+00 0. -1.
</event>
<event>
 7    1  0.2943257E-009  0.1108234E+03  0.7561462E-02  0.1259053E+00
          1   -1    0    0  501    0  0.00000000000E+00  0.00000000000E+00  0.14900624801E+03  0.14900624801E+03  0.00000000000E+00 0. -1.
         -1   -1    0    0    0  501 -0.00000000000E+00 -0.00000000000E+00 -0.14920421375E+03  0.14920421375E+03  0.00000000000E+00 0.  1.
         25    2    1    2    0    0 -0.30618793544E+02 -0.82492450972E+02 -0.65293927716E+02  0.16628967806E+03  0.12508575078E+03 0.  0.
          5    1    3    3  502    0 -0.26244446797E+02  0.61048382902E+01  0.26885646938E+02  0.38292955612E+02  0.41800000000E+01 0.  1.
         -5    1    3    3    0  502 -0.43743467467E+01 -0.88597289262E+02 -0.92179574653E+02  0.12799672245E+03  0.41800000000E+01 0.  1.
        -11    1    1    2    0    0  0.43900114147E+02  0.34659156003E+02  0.59983655819E+02  0.82015340531E+02  0.00000000000E+00 0. -1.
         11    1    1    2    0    0 -0.13281320604E+02  0.47833294969E+02  0.51123061553E+01  0.49905443178E+02  0.00000000000E+00 0.  1.
</event>
<event>
 7    1  0.2943257E-009  0.9554555E+02  0.7561462E-02  0.1289952E+00
          2   -1    0    0  501    0  0.00000000000E+00  0.00000000000E+00  0.47179705483E+03  0.47179705483E+03  0.00000000000E+00 0. -1.
         -2   -1    0    0    0  501 -0.00000000000E+00 -0.00000000000E+00 -0.32131302863E+02  0.32131302863E+02  0.00000000000E+00 0.  1.
         25    2    1    2    0    0  0.48270171532E+02  0.28151345137E+02  0.26385326348E+03  0.29730257757E+03  0.12509104800E+03 0.  0.
          5    1    3    3  502    0 -0.14339965021E+02  0.37817798779E+01 -0.79146077087E+01  0.17321947669E+02  0.41800000000E+01 0.  1.
         -5    1    3    3    0  502  0.62610136553E+02  0.24369565259E+02  0.27176787119E+03  0.27998062990E+03  0.41800000000E+01 0.  1.
        -11    1    1    2    0    0 -0.51829382294E+02  0.23276825173E+02  0.98224229778E+02  0.11347288123E+03  0.00000000000E+00 0. -1.
         11    1    1    2    0    0  0.35592107621E+01 -0.51428170309E+02  0.77588258709E+02  0.93152898893E+02  0.00000000000E+00 0.  1.
</event>
<event>
 7    1  0.2943257E-009  0.1692255E+03  0.7561462E-02  0.1178658E+00
          1   -1    0    0  501    0  0.00000000000E+00  0.00000000000E+00  0.49153970661E+03  0.49153970661E+03  0.00000000000E+00 0. -1.
         -1   -1    0    0    0  501 -0.00000000000E+00 -0.00000000000E+00 -0.95690688430E+02  0.95690688430E+02  0.00000000000E+00 0.  1.
         25    2    1    2    0    0 -0.53071329319E+02  0.13970640351E+03  0.53125714667E+02  0.20199997436E+03  0.12508878009E+03 0.  0.
          5    1    3    3  502    0 -0.19781831313E+02  0.10183051807E+01 -0.30503362514E+02  0.36609907405E+02  0.41800000000E+01 0.  1.
         -5    1    3    3    0  502 -0.33289498006E+02  0.13868809833E+03  0.83629077181E+02  0.16539006695E+03  0.41800000000E+01 0.  1.
        -11    1    1    2    0    0 -0.40017695529E+01 -0.11200691008E+03  0.20633976999E+03  0.23481410252E+03  0.00000000000E+00 0. -1.
         11    1    1    2    0    0  0.57073098872E+02 -0.27699493438E+02  0.13638353352E+03  0.15041631815E+03  0.00000000000E+00 0.  1.
</event>
<event>
 7    1  0.2943257E-009  0.1363979E+03  0.7561462E-02  0.1218260E+00
          1   -1    0    0  501    0  0.00000000000E+00  0.00000000000E+00  0.21373395112E+03  0.21373395112E+03  0.00000000000E+00 0. -1.
         -1   -1    0    0    0  501 -0.00000000000E+00 -0.00000000000E+00 -0.11658252773E+03  0.11658252773E+03  0.00000000000E+00 0.  1.
         25    2    1    2    0    0 -0.25772901181E+02 -0.89543419322E+02 -0.17456049684E+02  0.15695575481E+03  0.12509248146E+03 0.  0.
          5    1    3    3  502    0 -0.58318495000E+02 -0.98510576367E+02 -0.33490074027E+02  0.11935006482E+03  0.41800000000E+01 0.  1.
         -5    1    3    3    0  502  0.32545593819E+02  0.89671570445E+01  0.16034024343E+02  0.37605689983E+02  0.41800000000E+01 0.  1.
        -11    1    1    2    0    0 -0.29360597272E+02  0.43024531748E+02  0.74261136968E+02  0.90707615271E+02  0.00000000000E+00 0. -1.
         11    1    1    2    0    0  0.55133498452E+02  0.46518887574E+02  0.40346336099E+02  0.82653108770E+02  0.00000000000E+00 0.  1.
</event>
<event>
 7    1  0.2943257E-009  0.1161553E+03  0.7561462E-02  0.1249578E+00
         -2   -1    0    0    0  501 -0.00000000000E+00  0.00000000000E+00  0.34869205892E+02  0.34869205892E+02  0.00000000000E+00 0.  1.
          2   -1    0    0  501    0  0.00000000000E+00 -0.00000000000E+00 -0.65439938133E+03  0.65439938133E+03  0.00000000000E+00 0. -1.
         25    2    1    2    0    0  0.38330480278E+02 -0.36067100743E+02 -0.53645694993E+03  0.55335633237E+03  0.12508840865E+03 0.  0.
          5    1    3    3  502    0  0.67445855387E+02  0.11956782933E+02 -0.18305706911E+03  0.19549749619E+03  0.41800000000E+01 0. -1.
         -5    1    3    3    0  502 -0.29115375109E+02 -0.48023883676E+02 -0.35339988082E+03  0.35785883618E+03  0.41800000000E+01 0. -1.
        -11    1    1    2    0    0 -0.28170448006E+02 -0.29634528755E+02 -0.27663190368E+02  0.49366299605E+02  0.00000000000E+00 0.  1.
         11    1    1    2    0    0 -0.10160032272E+02  0.65701629497E+02 -0.55410035145E+02  0.86545955244E+02  0.00000000000E+00 0. -1.
</event>
<event>
 7    1  0.2943257E-009  0.8399503E+02  0.7561462E-02  0.1318082E+00
         -2   -1    0    0    0  501 -0.00000000000E+00  0.00000000000E+00  0.84092203006E+02  0.84092203006E+02  0.00000000000E+00 0.  1.
          2   -1    0    0  501    0  0.00000000000E+00 -0.00000000000E+00 -0.22858337330E+03  0.22858337330E+03  0.00000000000E+00 0. -1.
         25    2    1    2    0    0  0.81760607485E+02  0.11845583358E+02 -0.49801285502E+02  0.15795468887E+03  0.12507757960E+03 0.  0.
          5    1    3    3  502    0  0.92936844452E+01  0.19734676770E+01 -0.78569925493E+02  0.79252588205E+02  0.41800000000E+01 0.  1.
         -5    1    3    3    0  502  0.72466923040E+02  0.98721156806E+01  0.28768639991E+02  0.78702100670E+02  0.41800000000E+01 0.  1.
        -11    1    1    2    0    0 -0.62028922306E+02 -0.16282280652E+02 -0.67490933963E+01  0.64484495248E+02  0.00000000000E+00 0.  1.
         11    1    1    2    0    0 -0.19731685179E+02  0.44366972942E+01 -0.87940791400E+02  0.90236392187E+02  0.00000000000E+00 0. -1.
</event>
<event>
 7    1  0.2943257E-009  0.1893540E+03  0.7561462E-02  0.1159045E+00
          1   -1    0    0  501    0  0.00000000000E+00  0.00000000000E+00  0.22579891024E+03  0.22579891024E+03  0.00000000000E+00 0. -1.
         -1   -1    0    0    0  501 -0.00000000000E+00 -0.00000000000E+00 -0.16301503479E+03  0.16301503479E+03  0.00000000000E+00 0.  1.
         25    2    1    2    0    0  0.60541481885E+02 -0.14316626940E+03  0.63819608931E+02  0.20948093965E+03  0.12508984719E+03 0.  0.
          5    1    3    3  502    0  0.23609068012E+02 -0.15777145534E+03  0.51642766173E+02  0.16773093904E+03  0.41800000000E+01 0. -1.
         -5    1    3    3    0  502  0.36932413873E+02  0.14605185947E+02  0.12176842758E+02  0.41750000606E+02  0.41800000000E+01 0. -1.
        -11    1    1    2    0    0 -0.48150209418E+02  0.15008761894E+02  0.28913699108E+01  0.50517973243E+02  0.00000000000E+00 0. -1.
         11    1    1    2    0    0 -0.12391272467E+02  0.12815750750E+03 -0.39271033926E+01  0.12881503213E+03  0.00000000000E+00 0.  1.
</event>
<event>
 7    1  0.2943257E-009  0.1284797E+03  0.7561462E-02  0.1229729E+00
          4   -1    0    0  501    0  0.00000000000E+00  0.00000000000E+00  0.86555853001E+03  0.86555853001E+03  0.00000000000E+00 0. -1.
         -4   -1    0    0    0  501 -0.00000000000E+00 -0.00000000000E+00 -0.23707623817E+02  0.23707623817E+02  0.00000000000E+00 0.  1.
         25    2    1    2    0    0  0.85730629249E+02 -0.27085395321E+02  0.41376023315E+03  0.44150651232E+03  0.12508841054E+03 0.  0.
          5    1    3    3  502    0  0.10311150235E+03 -0.60419386505E+01  0.19222916619E+03  0.21826133802E+03  0.41800000000E+01 0. -1.
         -5    1    3    3    0  502 -0.17380873105E+02 -0.21043456671E+02  0.22153106696E+03  0.22324517430E+03  0.41800000000E+01 0. -1.
        -11    1    1    2    0    0 -0.19943987274E+01  0.41036200044E+02  0.86239526677E+02  0.95525929997E+02  0.00000000000E+00 0.  1.
         11    1    1    2    0    0 -0.83736230521E+02 -0.13950804723E+02  0.34185114637E+03  0.35223371151E+03  0.00000000000E+00 0. -1.
</event>
<event>
 7    1  0.2943257E-009  0.1222704E+03  0.7561462E-02  0.1239398E+00
         -1   -1    0    0    0  501 -0.00000000000E+00  0.00000000000E+00  0.40937091328E+02  0.40937091328E+02  0.00000000000E+00 0.  1.
          1   -1    0    0  501    0  0.00000000000E+00 -0.00000000000E+00 -0.51190325589E+03  0.51190325589E+03  0.00000000000E+00 0. -1.
         25    2    1    2    0    0  0.54559095737E+02 -0.76272997123E+02 -0.29019739723E+03  0.32963113890E+03  0.12509153989E+03 0.  0.
          5    1    3    3  502    0  0.66843855665E+02 -0.42907021969E+02 -0.28186633511E+03  0.29287406311E+03  0.41800000000E+01 0.  1.
         -5    1    3    3    0  502 -0.12284759928E+02 -0.33365975154E+02 -0.83310621239E+01  0.36757075789E+02  0.41800000000E+01 0.  1.
        -11    1    1    2    0    0 -0.70246009533E+02  0.85768386277E+02 -0.16623116962E+03  0.19980870775E+03  0.00000000000E+00 0.  1.
         11    1    1    2    0    0  0.15686913796E+02 -0.94953891544E+01 -0.14537597706E+02  0.23400500565E+02  0.00000000000E+00 0. -1.
</event>
<event>
 7    1  0.2943257E-009  0.1081277E+03  0.7561462E-02  0.1264077E+00
          2   -1    0    0  501    0  0.00000000000E+00  0.00000000000E+00  0.15247307921E+03  0.15247307921E+03  0.00000000000E+00 0. -1.
         -2   -1    0    0    0  501 -0.00000000000E+00 -0.00000000000E+00 -0.10670125589E+03  0.10670125589E+03  0.00000000000E+00 0.  1.
         25    2    1    2    0    0  0.52407126694E+02  0.26378473221E+02 -0.65316564143E+01  0.13831407617E+03  0.12508313377E+03 0.  0.
          5    1    3    3  502    0  0.49640137409E+01 -0.48424418845E+02  0.39600422568E+01  0.49017548975E+02  0.41800000000E+01 0.  1.
         -5    1    3    3    0  502  0.47443112953E+02  0.74802892066E+02 -0.10491698671E+02  0.89296527195E+02  0.41800000000E+01 0.  1.
        -11    1    1    2    0    0 -0.45466539233E+02 -0.41829847836E+02 -0.41497295889E+01  0.61920615432E+02  0.00000000000E+00 0.  1.
         11    1    1    2    0    0 -0.69405874606E+01  0.15451374615E+02  0.56453209328E+02  0.58939643495E+02  0.00000000000E+00 0. -1.
</event>
<event>
 7    1  0.2943257E-009  0.1019630E+03  0.7561462E-02  0.1276221E+00
         -1   -1    0    0    0  501 -0.00000000000E+00  0.00000000000E+00  0.10316160309E+02  0.10316160309E+02  0.00000000000E+00 0.  1.
          1   -1    0    0  501    0  0.00000000000E+00 -0.00000000000E+00 -0.11438453447E+04  0.11438453447E+04  0.00000000000E+00 0. -1.
         25    2    1    2    0    0 -0.11794873808E+01  0.58987039661E+00 -0.70212192102E+03  0.71318109855E+03  0.12510135175E+03 0.  0.
          5    1    3    3  502    0 -0.56453926635E+02 -0.61099016322E+01 -0.50823870206E+03  0.51141805541E+03  0.41800000000E+01 0.  1.
         -5    1    3    3    0  502  0.55274439254E+02  0.66997720288E+01 -0.19388321896E+03  0.20176304314E+03  0.41800000000E+01 0.  1.
        -11    1    1    2    0    0 -0.41276232360E+02  0.17717756925E+02 -0.19685473064E+03  0.20191441564E+03  0.00000000000E+00 0.  1.
         11    1    1    2    0    0  0.42455719741E+02 -0.18307627322E+02 -0.23455253271E+03  0.23906599080E+03  0.00000000000E+00 0. -1.
</event>
<event>
 7    1  0.2943257E-009  0.9796466E+02  0.7561462E-02  0.1284635E+00
          1   -1    0    0  501    0  0.00000000000E+00  0.00000000000E+00  0.11424731039E+03  0.11424731039E+03  0.00000000000E+00 0. -1.
         -1   -1    0    0    0  501 -0.00000000000E+00 -0.00000000000E+00 -0.14359145731E+03  0.14359145731E+03  0.00000000000E+00 0.  1.
         25    2    1    2    0    0 -0.38561587312E+02  0.93874824032E+01 -0.77114500855E+02  0.15221494300E+03  0.12509045443E+03 0.  0.
          5    1    3    3  502    0  0.22280642618E+01 -0.54481875972E+02 -0.24892140595E+02  0.60086022861E+02  0.41800000000E+01 0. -1.
         -5    1    3    3    0  502 -0.40789651574E+02  0.63869358376E+02 -0.52222360259E+02  0.92128920139E+02  0.41800000000E+01 0. -1.
        -11    1    1    2    0    0 -0.15401457902E+01 -0.22956697487E+02  0.57718553178E+02  0.62135443907E+02  0.00000000000E+00 0. -1.
         11    1    1    2    0    0  0.40101733103E+02  0.13569215084E+02 -0.99481992396E+01  0.43488380792E+02  0.00000000000E+00 0.  1.
</event>
<event>
 7    1  0.2943257E-009  0.1208228E+03  0.7561462E-02  0.1241746E+00
         -1   -1    0    0    0  501 -0.00000000000E+00  0.00000000000E+00  0.35024050571E+03  0.35024050571E+03  0.00000000000E+00 0. -1.
          1   -1    0    0  501    0  0.00000000000E+00 -0.00000000000E+00 -0.51431400234E+02  0.51431400234E+02  0.00000000000E+00 0.  1.
         25    2    1    2    0    0 -0.43635008544E+02  0.65301255244E+02  0.13859309531E+03  0.20254365158E+03  0.12509043458E+03 0.  0.
          5    1    3    3  502    0  0.27569341111E+02  0.46286123878E+02  0.11013631124E+02  0.55147495895E+02  0.41800000000E+01 0.  1.
         -5    1    3    3    0  502 -0.71204349655E+02  0.19015131366E+02  0.12757946418E+03  0.14739615569E+03  0.41800000000E+01 0.  1.
        -11    1    1    2    0    0 -0.21970703898E+02 -0.35465953434E+02  0.86495670567E+02  0.96031488115E+02  0.00000000000E+00 0. -1.
         11    1    1    2    0    0  0.65605712442E+02 -0.29835301810E+02  0.73720339601E+02  0.10309676624E+03  0.00000000000E+00 0.  1.
</event>
<event>
 7    1  0.2943257E-009  0.9635202E+02  0.7561462E-02  0.1288160E+00
         -1   -1    0    0    0  501 -0.00000000000E+00  0.00000000000E+00  0.57432616303E+02  0.57432616303E+02  0.00000000000E+00 0.  1.
          1   -1    0    0  501    0  0.00000000000E+00 -0.00000000000E+00 -0.24942666971E+03  0.24942666971E+03  0.00000000000E+00 0. -1.
         25    2    1    2    0    0  0.29833615755E+02  0.10480197258E+02 -0.54657645076E+02  0.14012395362E+03  0.12508950816E+03 0.  0.
          5    1    3    3  502    0 -0.23999790508E+02 -0.34111709041E+02 -0.56161230998E+02  0.70079632599E+02  0.41800000000E+01 0.  1.
         -5    1    3    3    0  502  0.53833406263E+02  0.44591906299E+02  0.15035859217E+01  0.70044321025E+02  0.41800000000E+01 0.  1.
        -11    1    1    2    0    0 -0.47383330953E+02  0.15105016933E+02 -0.37776684956E+02  0.62453338702E+02  0.00000000000E+00 0.  1.
         11    1    1    2    0    0  0.17549715198E+02 -0.25585214191E+02 -0.99559723375E+02  0.10428199369E+03  0.00000000000E+00 0. -1.
</event>
<event>
 7    1  0.2943257E-009  0.1712527E+03  0.7561462E-02  0.1176548E+00
          2   -1    0    0  501    0  0.00000000000E+00  0.00000000000E+00  0.91939072690E+03  0.91939072690E+03  0.00000000000E+00 0. -1.
         -2   -1    0    0    0  501 -0.00000000000E+00 -0.00000000000E+00 -0.35115302189E+02  0.35115302189E+02  0.00000000000E+00 0.  1.
         25    2    1    2    0    0 -0.10942088813E+02 -0.13993199642E+03  0.54511321958E+03  0.57662537435E+03  0.12509079603E+03 0.  0.
          5    1    3    3  502    0  0.44556660877E+02 -0.93324738019E+02  0.41416398928E+03  0.42690055654E+03  0.41800000000E+01 0.  1.
         -5    1    3    3    0  502 -0.55498749690E+02 -0.46607258406E+02  0.13094923030E+03  0.14972481782E+03  0.41800000000E+01 0.  1.
        -11    1    1    2    0    0  0.50421924539E+02  0.73462861412E+02  0.19102516151E+03  0.21078371572E+03  0.00000000000E+00 0. -1.
         11    1    1    2    0    0 -0.39479835725E+02  0.66469135012E+02  0.14813704361E+03  0.16709693901E+03  0.00000000000E+00 0.  1.
</event>
<event>
 7    1  0.2943257E-009  0.2352431E+03  0.7561462E-02  0.1123003E+00
         -1   -1    0    0    0  501 -0.00000000000E+00  0.00000000000E+00  0.28933225185E+03  0.28933225185E+03  0.00000000000E+00 0.  1.
          1   -1    0    0  501    0  0.00000000000E+00 -0.00000000000E+00 -0.22477562854E+03  0.22477562854E+03  0.00000000000E+00 0. -1.
         25    2    1    2    0    0 -0.13656007441E+03 -0.18673734731E+03  0.22586132418E+01  0.26300401576E+03  0.12508605105E+03 0.  0.
          5    1    3    3  502    0 -0.45876480168E+02 -0.33523415145E+02  0.53015086616E+02  0.77823792021E+02  0.41800000000E+01 0.  1.
         -5    1    3    3    0  502 -0.90683594241E+02 -0.15321393217E+03 -0.50756473374E+02  0.18518022374E+03  0.41800000000E+01 0.  1.
        -11    1    1    2    0    0  0.10935372381E+03  0.17369973994E+03  0.74781870228E+02  0.21845403334E+03  0.00000000000E+00 0.  1.
         11    1    1    2    0    0  0.27206350596E+02  0.13037607371E+02 -0.12483860154E+02  0.32649831287E+02  0.00000000000E+00 0. -1.
</event>
<event>
 7    1  0.2943257E-009  0.7210039E+02  0.7561462E-02  0.1353093E+00
          1   -1    0    0  501    0  0.00000000000E+00  0.00000000000E+00  0.21176907462E+03  0.21176907462E+03  0.00000000000E+00 0. -1.
         -1   -1    0    0    0  501 -0.00000000000E+00 -0.00000000000E+00 -0.63398876163E+02  0.63398876163E+02  0.00000000000E+00 0.  1.
         25    2    1    2    0    0 -0.83816906560E+01 -0.33691738972E+02  0.10613859368E+03  0.16769118970E+03  0.12509815355E+03 0.  0.
          5    1    3    3  502    0 -0.29979990318E+02  0.14206081234E+02  0.10987531812E+03  0.11485064430E+03  0.41800000000E+01 0.  1.
         -5    1    3    3    0  502  0.21598299662E+02 -0.47897820206E+02 -0.37367244433E+01  0.52840545402E+02  0.41800000000E+01 0.  1.
        -11    1    1    2    0    0 -0.51169318079E+01 -0.10589926238E+02  0.57530862503E+02  0.58720777151E+02  0.00000000000E+00 0. -1.
         11    1    1    2    0    0  0.13498622464E+02  0.44281665210E+02 -0.15299257725E+02  0.48755983932E+02  0.00000000000E+00 0.  1.
</event>
<event>
 7    1  0.2943257E-009  0.1293180E+03  0.7561462E-02  0.1228471E+00
         -2   -1    0    0    0  501 -0.00000000000E+00  0.00000000000E+00  0.19423367312E+03  0.19423367312E+03  0.00000000000E+00 0.  1.
          2   -1    0    0  501    0  0.00000000000E+00 -0.00000000000E+00 -0.13515453157E+03  0.13515453157E+03  0.00000000000E+00 0. -1.
         25    2    1    2    0    0  0.92727821073E+02 -0.37963371015E+02 -0.38791088648E+02  0.16488395637E+03  0.12506919752E+03 0.  0.
          5    1    3    3  502    0 -0.13484049722E+02 -0.20561201121E+01 -0.50127008396E+02  0.52117526779E+02  0.41800000000E+01 0.  1.
         -5    1    3    3    0  502  0.10621187080E+03 -0.35907250903E+02  0.11335919748E+02  0.11276642959E+03  0.41800000000E+01 0.  1.
        -11    1    1    2    0    0 -0.33443979730E+02 -0.27904726084E+02  0.34365382213E+02  0.55481105006E+02  0.00000000000E+00 0. -1.
         11    1    1    2    0    0 -0.59283841342E+02  0.65868097099E+02  0.63504847985E+02  0.10902314331E+03  0.00000000000E+00 0.  1.
</event>
<event>
 7    1  0.2943257E-009  0.1613419E+03  0.7561462E-02  0.1187190E+00
          2   -1    0    0  501    0  0.00000000000E+00  0.00000000000E+00  0.12815474246E+04  0.12815474246E+04  0.00000000000E+00 0. -1.
         -2   -1    0    0    0  501 -0.00000000000E+00 -0.00000000000E+00 -0.46967134836E+02  0.46967134836E+02  0.00000000000E+00 0.  1.
         25    2    1    2    0    0  0.12369205423E+03  0.46458295668E+02  0.11111918483E+04  0.11259896593E+04  0.12508913439E+03 0.  0.
          5    1    3    3  502    0  0.59361938989E+02 -0.37915602605E+02  0.58104172895E+03  0.58531051238E+03  0.41800000000E+01 0. -1.
         -5    1    3    3    0  502  0.64330115242E+02  0.84373898274E+02  0.53015011939E+03  0.54067914694E+03  0.41800000000E+01 0. -1.
        -11    1    1    2    0    0 -0.10425089854E+03 -0.61784360744E+02  0.12915531539E+03  0.17710633126E+03  0.00000000000E+00 0.  1.
         11    1    1    2    0    0 -0.19441155691E+02  0.15326065075E+02 -0.57668740074E+01  0.25418568825E+02  0.00000000000E+00 0. -1.
</event>
<event>
 7    1  0.2943257E-009  0.1022876E+03  0.7561462E-02  0.1275558E+00
         -3   -1    0    0    0  501 -0.00000000000E+00  0.00000000000E+00  0.92677311787E+02  0.92677311787E+02  0.00000000000E+00 0.  1.
          3   -1    0    0  501    0  0.00000000000E+00 -0.00000000000E+00 -0.17410844575E+03  0.17410844575E+03  0.00000000000E+00 0. -1.
         25    2    1    2    0    0 -0.20367007561E+02 -0.58566113954E+02 -0.31591599611E+02  0.14313984002E+03  0.12508469105E+03 0.  0.
          5    1    3    3  502    0 -0.12657143418E+02 -0.73904456079E+02  0.28638009396E+02  0.80372133790E+02  0.41800000000E+01 0. -1.
         -5    1    3    3    0  502 -0.77098641433E+01  0.15338342125E+02 -0.60229609007E+02  0.62767706230E+02  0.41800000000E+01 0. -1.
        -11    1    1    2    0    0 -0.33263176713E+02  0.45932067388E+02 -0.15762818585E+02  0.58861364147E+02  0.00000000000E+00 0.  1.
         11    1    1    2    0    0  0.53630184274E+02  0.12634046567E+02 -0.34076715766E+02  0.64784553369E+02  0.00000000000E+00 0. -1.
</event>
<event>
 7    1  0.3193878E-009  0.8620904E+02  0.7561462E-02  0.1312301E+00
          1   -1    0    0  501    0  0.00000000000E+00  0.00000000000E+00  0.32159402806E+03  0.32159402806E+03  0.00000000000E+00 0. -1.
         -1   -1    0    0    0  501 -0.00000000000E+00 -0.00000000000E+00 -0.50610366851E+02  0.50610366851E+02  0.00000000000E+00 0.  1.
         25    2    1    2    0    0  0.41462717629E+01 -0.28403029906E+02  0.62353738329E+02  0.14268679309E+03  0.12509040155E+03 0.  0.
          5    1    3    3  502    0 -0.32493035054E+02 -0.43894052506E+02 -0.13962794037E+02  0.56523598521E+02  0.41800000000E+01 0. -1.
         -5    1    3    3    0  502  0.36639306817E+02  0.15491022600E+02  0.76316532366E+02  0.86163194565E+02  0.41800000000E+01 0. -1.
        -11    1    1    2    0    0 -0.36855299445E+02  0.44861358918E+01  0.34319804732E+02  0.50559741982E+02  0.00000000000E+00 0.  1.
         11    1    1    2    0    0  0.32709027683E+02  0.23916894014E+02  0.17431011814E+03  0.17895785984E+03  0.00000000000E+00 0. -1.
</event>
<event>
 7    1  0.2943257E-009  0.1521554E+03  0.7561462E-02  0.1197849E+00
          3   -1    0    0  501    0  0.00000000000E+00  0.00000000000E+00  0.30308821194E+02  0.30308821194E+02  0.00000000000E+00 0. -1.
         -3   -1    0    0    0  501 -0.00000000000E+00 -0.00000000000E+00 -0.85132933560E+03  0.85132933560E+03  0.00000000000E+00 0.  1.
         25    2    1    2    0    0  0.73757589870E+02  0.91947408352E+02 -0.41893962160E+03  0.45282982690E+03  0.12509971072E+03 0.  0.
          5    1    3    3  502    0  0.55835303280E+02 -0.16752854250E+02 -0.10608877814E+03  0.12112200652E+03  0.41800000000E+01 0.  1.
         -5    1    3    3    0  502  0.17922286590E+02  0.10870026260E+03 -0.31285084346E+03  0.33170782038E+03  0.41800000000E+01 0.  1.
        -11    1    1    2    0    0 -0.36406255310E+01 -0.57289123662E+02 -0.87498500616E+02  0.10464838964E+03  0.00000000000E+00 0. -1.
         11    1    1    2    0    0 -0.70116964339E+02 -0.34658284690E+02 -0.31458239220E+03  0.32415994026E+03  0.00000000000E+00 0.  1.
</event>
<event>
 7    1  0.2943257E-009  0.1172360E+03  0.7561462E-02  0.1247728E+00
          3   -1    0    0  501    0  0.00000000000E+00  0.00000000000E+00  0.11845186281E+03  0.11845186281E+03  0.00000000000E+00 0. -1.
         -3   -1    0    0    0  501 -0.00000000000E+00 -0.00000000000E+00 -0.12937717096E+03  0.12937717096E+03  0.00000000000E+00 0.  1.
         25    2    1    2    0    0  0.52003942538E+02  0.29021798775E+02 -0.19458914865E+01  0.13854442822E+03  0.12507636569E+03 0.  0.
          5    1    3    3  502    0  0.78780330913E+02  0.57194502886E+02  0.92520212992E+01  0.97880662019E+02  0.41800000000E+01 0. -1.
         -5    1    3    3    0  502 -0.26776388375E+02 -0.28172704111E+02 -0.11197912786E+02  0.40663766206E+02  0.41800000000E+01 0. -1.
        -11    1    1    2    0    0  0.20754106194E+02 -0.54669122386E+01 -0.23083126493E+02  0.31519054269E+02  0.00000000000E+00 0.  1.
         11    1    1    2    0    0 -0.72758048731E+02 -0.23554886537E+02  0.14103709832E+02  0.77765551281E+02  0.00000000000E+00 0. -1.
</event>
<event>
 7    1  0.2943257E-009  0.1169100E+03  0.7561462E-02  0.1248283E+00
          1   -1    0    0  501    0  0.00000000000E+00  0.00000000000E+00  0.22137389130E+03  0.22137389130E+03  0.00000000000E+00 0. -1.
         -1   -1    0    0    0  501 -0.00000000000E+00 -0.00000000000E+00 -0.65013726499E+02  0.65013726499E+02  0.00000000000E+00 0.  1.
         25    2    1    2    0    0  0.41241073803E+02  0.31514421550E+02  0.96078579417E+02  0.16604915899E+03  0.12508894773E+03 0.  0.
          5    1    3    3  502    0 -0.48275902446E+01  0.70144902515E+02  0.29835858284E+02  0.76493554081E+02  0.41800000000E+01 0. -1.
         -5    1    3    3    0  502  0.46068664048E+02 -0.38630480966E+02  0.66242721133E+02  0.89555604905E+02  0.41800000000E+01 0. -1.
        -11    1    1    2    0    0 -0.55344120494E+02  0.12637387352E+02  0.41537362018E+02  0.70342218303E+02  0.00000000000E+00 0. -1.
         11    1    1    2    0    0  0.14103046691E+02 -0.44151808902E+02  0.18744223362E+02  0.49996240506E+02  0.00000000000E+00 0.  1.
</event>
<event>
 7    1  0.2943257E-009  0.1241583E+03  0.7561462E-02  0.1236391E+00
          1   -1    0    0  501    0  0.00000000000E+00  0.00000000000E+00  0.19651966271E+03  0.19651966271E+03  0.00000000000E+00 0. -1.
         -1   -1    0    0    0  501 -0.00000000000E+00 -0.00000000000E+00 -0.10293958872E+03  0.10293958872E+03  0.00000000000E+00 0.  1.
         25    2    1    2    0    0 -0.63565753489E+02 -0.48949372793E+02  0.57733670338E+01  0.14872011430E+03  0.12509074512E+03 0.  0.
          5    1    3    3  502    0  0.10458409438E+02 -0.64733648047E+02 -0.19954614246E+02  0.68669371245E+02  0.41800000000E+01 0.  1.
         -5    1    3    3    0  502 -0.74024162927E+02  0.15784275254E+02  0.25727981280E+02  0.80050743051E+02  0.41800000000E+01 0.  1.
        -11    1    1    2    0    0 -0.12021879868E+02  0.24623082281E+02  0.61099484588E+02  0.66962443157E+02  0.00000000000E+00 0. -1.
         11    1    1    2    0    0  0.75587633357E+02  0.24326290513E+02  0.26707222365E+02  0.83776693973E+02  0.00000000000E+00 0.  1.
</event>
<event>
 7    1  0.2943257E-009  0.1109931E+03  0.7561462E-02  0.1258742E+00
         -1   -1    0    0    0  501 -0.00000000000E+00  0.00000000000E+00  0.27986813692E+03  0.27986813692E+03  0.00000000000E+00 0.  1.
          1   -1    0    0  501    0  0.00000000000E+00 -0.00000000000E+00 -0.80205868547E+02  0.80205868547E+02  0.00000000000E+00 0. -1.
         25    2    1    2    0    0 -0.92974873840E+02  0.17763892741E+00  0.16860973996E+03  0.22961154848E+03  0.12509140684E+03 0.  0.
          5    1    3    3  502    0 -0.79245610277E+02  0.30242334459E+02  0.34901151605E+02  0.91815185700E+02  0.41800000000E+01 0. -1.
         -5    1    3    3    0  502 -0.13729263563E+02 -0.30064695532E+02  0.13370858836E+03  0.13779636278E+03  0.41800000000E+01 0. -1.
        -11    1    1    2    0    0  0.68633541914E+02  0.20692688306E+02  0.55074159070E+02  0.90398636175E+02  0.00000000000E+00 0.  1.
         11    1    1    2    0    0  0.24341331926E+02 -0.20870327233E+02 -0.24021630657E+02  0.40063820813E+02  0.00000000000E+00 0. -1.
</event>
<event>
 6    1  0.2943257E-009  0.1382454E+03  0.7561462E-02  0.1215710E+00
         -1   -1    0    0    0  501 -0.00000000000E+00  0.00000000000E+00  0.60729888911E+02  0.60729888911E+02  0.00000000000E+00 0.  1.
          1   -1    0    0  501    0  0.00000000000E+00 -0.00000000000E+00 -0.10055415044E+04  0.10055415044E+04  0.00000000000E+00 0. -1.
          5    1    1    2  502    0 -0.10917706046E+02 -0.25800048921E+02 -0.36429262247E+03  0.36539215374E+03  0.41800000000E+01 0.  1.
         -5    1    1    2    0  502 -0.75704298235E+02  0.10099882358E+03 -0.53045201418E+03  0.54527856631E+03  0.41800000000E+01 0.  1.
        -11    1    1    2    0    0  0.27996967131E+02 -0.51545383979E+02  0.19297533732E+02  0.61750721342E+02  0.00000000000E+00 0.  1.
         11    1    1    2    0    0  0.58625037150E+02 -0.23653390679E+02 -0.69364512604E+02  0.93849951946E+02  0.00000000000E+00 0. -1.
</event>
<event>
 7    1  0.2943257E-009  0.7854880E+02  0.7561462E-02  0.1333221E+00
         -1   -1    0    0    0  501 -0.00000000000E+00  0.00000000000E+00  0.49696348598E+02  0.49696348598E+02  0.00000000000E+00 0.  1.
          1   -1    0    0  501    0  0.00000000000E+00 -0.00000000000E+00 -0.28445369352E+03  0.28445369352E+03  0.00000000000E+00 0. -1.
         25    2    1    2    0    0  0.14084122662E+02  0.48414658780E+02 -0.13742537867E+03  0.19254373618E+03  0.12508003015E+03 0.  0.
          5    1    3    3  502    0 -0.12647644535E+02 -0.24880810467E+02  0.63348537324E+01  0.28924391326E+02  0.41800000000E+01 0.  1.
         -5    1    3    3    0  502  0.26731767197E+02  0.73295469247E+02 -0.14376023240E+03  0.16361934485E+03  0.41800000000E+01 0.  1.
        -11    1    1    2    0    0 -0.64551471952E+01 -0.32000622311E+02 -0.11302820683E+03  0.11764813765E+03  0.00000000000E+00 0. -1.
         11    1    1    2    0    0 -0.76289754670E+01 -0.16414036469E+02  0.15696240572E+02  0.23958168294E+02  0.00000000000E+00 0.  1.
</event>
<event>
 7    1  0.2943257E-009  0.1059694E+03  0.7561462E-02  0.1268221E+00
         -1   -1    0    0    0  501 -0.00000000000E+00  0.00000000000E+00  0.57460372119E+03  0.57460372119E+03  0.00000000000E+00 0.  1.
          1   -1    0    0  501    0  0.00000000000E+00 -0.00000000000E+00 -0.21570089346E+02  0.21570089346E+02  0.00000000000E+00 0. -1.
         25    2    1    2    0    0  0.23019585768E+02 -0.14730681808E+02  0.33693400274E+03  0.36044263123E+03  0.12508986327E+03 0.  0.
          5    1    3    3  502    0  0.67976710030E+02  0.55999678720E+01  0.12157055255E+03  0.13945990246E+03  0.41800000000E+01 0.  1.
         -5    1    3    3    0  502 -0.44957124262E+02 -0.20330649680E+02  0.21536345019E+03  0.22098272877E+03  0.41800000000E+01 0.  1.
        -11    1    1    2    0    0  0.20098133376E+02  0.39530071977E+02  0.10714188548E+03  0.11595665216E+03  0.00000000000E+00 0. -1.
         11    1    1    2    0    0 -0.43117719144E+02 -0.24799390169E+02  0.10895774362E+03  0.11977452714E+03  0.00000000000E+00 0.  1.
</event>
<event>
 7    1  0.2943257E-009  0.1265026E+03  0.7561462E-02  0.1232740E+00
          2   -1    0    0  501    0  0.00000000000E+00  0.00000000000E+00  0.22358606429E+03  0.22358606429E+03  0.00000000000E+00 0. -1.
         -2   -1    0    0    0  501 -0.00000000000E+00 -0.00000000000E+00 -0.11778760851E+03  0.11778760851E+03  0.00000000000E+00 0.  1.
         25    2    1    2    0    0 -0.34663860653E+02 -0.10054186779E+03  0.58951165853E+01  0.16430542357E+03  0.12510503348E+03 0.  0.
          5    1    3    3  502    0  0.35660078651E+02 -0.31345898981E+02  0.37476018092E+02  0.60631105254E+02  0.41800000000E+01 0.  1.
         -5    1    3    3    0  502 -0.70323939303E+02 -0.69195968808E+02 -0.31580901506E+02  0.10367431832E+03  0.41800000000E+01 0.  1.
        -11    1    1    2    0    0  0.17354300991E+02  0.39437480709E+02 -0.15131442482E+02  0.45666696828E+02  0.00000000000E+00 0.  1.
         11    1    1    2    0    0  0.17309559662E+02  0.61104387080E+02  0.11503478168E+03  0.13140155240E+03  0.00000000000E+00 0. -1.
</event>
<event>
 7    1  0.2943257E-009  0.2056423E+03  0.7561462E-02  0.1145064E+00
         -2   -1    0    0    0  501 -0.00000000000E+00  0.00000000000E+00  0.63041623056E+02  0.63041623056E+02  0.00000000000E+00 0.  1.
          2   -1    0    0  501    0  0.00000000000E+00 -0.00000000000E+00 -0.10919022605E+04  0.10919022605E+04  0.00000000000E+00 0. -1.
         25    2    1    2    0    0 -0.14297407635E+03  0.12890982211E+03 -0.21636730990E+03  0.31547220950E+03  0.12509425819E+03 0.  0.
          5    1    3    3  502    0 -0.50279545812E+02  0.10906460734E+03 -0.64462800341E+02  0.13636732134E+03  0.41800000000E+01 0.  1.
         -5    1    3    3    0  502 -0.92694530533E+02  0.19845214766E+02 -0.15190450956E+03  0.17910488816E+03  0.41800000000E+01 0.  1.
        -11    1    1    2    0    0  0.70817303414E+02 -0.89110309019E+02 -0.61551824861E+03  0.62595403346E+03  0.00000000000E+00 0. -1.
         11    1    1    2    0    0  0.72156772931E+02 -0.39799513090E+02 -0.19697507894E+03  0.21351764059E+03  0.00000000000E+00 0.  1.
</event>
<event>
 7    1  0.2943257E-009  0.1671022E+03  0.7561462E-02  0.1180904E+00
          3   -1    0    0  501    0  0.00000000000E+00  0.00000000000E+00  0.49719215198E+03  0.49719215198E+03  0.00000000000E+00 0. -1.
         -3   -1    0    0    0  501 -0.00000000000E+00 -0.00000000000E+00 -0.19921547246E+03  0.19921547246E+03  0.00000000000E+00 0.  1.
         25    2    1    2    0    0 -0.13018159061E+03  0.55819940275E+02 -0.13403775335E+03  0.23168482016E+03  0.12509446152E+03 0.  0.
          5    1    3    3  502    0 -0.10911867498E+03  0.76932021615E+02 -0.50362991557E+02  0.14275617149E+03  0.41800000000E+01 0.  1.
         -5    1    3    3    0  502 -0.21062915628E+02 -0.21112081341E+02 -0.83674761792E+02  0.88928648670E+02  0.41800000000E+01 0.  1.
        -11    1    1    2    0    0  0.73584454847E+02  0.19665213452E+02  0.17159132545E+03  0.18773645246E+03  0.00000000000E+00 0.  1.
         11    1    1    2    0    0  0.56597135761E+02 -0.75485153726E+02  0.26042310742E+03  0.27698635181E+03  0.00000000000E+00 0. -1.
</event>
<event>
 7    1  0.2943257E-009  0.1277351E+03  0.7561462E-02  0.1230856E+00
          2   -1    0    0  501    0  0.00000000000E+00  0.00000000000E+00  0.71143568835E+02  0.71143568835E+02  0.00000000000E+00 0.  1.
         -2   -1    0    0    0  501 -0.00000000000E+00 -0.00000000000E+00 -0.24337634583E+03  0.24337634583E+03  0.00000000000E+00 0. -1.
         25    2    1    2    0    0  0.69478771881E+02 -0.15569879077E+02 -0.87574103905E+02  0.16848331842E+03  0.12509070323E+03 0.  0.
          5    1    3    3  502    0 -0.22560496980E+02  0.28560907756E+02 -0.46972093365E+01  0.36935587871E+02  0.41800000000E+01 0. -1.
         -5    1    3    3    0  502  0.92039268861E+02 -0.44130786833E+02 -0.82876894569E+02  0.13154773055E+03  0.41800000000E+01 0. -1.
        -11    1    1    2    0    0 -0.35561276379E+02  0.54479898491E+02 -0.61266445110E+02  0.89365770928E+02  0.00000000000E+00 0. -1.
         11    1    1    2    0    0 -0.33917495503E+02 -0.38910019414E+02 -0.23392227976E+02  0.56670825313E+02  0.00000000000E+00 0.  1.
</event>
<event>
 7    1  0.2943257E-009  0.1247579E+03  0.7561462E-02  0.1235448E+00
         -1   -1    0    0    0  501 -0.00000000000E+00  0.00000000000E+00  0.48799775438E+02  0.48799775438E+02  0.00000000000E+00 0.  1.
          1   -1    0    0  501    0  0.00000000000E+00 -0.00000000000E+00 -0.33281938700E+03  0.33281938700E+03  0.00000000000E+00 0. -1.
         25    2    1    2    0    0  0.57381059423E+02 -0.28579027570E+02 -0.13016472798E+03  0.19155707936E+03  0.12506762750E+03 0.  0.
          5    1    3    3  502    0  0.95644075621E+02 -0.26841612440E+02 -0.76293891012E+02  0.12532554235E+03  0.41800000000E+01 0. -1.
         -5    1    3    3    0  502 -0.38263016198E+02 -0.17374151299E+01 -0.53870836964E+02  0.66231537013E+02  0.41800000000E+01 0. -1.
        -11    1    1    2    0    0 -0.17511068316E+02  0.58913648839E+02 -0.86978782410E+02  0.10650241369E+03  0.00000000000E+00 0. -1.
         11    1    1    2    0    0 -0.39869991107E+02 -0.30334621269E+02 -0.66876101177E+02  0.83559669380E+02  0.00000000000E+00 0.  1.
</event>
<event>
 7    1  0.2943257E-009  0.1197690E+03  0.7561462E-02  0.1243479E+00
         -1   -1    0    0    0  501 -0.00000000000E+00  0.00000000000E+00  0.49281427932E+02  0.49281427932E+02  0.00000000000E+00 0. -1.
          1   -1    0    0  501    0  0.00000000000E+00 -0.00000000000E+00 -0.36858299695E+03  0.36858299695E+03  0.00000000000E+00 0.  1.
         25    2    1    2    0    0  0.56794247117E+02  0.46422542465E+02 -0.12578391639E+03  0.19196172874E+03  0.12508825974E+03 0.  0.
          5    1    3    3  502    0  0.82818771475E+02 -0.92230784212E+01 -0.71981490341E+02  0.11019447099E+03  0.41800000000E+01 0. -1.
         -5    1    3    3    0  502 -0.26024524357E+02  0.55645620886E+02 -0.53802426049E+02  0.81767257754E+02  0.41800000000E+01 0. -1.
        -11    1    1    2    0    0  0.69198223025E+01  0.81130610944E+01  0.39437459353E+01  0.11369205470E+02  0.00000000000E+00 0. -1.
         11    1    1    2    0    0 -0.63714069420E+02 -0.54535603559E+02 -0.19746139857E+03  0.21453349067E+03  0.00000000000E+00 0.  1.
</event>
<event>
 7    1  0.2943257E-009  0.1123959E+03  0.7561462E-02  0.1256196E+00
          2   -1    0    0  501    0  0.00000000000E+00  0.00000000000E+00  0.27568744427E+03  0.27568744427E+03  0.00000000000E+00 0. -1.
         -2   -1    0    0    0  501 -0.00000000000E+00 -0.00000000000E+00 -0.46172644724E+02  0.46172644724E+02  0.00000000000E+00 0.  1.
         25    2    1    2    0    0  0.72871870725E+01  0.30425764246E+02  0.11915831065E+03  0.17557202958E+03  0.12509198355E+03 0.  0.
          5    1    3    3  502    0  0.57231228256E+02  0.48921488386E+02  0.66065524539E+02  0.10025393482E+03  0.41800000000E+01 0. -1.
         -5    1    3    3    0  502 -0.49944041184E+02 -0.18495724140E+02  0.53092786110E+02  0.75318094759E+02  0.41800000000E+01 0. -1.
        -11    1    1    2    0    0  0.28937545017E+02  0.19048332501E+02  0.37237524536E+02  0.50861121854E+02  0.00000000000E+00 0.  1.
         11    1    1    2    0    0 -0.36224732089E+02 -0.49474096746E+02  0.73118964361E+02  0.95426937564E+02  0.00000000000E+00 0. -1.
</event>
<event>
 7    1  0.2943257E-009  0.1054009E+03  0.7561462E-02  0.1269332E+00
          2   -1    0    0  501    0  0.00000000000E+00  0.00000000000E+00  0.11794840883E+03  0.11794840883E+03  0.00000000000E+00 0. -1.
         -2   -1    0    0    0  501 -0.00000000000E+00 -0.00000000000E+00 -0.22041387775E+03  0.22041387775E+03  0.00000000000E+00 0.  1.
         25    2    1    2    0    0 -0.22125750601E+02 -0.97591363160E+02 -0.12072141611E+03  0.20058705260E+03  0.12509149595E+03 0.  0.
          5    1    3    3  502    0 -0.20259521757E+02 -0.10178535472E+02  0.22834778852E+02  0.32449196159E+02  0.41800000000E+01 0. -1.
         -5    1    3    3    0  502 -0.18662288441E+01 -0.87412827688E+02 -0.14355619496E+03  0.16813785644E+03  0.41800000000E+01 0. -1.
        -11    1    1    2    0    0  0.68363244619E+01  0.20149574218E+02 -0.36120863481E+02  0.41922040169E+02  0.00000000000E+00 0.  1.
         11    1    1    2    0    0  0.15289426139E+02  0.77441788942E+02  0.54376810671E+02  0.95853193817E+02  0.00000000000E+00 0. -1.
</event>
<event>
 7    1  0.2943257E-009  0.1421442E+03  0.7561462E-02  0.1210473E+00
         -4   -1    0    0    0  501 -0.00000000000E+00  0.00000000000E+00  0.63768478697E+03  0.63768478697E+03  0.00000000000E+00 0.  1.
          4   -1    0    0  501    0  0.00000000000E+00 -0.00000000000E+00 -0.40232347374E+02  0.40232347374E+02  0.00000000000E+00 0. -1.
         25    2    1    2    0    0  0.87962110190E+02  0.66718187624E+02  0.40390525278E+03  0.43702076188E+03  0.12513610071E+03 0.  0.
          5    1    3    3  502    0  0.32754352787E+02  0.90513986548E+02  0.16926960303E+03  0.19476986496E+03  0.41800000000E+01 0.  1.
         -5    1    3    3    0  502  0.55207757404E+02 -0.23795798924E+02  0.23463564975E+03  0.24225089691E+03  0.41800000000E+01 0.  1.
        -11    1    1    2    0    0 -0.19347209115E+01 -0.36417600841E+02  0.11461332355E+03  0.12027551177E+03  0.00000000000E+00 0.  1.
         11    1    1    2    0    0 -0.86027389279E+02 -0.30300586783E+02  0.78933863274E+02  0.12062086070E+03  0.00000000000E+00 0. -1.
</event>
<event>
 7    1  0.2943257E-009  0.9820379E+02  0.7561462E-02  0.1284119E+00
          3   -1    0    0  501    0  0.00000000000E+00  0.00000000000E+00  0.17433645589E+03  0.17433645589E+03  0.00000000000E+00 0. -1.
         -3   -1    0    0    0  501 -0.00000000000E+00 -0.00000000000E+00 -0.81817464911E+02  0.81817464911E+02  0.00000000000E+00 0.  1.
         25    2    1    2    0    0 -0.31856239917E+02 -0.95435793223E+01  0.80592463380E+02  0.15248898993E+03  0.12510734178E+03 0.  0.
          5    1    3    3  502    0 -0.67673367074E+02 -0.42273394011E+02  0.41470975400E+02  0.90022434164E+02  0.41800000000E+01 0.  1.
         -5    1    3    3    0  502  0.35817127157E+02  0.32729814688E+02  0.39121487980E+02  0.62466555765E+02  0.41800000000E+01 0.  1.
        -11    1    1    2    0    0  0.34717444500E+02  0.30769089370E+02 -0.30929277705E+02  0.55755340844E+02  0.00000000000E+00 0.  1.
         11    1    1    2    0    0 -0.28612045834E+01 -0.21225510047E+02  0.42855805306E+02  0.47909590030E+02  0.00000000000E+00 0. -1.
</event>
<event>
 7    1  0.2943257E-009  0.1393250E+03  0.7561462E-02  0.1214240E+00
          1   -1    0    0  501    0  0.00000000000E+00  0.00000000000E+00  0.68882853004E+03  0.68882853004E+03  0.00000000000E+00 0. -1.
         -1   -1    0    0    0  501 -0.00000000000E+00 -0.00000000000E+00 -0.31946216018E+02  0.31946216018E+02  0.00000000000E+00 0.  1.
         25    2    1    2    0    0  0.96334033066E+02 -0.10459993654E+02  0.42391105228E+03  0.45247780402E+03  0.12508367394E+03 0.  0.
          5    1    3    3  502    0  0.47617818505E+02 -0.66568648741E+02  0.18747409611E+03  0.20460413179E+03  0.41800000000E+01 0. -1.
         -5    1    3    3    0  502  0.48716214562E+02  0.56108655087E+02  0.23643695618E+03  0.24787367223E+03  0.41800000000E+01 0. -1.
        -11    1    1    2    0    0 -0.86363552805E+02  0.36974628740E+02  0.12321607162E+03  0.15494510876E+03  0.00000000000E+00 0.  1.
         11    1    1    2    0    0 -0.99704802614E+01 -0.26514635085E+02  0.10975519011E+03  0.11335183328E+03  0.00000000000E+00 0. -1.
</event>
<event>
 7    1  0.2943257E-009  0.1094345E+03  0.7561462E-02  0.1261621E+00
          2   -1    0    0  501    0  0.00000000000E+00  0.00000000000E+00  0.20280651537E+03  0.20280651537E+03  0.00000000000E+00 0. -1.
         -2   -1    0    0    0  501 -0.00000000000E+00 -0.00000000000E+00 -0.10216290315E+03  0.10216290315E+03  0.00000000000E+00 0.  1.
         25    2    1    2    0    0 -0.84103736100E+01  0.89875871880E+02  0.32848181970E+02  0.15771848322E+03  0.12509080766E+03 0.  0.
          5    1    3    3  502    0 -0.12072677097E+02 -0.42535213009E+00 -0.39727808156E+02  0.41733698586E+02  0.41800000000E+01 0.  1.
         -5    1    3    3    0  502  0.36623034868E+01  0.90301224010E+02  0.72575990127E+02  0.11598478464E+03  0.41800000000E+01 0.  1.
        -11    1    1    2    0    0 -0.32133619175E+02 -0.37674242168E+02  0.64171034655E+02  0.81054547639E+02  0.00000000000E+00 0. -1.
         11    1    1    2    0    0  0.40543992785E+02 -0.52201629711E+02  0.36243955988E+01  0.66196387658E+02  0.00000000000E+00 0.  1.
</event>
<event>
 7    1  0.2943257E-009  0.1157063E+03  0.7561462E-02  0.1250353E+00
         -4   -1    0    0    0  501 -0.00000000000E+00  0.00000000000E+00  0.11244623710E+04  0.11244623710E+04  0.00000000000E+00 0.  1.
          4   -1    0    0  501    0  0.00000000000E+00 -0.00000000000E+00 -0.19748949326E+02  0.19748949326E+02  0.00000000000E+00 0. -1.
         25    2    1    2    0    0 -0.52655325113E+01 -0.96444153032E+02  0.47889264738E+03  0.50429578735E+03  0.12508746115E+03 0.  0.
          5    1    3    3  502    0 -0.77014888526E+01 -0.29680222043E+02  0.39842692496E+03  0.39962697036E+03  0.41800000000E+01 0.  1.
         -5    1    3    3    0  502  0.24359563413E+01 -0.66763930989E+02  0.80465722423E+02  0.10466881699E+03  0.41800000000E+01 0.  1.
        -11    1    1    2    0    0  0.35733685966E+02  0.37219117079E+01  0.17546857615E+03  0.17910882210E+03  0.00000000000E+00 0. -1.
         11    1    1    2    0    0 -0.30468153455E+02  0.92722241324E+02  0.45035219819E+03  0.46080671091E+03  0.00000000000E+00 0.  1.
</event>
<event>
 7    1  0.2943257E-009  0.9924019E+02  0.7561462E-02  0.1281902E+00
          1   -1    0    0  501    0  0.00000000000E+00  0.00000000000E+00  0.25578347016E+03  0.25578347016E+03  0.00000000000E+00 0. -1.
         -1   -1    0    0    0  501 -0.00000000000E+00 -0.00000000000E+00 -0.91580491178E+02  0.91580491178E+02  0.00000000000E+00 0.  1.
         25    2    1    2    0    0  0.28631507970E+02  0.42309311323E+02 -0.19708987132E+02  0.13655115521E+03  0.12509169734E+03 0.  0.
          5    1    3    3  502    0  0.22163150114E+02  0.77109497752E+02 -0.45709452935E+02  0.92433253509E+02  0.41800000000E+01 0. -1.
         -5    1    3    3    0  502  0.64683578559E+01 -0.34800186430E+02  0.26000465803E+02  0.44117901705E+02  0.41800000000E+01 0. -1.
        -11    1    1    2    0    0  0.17791963464E+02  0.25117531679E+01  0.23462914223E+01  0.18120925786E+02  0.00000000000E+00 0.  1.
         11    1    1    2    0    0 -0.46423471434E+02 -0.44821064490E+02  0.18156567470E+03  0.19269188034E+03  0.00000000000E+00 0. -1.
</event>
<event>
 7    1  0.2943257E-009  0.3366034E+03  0.7561462E-02  0.1068252E+00
          1   -1    0    0  501    0  0.00000000000E+00  0.00000000000E+00  0.18193984506E+04  0.18193984506E+04  0.00000000000E+00 0. -1.
         -1   -1    0    0    0  501 -0.00000000000E+00 -0.00000000000E+00 -0.65960839257E+02  0.65960839257E+02  0.00000000000E+00 0.  1.
         25    2    1    2    0    0 -0.90125869067E+02  0.31612849946E+03  0.86647610237E+03  0.93513452190E+03  0.12504334293E+03 0.  0.
          5    1    3    3  502    0 -0.31667027856E+02  0.11148527077E+02  0.15798212171E+03  0.16156396098E+03  0.41800000000E+01 0. -1.
         -5    1    3    3    0  502 -0.58458841212E+02  0.30497997239E+03  0.70849398067E+03  0.77357056092E+03  0.41800000000E+01 0. -1.
        -11    1    1    2    0    0  0.27267840598E+02 -0.83212885836E+02  0.13865675942E+03  0.16399273287E+03  0.00000000000E+00 0. -1.
         11    1    1    2    0    0  0.62858028470E+02 -0.23291561363E+03  0.74830474957E+03  0.78623203511E+03  0.00000000000E+00 0.  1.
</event>
<event>
 7    1  0.2943257E-009  0.1049538E+03  0.7561462E-02  0.1270211E+00
          1   -1    0    0  501    0  0.00000000000E+00  0.00000000000E+00  0.39482641745E+02  0.39482641745E+02  0.00000000000E+00 0. -1.
         -1   -1    0    0    0  501 -0.00000000000E+00 -0.00000000000E+00 -0.34560107453E+03  0.34560107453E+03  0.00000000000E+00 0.  1.
         25    2    1    2    0    0  0.40375284606E+02 -0.49207537578E+01 -0.16101437004E+03  0.20789483564E+03  0.12506101671E+03 0.  0.
          5    1    3    3  502    0  0.23718731118E+02  0.53201712011E+02 -0.35053358976E+02  0.68111751866E+02  0.41800000000E+01 0. -1.
         -5    1    3    3    0  502  0.16656553488E+02 -0.58122465769E+02 -0.12596101106E+03  0.13978308377E+03  0.41800000000E+01 0. -1.
        -11    1    1    2    0    0  0.21246386665E+02  0.18071838325E+02 -0.87422676120E+02  0.91764506138E+02  0.00000000000E+00 0.  1.
         11    1    1    2    0    0 -0.61621671271E+02 -0.13151084567E+02 -0.57681386631E+02  0.85424374503E+02  0.00000000000E+00 0. -1.
</event>
<event>
 7    1  0.3093861E-009  0.9683117E+02  0.7561462E-02  0.1287104E+00
         -2   -1    0    0    0  501 -0.00000000000E+00  0.00000000000E+00  0.30801464551E+02  0.30801464551E+02  0.00000000000E+00 0.  1.
          2   -1    0    0  501    0  0.00000000000E+00 -0.00000000000E+00 -0.59980714176E+03  0.59980714176E+03  0.00000000000E+00 0. -1.
         25    2    1    2    0    0  0.56196639352E+02  0.42224852293E+02 -0.40851485649E+03  0.43298183742E+03  0.12509149904E+03 0.  0.
          5    1    3    3  502    0  0.81020287559E+02  0.49755042924E+02 -0.18612413147E+03  0.20904429198E+03  0.41800000000E+01 0.  1.
         -5    1    3    3    0  502 -0.24823648207E+02 -0.75301906314E+01 -0.22239072502E+03  0.22393754544E+03  0.41800000000E+01 0.  1.
        -11    1    1    2    0    0 -0.31351946323E+02 -0.33506421825E+02 -0.16469070587E+03  0.17096389514E+03  0.00000000000E+00 0. -1.
         11    1    1    2    0    0 -0.24844693028E+02 -0.87184304681E+01  0.41998851542E+01  0.26662873754E+02  0.00000000000E+00 0.  1.
</event>
<event>
 7    1  0.2943257E-009  0.1373690E+03  0.7561462E-02  0.1216914E+00
          1   -1    0    0  501    0  0.00000000000E+00  0.00000000000E+00  0.18756480492E+03  0.18756480492E+03  0.00000000000E+00 0. -1.
         -1   -1    0    0    0  501 -0.00000000000E+00 -0.00000000000E+00 -0.14655686423E+03  0.14655686423E+03  0.00000000000E+00 0.  1.
         25    2    1    2    0    0  0.69094737958E+02 -0.10040200574E+03  0.40377856799E+02  0.17925787931E+03  0.12509344669E+03 0.  0.
          5    1    3    3  502    0 -0.97457797826E+00 -0.10950024798E+02 -0.38903191972E+02  0.40642140580E+02  0.41800000000E+01 0. -1.
         -5    1    3    3    0  502  0.70069315936E+02 -0.89451980938E+02  0.79281048770E+02  0.13861573873E+03  0.41800000000E+01 0. -1.
        -11    1    1    2    0    0  0.17517333343E+02  0.40030202705E+02 -0.18706445891E+02  0.47531097335E+02  0.00000000000E+00 0.  1.
         11    1    1    2    0    0 -0.86612071301E+02  0.60371803032E+02  0.19336529778E+02  0.10733269250E+03  0.00000000000E+00 0. -1.
</event>
<event>
 7    1  0.3317781E-009  0.1482633E+03  0.7561462E-02  0.1202623E+00
          1   -1    0    0  501    0  0.00000000000E+00  0.00000000000E+00  0.94075402052E+03  0.94075402052E+03  0.00000000000E+00 0. -1.
         -1   -1    0    0    0  501 -0.00000000000E+00 -0.00000000000E+00 -0.32352674974E+02  0.32352674974E+02  0.00000000000E+00 0.  1.
         25    2    1    2    0    0 -0.10181152295E+03 -0.40884459300E+02  0.25633963803E+03  0.30560534284E+03  0.12508992895E+03 0.  0.
          5    1    3    3  502    0 -0.75850252192E+02 -0.78579782997E+02  0.22450585102E+03  0.24969660109E+03  0.41800000000E+01 0.  1.
         -5    1    3    3    0  502 -0.25961270759E+02  0.37695323697E+02  0.31833787014E+02  0.55908741747E+02  0.41800000000E+01 0.  1.
        -11    1    1    2    0    0  0.77671765429E+02 -0.16154061785E+02  0.31800874591E+03  0.32775512099E+03  0.00000000000E+00 0.  1.
         11    1    1    2    0    0  0.24139757522E+02  0.57038521085E+02  0.33405296160E+03  0.33974623167E+03  0.00000000000E+00 0. -1.
</event>
<event>
 7    1  0.2943257E-009  0.1199973E+03  0.7561462E-02  0.1243102E+00
          2   -1    0    0  501    0  0.00000000000E+00  0.00000000000E+00  0.32374998917E+03  0.32374998917E+03  0.00000000000E+00 0. -1.
         -2   -1    0    0    0  501 -0.00000000000E+00 -0.00000000000E+00 -0.44630699141E+02  0.44630699141E+02  0.00000000000E+00 0.  1.
         25    2    1    2    0    0  0.20249947758E+01  0.49417844760E+02  0.15591551164E+03  0.20592360711E+03  0.12509460904E+03 0.  0.
          5    1    3    3  502    0 -0.60783412672E+02  0.31905470037E+02  0.87913688412E+02  0.11161931412E+03  0.41800000000E+01 0.  1.
         -5    1    3    3    0  502  0.62808407448E+02  0.17512374722E+02  0.68001823228E+02  0.94304292993E+02  0.41800000000E+01 0.  1.
        -11    1    1    2    0    0  0.37062800913E+02 -0.55076666092E+02  0.76118155747E+02  0.10100031680E+03  0.00000000000E+00 0.  1.
         11    1    1    2    0    0 -0.39087795689E+02  0.56588213326E+01  0.47085622642E+02  0.61456764398E+02  0.00000000000E+00 0. -1.
</event>
<event>
 7    1  0.2943257E-009  0.5796062E+02  0.7561462E-02  0.1406595E+00
         -1   -1    0    0    0  501 -0.00000000000E+00  0.00000000000E+00  0.10001232026E+03  0.10001232026E+03  0.00000000000E+00 0.  1.
          1   -1    0    0  501    0  0.00000000000E+00 -0.00000000000E+00 -0.12876484766E+03  0.12876484766E+03  0.00000000000E+00 0. -1.
         25    2    1    2    0    0 -0.22412303193E+02  0.21094157990E+02 -0.29060253521E+02  0.13205957473E+03  0.12509179872E+03 0.  0.
          5    1    3    3  502    0 -0.35290301729E+02 -0.11236749325E+02 -0.69304582527E+02  0.78690961938E+02  0.41800000000E+01 0.  1.
         -5    1    3    3    0  502  0.12877998535E+02  0.32330907314E+02  0.40244329007E+02  0.53368612791E+02  0.41800000000E+01 0.  1.
        -11    1    1    2    0    0  0.27125542411E+02 -0.59939036686E+01  0.42997696800E+02  0.51191052562E+02  0.00000000000E+00 0.  1.
         11    1    1    2    0    0 -0.47132392180E+01 -0.15100254321E+02 -0.42689970678E+02  0.45526540621E+02  0.00000000000E+00 0. -1.
</event>
<event>
 7    1  0.2943257E-009  0.1771658E+03  0.7561462E-02  0.1170575E+00
         -3   -1    0    0    0  501 -0.00000000000E+00  0.00000000000E+00  0.11918871340E+03  0.11918871340E+03  0.00000000000E+00 0.  1.
          3   -1    0    0  501    0  0.00000000000E+00 -0.00000000000E+00 -0.32714595740E+03  0.32714595740E+03  0.00000000000E+00 0. -1.
         25    2    1    2    0    0 -0.45513874988E+02 -0.14110907153E+03 -0.24283488166E+02  0.19550075272E+03  0.12509026195E+03 0.  0.
          5    1    3    3  502    0 -0.64062909211E+02 -0.24618261805E+02  0.16341516930E+02  0.70672715573E+02  0.41800000000E+01 0. -1.
         -5    1    3    3    0  502  0.18549034222E+02 -0.11649080972E+03 -0.40625005096E+02  0.12482803715E+03  0.41800000000E+01 0. -1.
        -11    1    1    2    0    0 -0.13645112754E+02  0.84725406878E+02 -0.69526205842E+02  0.11044671553E+03  0.00000000000E+00 0.  1.
         11    1    1    2    0    0  0.59158987742E+02  0.56383664648E+02 -0.11414754999E+03  0.14038720255E+03  0.00000000000E+00 0. -1.
</event>
<event>
 7    1  0.2943257E-009  0.1088464E+03  0.7561462E-02  0.1262721E+00
          2   -1    0    0  501    0  0.00000000000E+00  0.00000000000E+00  0.49563105939E+03  0.49563105939E+03  0.00000000000E+00 0.  1.
         -2   -1    0    0    0  501 -0.00000000000E+00 -0.00000000000E+00 -0.46649299524E+02  0.46649299524E+02  0.00000000000E+00 0. -1.
         25    2    1    2    0    0  0.37923774586E+02 -0.28721209402E+02  0.83551339749E+02  0.15776877608E+03  0.12508812807E+03 0.  0.
          5    1    3    3  502    0  0.45009002079E+02  0.19939922412E+02 -0.11448874528E+02  0.50714494003E+02  0.41800000000E+01 0.  1.
         -5    1    3    3    0  502 -0.70852274931E+01 -0.48661131815E+02  0.95000214277E+02  0.10705428208E+03  0.41800000000E+01 0.  1.
        -11    1    1    2    0    0  0.26499574994E+02  0.45238723327E+02  0.18177622520E+03  0.18918606082E+03  0.00000000000E+00 0.  1.
         11    1    1    2    0    0 -0.64423349580E+02 -0.16517513924E+02  0.18365419492E+03  0.19532552201E+03  0.00000000000E+00 0. -1.
</event>
<event>
 7    1  0.2943257E-009  0.2029981E+03  0.7561462E-02  0.1147234E+00
          1   -1    0    0  501    0  0.00000000000E+00  0.00000000000E+00  0.41953308166E+04  0.41953308166E+04  0.00000000000E+00 0. -1.
         -1   -1    0    0    0  501 -0.00000000000E+00 -0.00000000000E+00 -0.19006596501E+02  0.19006596501E+02  0.00000000000E+00 0.  1.
         25    2    1    2    0    0 -0.14368068042E+03  0.11916662379E+03  0.35035350921E+04  0.35107336453E+04  0.12509102361E+03 0.  0.
          5    1    3    3  502    0 -0.10752449028E+03  0.13886502688E+03  0.31270106948E+04  0.31319416293E+04  0.41800000000E+01 0. -1.
         -5    1    3    3    0  502 -0.36156190140E+02 -0.19698403092E+02  0.37652439732E+03  0.37879201595E+03  0.41800000000E+01 0. -1.
        -11    1    1    2    0    0  0.84841551945E+02 -0.51441214636E+02  0.49049146869E+03  0.50042598689E+03  0.00000000000E+00 0. -1.
         11    1    1    2    0    0  0.58839128476E+02 -0.67725409152E+02  0.18229765931E+03  0.20317778096E+03  0.00000000000E+00 0.  1.
</event>
<event>
 7    1  0.6057275E-009  0.2901125E+03  0.7561462E-02  0.1090290E+00
         -2   -1    0    0    0  501 -0.00000000000E+00  0.00000000000E+00  0.97848523570E+02  0.97848523570E+02  0.00000000000E+00 0. -1.
          2   -1    0    0  501    0  0.00000000000E+00 -0.00000000000E+00 -0.95679869542E+03  0.95679869542E+03  0.00000000000E+00 0.  1.
         25    2    1    2    0    0  0.16482137343E+02  0.27446056454E+03 -0.57240164015E+03  0.64721827269E+03  0.12509033743E+03 0.  0.
          5    1    3    3  502    0 -0.45362246223E+02  0.83525528707E+02 -0.24924629384E+03  0.26678724617E+03  0.41800000000E+01 0.  1.
         -5    1    3    3    0  502  0.61844383566E+02  0.19093503583E+03 -0.32315534631E+03  0.38043102651E+03  0.41800000000E+01 0.  1.
        -11    1    1    2    0    0 -0.39648378142E+02 -0.88924025526E+02 -0.62882882712E+02  0.11590398243E+03  0.00000000000E+00 0.  1.
         11    1    1    2    0    0  0.23166240800E+02 -0.18553653901E+03 -0.22366564899E+03  0.29152496387E+03  0.00000000000E+00 0. -1.
</event>
<event>
 7    1  0.2943257E-009  0.2048220E+03  0.7561462E-02  0.1145733E+00
          1   -1    0    0  501    0  0.00000000000E+00  0.00000000000E+00  0.31443359117E+03  0.31443359117E+03  0.00000000000E+00 0. -1.
         -1   -1    0    0    0  501 -0.00000000000E+00 -0.00000000000E+00 -0.24347151774E+03  0.24347151774E+03  0.00000000000E+00 0.  1.
         25    2    1    2    0    0 -0.93581309274E+02  0.17639910825E+03  0.19568931718E+03  0.30629164777E+03  0.12508460256E+03 0.  0.
          5    1    3    3  502    0 -0.35213123343E+02  0.11442350810E+03  0.18498538198E+03  0.22038549682E+03  0.41800000000E+01 0. -1.
         -5    1    3    3    0  502 -0.58368185931E+02  0.61975600145E+02  0.10703935202E+02  0.85906150949E+02  0.41800000000E+01 0. -1.
        -11    1    1    2    0    0  0.13478922500E+02 -0.70804645581E+02 -0.37654324106E+01  0.72174494586E+02  0.00000000000E+00 0.  1.
         11    1    1    2    0    0  0.80102386774E+02 -0.10559446266E+03 -0.12096181135E+03  0.17943896655E+03  0.00000000000E+00 0. -1.
</event>
<event>
 7    1  0.2943257E-009  0.1525790E+03  0.7561462E-02  0.1197339E+00
         -2   -1    0    0    0  501 -0.00000000000E+00  0.00000000000E+00  0.29529271397E+02  0.29529271397E+02  0.00000000000E+00 0.  1.
          2   -1    0    0  501    0  0.00000000000E+00 -0.00000000000E+00 -0.91381012394E+03  0.91381012394E+03  0.00000000000E+00 0. -1.
         25    2    1    2    0    0  0.12305612423E+03  0.90164507781E+00 -0.45382661284E+03  0.48656908954E+03  0.12508901514E+03 0.  0.
          5    1    3    3  502    0  0.11113016462E+03  0.49828102555E+02 -0.27607278511E+03  0.30177211331E+03  0.41800000000E+01 0. -1.
         -5    1    3    3    0  502  0.11925959603E+02 -0.48926457477E+02 -0.17775382773E+03  0.18479697623E+03  0.41800000000E+01 0. -1.
        -11    1    1    2    0    0 -0.10248894432E+03 -0.20314088522E+02 -0.40648307072E+03  0.41969647685E+03  0.00000000000E+00 0. -1.
         11    1    1    2    0    0 -0.20567179910E+02  0.19412443444E+02 -0.23971168992E+02  0.37073828947E+02  0.00000000000E+00 0.  1.
</event>
<event>
 7    1  0.2943257E-009  0.7842556E+02  0.7561462E-02  0.1333580E+00
          1   -1    0    0  501    0  0.00000000000E+00  0.00000000000E+00  0.15968158295E+03  0.15968158295E+03  0.00000000000E+00 0. -1.
         -1   -1    0    0    0  501 -0.00000000000E+00 -0.00000000000E+00 -0.80863251251E+02  0.80863251251E+02  0.00000000000E+00 0.  1.
         25    2    1    2    0    0 -0.23291693226E+02  0.11607704076E+01  0.72334544977E+02  0.14637036168E+03  0.12509254982E+03 0.  0.
          5    1    3    3  502    0 -0.68981052717E+02  0.12905619875E+02  0.69607389846E+02  0.98932309078E+02  0.41800000000E+01 0.  1.
         -5    1    3    3    0  502  0.45689359490E+02 -0.11744849468E+02  0.27271551310E+01  0.47438052603E+02  0.41800000000E+01 0.  1.
        -11    1    1    2    0    0  0.15538251737E+02  0.14791278819E+02  0.46057104006E+02  0.50808227932E+02  0.00000000000E+00 0. -1.
         11    1    1    2    0    0  0.77534414890E+01 -0.15952049226E+02 -0.39573317280E+02  0.43366244592E+02  0.00000000000E+00 0.  1.
</event>
<event>
 7    1  0.2943257E-009  0.1328400E+03  0.7561462E-02  0.1223302E+00
         -1   -1    0    0    0  501 -0.00000000000E+00  0.00000000000E+00  0.11656538278E+03  0.11656538278E+03  0.00000000000E+00 0.  1.
          1   -1    0    0  501    0  0.00000000000E+00 -0.00000000000E+00 -0.19212762405E+03  0.19212762405E+03  0.00000000000E+00 0. -1.
         25    2    1    2    0    0  0.66281882852E+02  0.75333377902E+02 -0.23292077339E+02  0.16204356344E+03  0.12508872758E+03 0.  0.
          5    1    3    3  502    0 -0.24317273365E+02  0.21993484555E+02 -0.43773160833E+02  0.54850753469E+02  0.41800000000E+01 0. -1.
         -5    1    3    3    0  502  0.90599156217E+02  0.53339893347E+02  0.20481083494E+02  0.10719280998E+03  0.41800000000E+01 0. -1.
        -11    1    1    2    0    0  0.22550187102E+01 -0.56208176253E+02  0.33233821604E+01  0.56351477851E+02  0.00000000000E+00 0.  1.
         11    1    1    2    0    0 -0.68536901562E+02 -0.19125201649E+02 -0.55593546087E+02  0.90297965539E+02  0.00000000000E+00 0. -1.
</event>
<event>
 7    1  0.2943257E-009  0.1592955E+03  0.7561462E-02  0.1189494E+00
         -3   -1    0    0    0  501 -0.00000000000E+00  0.00000000000E+00  0.17332412446E+03  0.17332412446E+03  0.00000000000E+00 0.  1.
          3   -1    0    0  501    0  0.00000000000E+00 -0.00000000000E+00 -0.20724060304E+03  0.20724060304E+03  0.00000000000E+00 0. -1.
         25    2    1    2    0    0  0.36317051667E+02  0.13080280248E+03  0.58343118331E+02  0.19360237126E+03  0.12509859041E+03 0.  0.
          5    1    3    3  502    0  0.36833162718E+02  0.14605501739E+02 -0.28066720859E+02  0.48736185495E+02  0.41800000000E+01 0. -1.
         -5    1    3    3    0  502 -0.51611105010E+00  0.11619730074E+03  0.86409839190E+02  0.14486618577E+03  0.41800000000E+01 0. -1.
        -11    1    1    2    0    0 -0.66217711693E+02 -0.84471655582E+02 -0.57261948531E+02  0.12165186677E+03  0.00000000000E+00 0. -1.
         11    1    1    2    0    0  0.29900660025E+02 -0.46331146899E+02 -0.34997648372E+02  0.65310489468E+02  0.00000000000E+00 0.  1.
</event>
<event>
 7    1  0.2943257E-009  0.1092114E+03  0.7561462E-02  0.1262037E+00
         -1   -1    0    0    0  501 -0.00000000000E+00  0.00000000000E+00  0.29072723542E+02  0.29072723542E+02  0.00000000000E+00 0.  1.
          1   -1    0    0  501    0  0.00000000000E+00 -0.00000000000E+00 -0.41398912756E+03  0.41398912756E+03  0.00000000000E+00 0. -1.
         25    2    1    2    0    0  0.92601841308E+01 -0.15077836106E+02 -0.21923719451E+03  0.25303099632E+03  0.12508655201E+03 0.  0.
          5    1    3    3  502    0 -0.44756882882E+02  0.31267403905E+02 -0.86973881273E+02  0.10277527687E+03  0.41800000000E+01 0. -1.
         -5    1    3    3    0  502  0.54017067013E+02 -0.46345240011E+02 -0.13226331324E+03  0.15025571945E+03  0.41800000000E+01 0. -1.
        -11    1    1    2    0    0  0.73212372107E+01  0.51675027126E+02 -0.10499473143E+03  0.11725102375E+03  0.00000000000E+00 0.  1.
         11    1    1    2    0    0 -0.16581421342E+02 -0.36597191020E+02 -0.60684478082E+02  0.72779831027E+02  0.00000000000E+00 0. -1.
</event>
<event>
 7    1  0.2943257E-009  0.1125149E+03  0.7561462E-02  0.1255982E+00
         -1   -1    0    0    0  501 -0.00000000000E+00  0.00000000000E+00  0.40313649559E+02  0.40313649559E+02  0.00000000000E+00 0.  1.
          1   -1    0    0  501    0  0.00000000000E+00 -0.00000000000E+00 -0.40735108162E+03  0.40735108162E+03  0.00000000000E+00 0. -1.
         25    2    1    2    0    0  0.27256910553E+02  0.31777040297E+02 -0.30039673828E+03  0.32808275743E+03  0.12508947155E+03 0.  0.
          5    1    3    3  502    0  0.74379654344E+02  0.27492270786E+02 -0.14174368359E+03  0.16247123490E+03  0.41800000000E+01 0. -1.
         -5    1    3    3    0  502 -0.47122743791E+02  0.42847695111E+01 -0.15865305469E+03  0.16561152253E+03  0.41800000000E+01 0. -1.
        -11    1    1    2    0    0 -0.59926641376E+02 -0.17201177855E+02 -0.50955987614E+02  0.80520777070E+02  0.00000000000E+00 0.  1.
         11    1    1    2    0    0  0.32669730823E+02 -0.14575862442E+02 -0.15684706163E+02  0.39061196671E+02  0.00000000000E+00 0. -1.
</event>
<event>
 7    1  0.2943257E-009  0.1077994E+03  0.7561462E-02  0.1264700E+00
          1   -1    0    0  501    0  0.00000000000E+00  0.00000000000E+00  0.68883099234E+03  0.68883099234E+03  0.00000000000E+00 0. -1.
         -1   -1    0    0    0  501 -0.00000000000E+00 -0.00000000000E+00 -0.21132183361E+02  0.21132183361E+02  0.00000000000E+00 0.  1.
         25    2    1    2    0    0  0.56354913672E+02  0.70185686389E+01  0.44598929510E+03  0.46667001923E+03  0.12509723780E+03 0.  0.
          5    1    3    3  502    0  0.22649242390E+01 -0.51915934605E+02  0.11734464396E+03  0.12840417444E+03  0.41800000000E+01 0.  1.
         -5    1    3    3    0  502  0.54089989433E+02  0.58934503244E+02  0.32864465114E+03  0.33826584479E+03  0.41800000000E+01 0.  1.
        -11    1    1    2    0    0 -0.29370613187E+02  0.27031578954E+02  0.40180820257E+02  0.56637774464E+02  0.00000000000E+00 0.  1.
         11    1    1    2    0    0 -0.26984300485E+02 -0.34050147593E+02  0.18152869362E+03  0.18665538200E+03  0.00000000000E+00 0. -1.
</event>
<event>
 7    1  0.2943257E-009  0.2571076E+03  0.7561462E-02  0.1108894E+00
         -2   -1    0    0    0  501 -0.00000000000E+00  0.00000000000E+00  0.76531451156E+02  0.76531451156E+02  0.00000000000E+00 0.  1.
          2   -1    0    0  501    0  0.00000000000E+00 -0.00000000000E+00 -0.11704019307E+04  0.11704019307E+04  0.00000000000E+00 0. -1.
         25    2    1    2    0    0 -0.22147709462E+03 -0.97738644947E+02 -0.27135865639E+03  0.38456211305E+03  0.12509017641E+03 0.  0.
          5    1    3    3  502    0 -0.84113247268E+02  0.23720193861E+02 -0.10762204903E+03  0.13869990555E+03  0.41800000000E+01 0.  1.
         -5    1    3    3    0  502 -0.13736384735E+03 -0.12145883881E+03 -0.16373660736E+03  0.24586220749E+03  0.41800000000E+01 0.  1.
        -11    1    1    2    0    0  0.21060384424E+02  0.17680981970E+02 -0.28707718633E+02  0.39752861842E+02  0.00000000000E+00 0.  1.
         11    1    1    2    0    0  0.20041671020E+03  0.80057662977E+02 -0.79380410451E+03  0.82261840695E+03  0.00000000000E+00 0. -1.
</event>
<event>
 7    1  0.2943257E-009  0.1291195E+03  0.7561462E-02  0.1228768E+00
          1   -1    0    0  501    0  0.00000000000E+00  0.00000000000E+00  0.44796649049E+03  0.44796649049E+03  0.00000000000E+00 0. -1.
         -1   -1    0    0    0  501 -0.00000000000E+00 -0.00000000000E+00 -0.43533975943E+02  0.43533975943E+02  0.00000000000E+00 0.  1.
         25    2    1    2    0    0 -0.78597038842E+02 -0.20792143047E+02  0.15769248722E+03  0.21709034139E+03  0.12510590742E+03 0.  0.
          5    1    3    3  502    0  0.31315428541E+02 -0.16023534337E+02  0.19610281219E+02  0.40490063557E+02  0.41800000000E+01 0.  1.
         -5    1    3    3    0  502 -0.10991246738E+03 -0.47686087093E+01  0.13808220601E+03  0.17660027783E+03  0.41800000000E+01 0.  1.
        -11    1    1    2    0    0  0.82889689190E+02  0.40707864841E+02  0.15490512084E+03  0.18034252770E+03  0.00000000000E+00 0. -1.
         11    1    1    2    0    0 -0.42926503477E+01 -0.19915721795E+02  0.91834906487E+02  0.94067597349E+02  0.00000000000E+00 0.  1.
</event>
<event>
 7    1  0.2943257E-009  0.1843447E+03  0.7561462E-02  0.1163663E+00
          2   -1    0    0  501    0  0.00000000000E+00  0.00000000000E+00  0.12187636830E+04  0.12187636830E+04  0.00000000000E+00 0. -1.
         -2   -1    0    0    0  501 -0.00000000000E+00 -0.00000000000E+00 -0.38721733689E+02  0.38721733689E+02  0.00000000000E+00 0.  1.
         25    2    1    2    0    0 -0.14483662257E+03  0.99018817536E+02  0.81100721997E+03  0.83914320814E+03  0.12508492897E+03 0.  0.
          5    1    3    3  502    0 -0.10701727477E+03  0.65489465241E+02  0.29433167938E+03  0.31998465126E+03  0.41800000000E+01 0. -1.
         -5    1    3    3    0  502 -0.37819347805E+02  0.33529352295E+02  0.51667554059E+03  0.51915855687E+03  0.41800000000E+01 0. -1.
        -11    1    1    2    0    0  0.96192005995E+02 -0.10617752120E+03  0.31005170792E+03  0.34155326028E+03  0.00000000000E+00 0. -1.
         11    1    1    2    0    0  0.48644616578E+02  0.71587036598E+01  0.58983021414E+02  0.76788948262E+02  0.00000000000E+00 0.  1.
</event>
<event>
 7    1  0.2943257E-009  0.1594449E+03  0.7561462E-02  0.1189325E+00
          1   -1    0    0  501    0  0.00000000000E+00  0.00000000000E+00  0.32028570646E+02  0.32028570646E+02  0.00000000000E+00 0. -1.
         -1   -1    0    0    0  501 -0.00000000000E+00 -0.00000000000E+00 -0.99481081651E+03  0.99481081651E+03  0.00000000000E+00 0.  1.
         25    2    1    2    0    0 -0.78722153304E+02  0.11117463929E+03 -0.61834515292E+03  0.64540971879E+03  0.12508396833E+03 0.  0.
          5    1    3    3  502    0 -0.57271386052E+02  0.97415648469E+01 -0.39338331612E+03  0.39767174346E+03  0.41800000000E+01 0. -1.
         -5    1    3    3    0  502 -0.21450767252E+02  0.10143307444E+03 -0.22496183680E+03  0.24773797533E+03  0.41800000000E+01 0. -1.
        -11    1    1    2    0    0  0.54704026071E+02 -0.13561013532E+02 -0.74747861531E+02  0.93614498663E+02  0.00000000000E+00 0. -1.
         11    1    1    2    0    0  0.24018127233E+02 -0.97613625753E+02 -0.26968923141E+03  0.28781516969E+03  0.00000000000E+00 0.  1.
</event>
<event>
 7    1  0.2943257E-009  0.1023607E+03  0.7561462E-02  0.1275409E+00
          2   -1    0    0  501    0  0.00000000000E+00  0.00000000000E+00  0.47437031496E+03  0.47437031496E+03  0.00000000000E+00 0. -1.
         -2   -1    0    0    0  501 -0.00000000000E+00 -0.00000000000E+00 -0.26362220205E+02  0.26362220205E+02  0.00000000000E+00 0.  1.
         25    2    1    2    0    0  0.79115231208E+01  0.90508674163E+01  0.27471356785E+03  0.30209189773E+03  0.12508980738E+03 0.  0.
          5    1    3    3  502    0  0.61100702400E+02  0.90954420534E+01  0.20596134674E+03  0.21506643544E+03  0.41800000000E+01 0. -1.
         -5    1    3    3    0  502 -0.53189179279E+02 -0.44574637057E-01  0.68752221111E+02  0.87025462291E+02  0.41800000000E+01 0. -1.
        -11    1    1    2    0    0  0.17958138353E+02 -0.43099699531E+02  0.12846517799E+03  0.13668716395E+03  0.00000000000E+00 0.  1.
         11    1    1    2    0    0 -0.25869661474E+02  0.34048832115E+02  0.44829348914E+02  0.61953473488E+02  0.00000000000E+00 0. -1.
</event>
<event>
 7    1  0.2943257E-009  0.2299343E+03  0.7561462E-02  0.1126686E+00
         -1   -1    0    0    0  501 -0.00000000000E+00  0.00000000000E+00  0.34995342383E+03  0.34995342383E+03  0.00000000000E+00 0.  1.
          1   -1    0    0  501    0  0.00000000000E+00 -0.00000000000E+00 -0.21560497014E+03  0.21560497014E+03  0.00000000000E+00 0. -1.
         25    2    1    2    0    0 -0.93615319819E+02 -0.19132205888E+03  0.20762167902E+03  0.32267912970E+03  0.12508837207E+03 0.  0.
          5    1    3    3  502    0 -0.10539658748E+03 -0.18772776315E+03  0.14711015784E+03  0.26078539961E+03  0.41800000000E+01 0.  1.
         -5    1    3    3    0  502  0.11781267661E+02 -0.35942957326E+01  0.60511521179E+02  0.61893730094E+02  0.41800000000E+01 0.  1.
        -11    1    1    2    0    0  0.80028191961E+02  0.61320625631E+02 -0.29873407473E+02  0.10515298907E+03  0.00000000000E+00 0.  1.
         11    1    1    2    0    0  0.13587127859E+02  0.13000143325E+03 -0.43399817858E+02  0.13772627520E+03  0.00000000000E+00 0. -1.
</event>
<event>
 7    1  0.2943257E-009  0.1414427E+03  0.7561462E-02  0.1211401E+00
          2   -1    0    0  501    0  0.00000000000E+00  0.00000000000E+00  0.97849182928E+03  0.97849182928E+03  0.00000000000E+00 0. -1.
         -2   -1    0    0    0  501 -0.00000000000E+00 -0.00000000000E+00 -0.27693574827E+02  0.27693574827E+02  0.00000000000E+00 0.  1.
         25    2    1    2    0    0 -0.26838862153E+02 -0.86344155102E+02  0.73533745918E+03  0.75136192283E+03  0.12509165667E+03 0.  0.
          5    1    3    3  502    0 -0.69734825043E+02 -0.17935191130E+02  0.39691830304E+03  0.40341818079E+03  0.41800000000E+01 0. -1.
         -5    1    3    3    0  502  0.42895962891E+02 -0.68408963972E+02  0.33841915614E+03  0.34794374205E+03  0.41800000000E+01 0. -1.
        -11    1    1    2    0    0 -0.17581733191E+02  0.83569574530E+02  0.17477119439E+03  0.19451982295E+03  0.00000000000E+00 0. -1.
         11    1    1    2    0    0  0.44420595344E+02  0.27745805721E+01  0.40689600880E+02  0.60303658328E+02  0.00000000000E+00 0.  1.
</event>
<event>
 7    1  0.3267609E-009  0.8292913E+02  0.7561462E-02  0.1320939E+00
          1   -1    0    0  501    0  0.00000000000E+00  0.00000000000E+00  0.24278354624E+03  0.24278354624E+03  0.00000000000E+00 0. -1.
         -1   -1    0    0    0  501 -0.00000000000E+00 -0.00000000000E+00 -0.71937065108E+02  0.71937065108E+02  0.00000000000E+00 0.  1.
         25    2    1    2    0    0 -0.51557278925E+02  0.45667332458E+02  0.59073606787E+02  0.15453679180E+03  0.12509304832E+03 0.  0.
          5    1    3    3  502    0 -0.16312295477E+02  0.32997262766E+02 -0.36374640703E+02  0.51918178127E+02  0.41800000000E+01 0. -1.
         -5    1    3    3    0  502 -0.35244983448E+02  0.12670069691E+02  0.95448247490E+02  0.10261861368E+03  0.41800000000E+01 0. -1.
        -11    1    1    2    0    0 -0.98897481975E+01 -0.24023291857E+02  0.86481278869E+02  0.90299154292E+02  0.00000000000E+00 0. -1.
         11    1    1    2    0    0  0.61447027122E+02 -0.21644040601E+02  0.25291595478E+02  0.69884665253E+02  0.00000000000E+00 0.  1.
</event>
<event>
 7    1  0.3079171E-009  0.1176560E+03  0.7561462E-02  0.1247015E+00
         -2   -1    0    0    0  501 -0.00000000000E+00  0.00000000000E+00  0.76918604615E+02  0.76918604615E+02  0.00000000000E+00 0.  1.
          2   -1    0    0  501    0  0.00000000000E+00 -0.00000000000E+00 -0.35248789178E+03  0.35248789178E+03  0.00000000000E+00 0. -1.
         25    2    1    2    0    0  0.71583344639E+02  0.43045081681E+02 -0.26605798846E+03  0.30563266872E+03  0.12508965057E+03 0.  0.
          5    1    3    3  502    0  0.98577185730E+02 -0.85899561151E+00 -0.17133569579E+03  0.19771593884E+03  0.41800000000E+01 0.  1.
         -5    1    3    3    0  502 -0.26993841091E+02  0.43904077292E+02 -0.94722292675E+02  0.10791672989E+03  0.41800000000E+01 0.  1.
        -11    1    1    2    0    0 -0.21762333994E+02 -0.52143556026E+01 -0.46141599485E+02  0.51281925552E+02  0.00000000000E+00 0. -1.
         11    1    1    2    0    0 -0.49821010644E+02 -0.37830726078E+02  0.36630300782E+02  0.72491902118E+02  0.00000000000E+00 0.  1.
</event>
<event>
 7    1  0.2943257E-009  0.1341262E+03  0.7561462E-02  0.1221459E+00
         -2   -1    0    0    0  501 -0.00000000000E+00  0.00000000000E+00  0.42845116013E+02  0.42845116013E+02  0.00000000000E+00 0.  1.
          2   -1    0    0  501    0  0.00000000000E+00 -0.00000000000E+00 -0.50938041338E+03  0.50938041338E+03  0.00000000000E+00 0. -1.
         25    2    1    2    0    0  0.80136051800E+02  0.81802254476E+01 -0.36403178500E+03  0.39326298214E+03  0.12509168533E+03 0.  0.
          5    1    3    3  502    0  0.10804768512E+03  0.28712680485E+02 -0.30245566870E+03  0.32248352549E+03  0.41800000000E+01 0. -1.
         -5    1    3    3    0  502 -0.27911633324E+02 -0.20532455037E+02 -0.61576116303E+02  0.70779456649E+02  0.41800000000E+01 0. -1.
        -11    1    1    2    0    0  0.18910261963E+02  0.90118522112E+01 -0.16487721554E+02  0.26658140404E+02  0.00000000000E+00 0. -1.
         11    1    1    2    0    0 -0.99046313763E+02 -0.17192077659E+02 -0.86015790813E+02  0.13230440686E+03  0.00000000000E+00 0.  1.
</event>
<event>
 7    1  0.2943257E-009  0.1081411E+03  0.7561462E-02  0.1264051E+00
          1   -1    0    0  501    0  0.00000000000E+00  0.00000000000E+00  0.20097459618E+03  0.20097459618E+03  0.00000000000E+00 0. -1.
         -1   -1    0    0    0  501 -0.00000000000E+00 -0.00000000000E+00 -0.62077939289E+02  0.62077939289E+02  0.00000000000E+00 0.  1.
         25    2    1    2    0    0 -0.20007689156E+02  0.17728626245E+02  0.79275809800E+02  0.15048920659E+03  0.12509090882E+03 0.  0.
          5    1    3    3  502    0  0.31616389204E+02 -0.34734325452E+02  0.55938632582E+02  0.73161960376E+02  0.41800000000E+01 0. -1.
         -5    1    3    3    0  502 -0.51624078359E+02  0.52462951697E+02  0.23337177218E+02  0.77327246218E+02  0.41800000000E+01 0. -1.
        -11    1    1    2    0    0  0.85187890672E+01  0.37776189381E+02  0.22079476216E+02  0.44577051510E+02  0.00000000000E+00 0. -1.
         11    1    1    2    0    0  0.11488900088E+02 -0.55504815626E+02  0.37541370876E+02  0.67986277367E+02  0.00000000000E+00 0.  1.
</event>
<event>
 7    1  0.2943257E-009  0.1204059E+03  0.7561462E-02  0.1242429E+00
         -2   -1    0    0    0  501 -0.00000000000E+00  0.00000000000E+00  0.26495265140E+03  0.26495265140E+03  0.00000000000E+00 0.  1.
          2   -1    0    0  501    0  0.00000000000E+00 -0.00000000000E+00 -0.61296774033E+02  0.61296774033E+02  0.00000000000E+00 0. -1.
         25    2    1    2    0    0 -0.33449172283E+02  0.58027640160E+02  0.12447909641E+03  0.18875859624E+03  0.12509479631E+03 0.  0.
          5    1    3    3  502    0  0.46672874219E+02  0.33874033536E+02  0.44964224253E+02  0.73246578067E+02  0.41800000000E+01 0.  1.
         -5    1    3    3    0  502 -0.80122046502E+02  0.24153606624E+02  0.79514872157E+02  0.11551201817E+03  0.41800000000E+01 0.  1.
        -11    1    1    2    0    0  0.53570696284E+02 -0.21949837341E+02  0.12771629031E+02  0.59285153012E+02  0.00000000000E+00 0.  1.
         11    1    1    2    0    0 -0.20121524001E+02 -0.36077802819E+02  0.66405151928E+02  0.78205676182E+02  0.00000000000E+00 0. -1.
</event>
<event>
 7    1  0.2943257E-009  0.1016065E+03  0.7561462E-02  0.1276954E+00
         -2   -1    0    0    0  501 -0.00000000000E+00  0.00000000000E+00  0.12171542319E+03  0.12171542319E+03  0.00000000000E+00 0.  1.
          2   -1    0    0  501    0  0.00000000000E+00 -0.00000000000E+00 -0.15096155296E+03  0.15096155296E+03  0.00000000000E+00 0. -1.
         25    2    1    2    0    0  0.29281853068E+02 -0.58064287158E+02 -0.66629535221E+02  0.15593526124E+03  0.12508965734E+03 0.  0.
          5    1    3    3  502    0  0.69840923818E+02 -0.38084316042E+01 -0.17708987376E+02  0.72272674123E+02  0.41800000000E+01 0.  1.
         -5    1    3    3    0  502 -0.40559070750E+02 -0.54255855554E+02 -0.48920547845E+02  0.83662587119E+02  0.41800000000E+01 0.  1.
        -11    1    1    2    0    0 -0.38907177861E+01  0.12759718253E+02 -0.29315548389E+02  0.32207910086E+02  0.00000000000E+00 0. -1.
         11    1    1    2    0    0 -0.25391135281E+02  0.45304568905E+02  0.66698953839E+02  0.84533804822E+02  0.00000000000E+00 0.  1.
</event>
<event>
 7    1  0.2943257E-009  0.9540914E+02  0.7561462E-02  0.1290257E+00
          1   -1    0    0  501    0  0.00000000000E+00  0.00000000000E+00  0.32878367782E+02  0.32878367782E+02  0.00000000000E+00 0. -1.
         -1   -1    0    0    0  501 -0.00000000000E+00 -0.00000000000E+00 -0.59278161334E+03  0.59278161334E+03  0.00000000000E+00 0.  1.
         25    2    1    2    0    0 -0.71470924008E+02  0.38653177176E+02 -0.38075494486E+03  0.40893023072E+03  0.12508974569E+03 0.  0.
          5    1    3    3  502    0 -0.41948843052E+02  0.16778739847E+02 -0.26083155198E+02  0.52335790138E+02  0.41800000000E+01 0.  1.
         -5    1    3    3    0  502 -0.29522080956E+02  0.21874437329E+02 -0.35467178966E+03  0.35659444058E+03  0.41800000000E+01 0.  1.
        -11    1    1    2    0    0  0.32500467714E+02  0.19915003681E+02 -0.11633203464E+03  0.12241744180E+03  0.00000000000E+00 0.  1.
         11    1    1    2    0    0  0.38970456294E+02 -0.58568180857E+02 -0.62816266062E+02  0.94312308606E+02  0.00000000000E+00 0. -1.
</event>
<event>
 7    1  0.2943257E-009  0.1039176E+03  0.7561462E-02  0.1272267E+00
         -1   -1    0    0    0  501 -0.00000000000E+00  0.00000000000E+00  0.19238450147E+03  0.19238450147E+03  0.00000000000E+00 0.  1.
          1   -1    0    0  501    0  0.00000000000E+00 -0.00000000000E+00 -0.87961709922E+02  0.87961709922E+02  0.00000000000E+00 0. -1.
         25    2    1    2    0    0 -0.13040973254E+01 -0.26903631876E+02 -0.13959493376E+02  0.12873712089E+03  0.12511144137E+03 0.  0.
          5    1    3    3  502    0 -0.54962490157E+02  0.41318500837E+01 -0.32220321625E+02  0.63981005267E+02  0.41800000000E+01 0. -1.
         -5    1    3    3    0  502  0.53658392832E+02 -0.31035481960E+02  0.18260828248E+02  0.64756115619E+02  0.41800000000E+01 0. -1.
        -11    1    1    2    0    0 -0.41553387088E+02  0.37576782650E+01  0.77501619333E+02  0.88018777108E+02  0.00000000000E+00 0.  1.
         11    1    1    2    0    0  0.42857484414E+02  0.23145953611E+02  0.40880665592E+02  0.63590313398E+02  0.00000000000E+00 0. -1.
</event>
<event>
 7    1  0.2943257E-009  0.1425332E+03  0.7561462E-02  0.1209960E+00
         -2   -1    0    0    0  501 -0.00000000000E+00  0.00000000000E+00  0.14739575674E+02  0.14739575674E+02  0.00000000000E+00 0. -1.
          2   -1    0    0  501    0  0.00000000000E+00 -0.00000000000E+00 -0.23435776749E+04  0.23435776749E+04  0.00000000000E+00 0.  1.
         25    2    1    2    0    0  0.65144964010E+02  0.90737613944E+02 -0.18610613547E+04  0.18686018758E+04  0.12508566525E+03 0.  0.
          5    1    3    3  502    0  0.41244419218E+02  0.11507404922E+03 -0.16701015737E+04  0.16745745363E+04  0.41800000000E+01 0. -1.
         -5    1    3    3    0  502  0.23900544792E+02 -0.24336435278E+02 -0.19095978097E+03  0.19402733950E+03  0.41800000000E+01 0. -1.
        -11    1    1    2    0    0 -0.73903157875E+02 -0.56441826440E+02 -0.42048067235E+03  0.43064063015E+03  0.00000000000E+00 0.  1.
         11    1    1    2    0    0  0.87581938652E+01 -0.34295787504E+02 -0.47296072184E+02  0.59074744556E+02  0.00000000000E+00 0. -1.
</event>
<event>
 7    1  0.2943257E-009  0.1348110E+03  0.7561462E-02  0.1220487E+00
          1   -1    0    0  501    0  0.00000000000E+00  0.00000000000E+00  0.37855420068E+03  0.37855420068E+03  0.00000000000E+00 0. -1.
         -1   -1    0    0    0  501 -0.00000000000E+00 -0.00000000000E+00 -0.62730886046E+02  0.62730886046E+02  0.00000000000E+00 0.  1.
         25    2    1    2    0    0 -0.85640590701E+02 -0.51882450018E+02  0.10981514264E+03  0.19424988684E+03  0.12509018182E+03 0.  0.
          5    1    3    3  502    0 -0.11550020095E+03 -0.32940521491E+02  0.63789532051E+02  0.13605863139E+03  0.41800000000E+01 0.  1.
         -5    1    3    3    0  502  0.29859610253E+02 -0.18941928527E+02  0.46025610586E+02  0.58191255448E+02  0.41800000000E+01 0.  1.
        -11    1    1    2    0    0  0.69702817283E+02  0.11790652410E+02  0.18695054619E+03  0.19986998009E+03  0.00000000000E+00 0. -1.
         11    1    1    2    0    0  0.15937773417E+02  0.40091797608E+02  0.19057625807E+02  0.47165219795E+02  0.00000000000E+00 0.  1.
</event>
<event>
 7    1  0.2943257E-009  0.1864734E+03  0.7561462E-02  0.1161681E+00
         -2   -1    0    0    0  501 -0.00000000000E+00  0.00000000000E+00  0.39006379399E+02  0.39006379399E+02  0.00000000000E+00 0.  1.
          2   -1    0    0  501    0  0.00000000000E+00 -0.00000000000E+00 -0.11046179869E+04  0.11046179869E+04  0.00000000000E+00 0. -1.
         25    2    1    2    0    0  0.13404534931E+03 -0.86821805330E+02 -0.34685342553E+03  0.40182265179E+03  0.12509181884E+03 0.  0.
          5    1    3    3  502    0  0.14707464746E+03 -0.43202386900E+02 -0.23088813743E+03  0.27717179252E+03  0.41800000000E+01 0. -1.
         -5    1    3    3    0  502 -0.13029298157E+02 -0.43619418431E+02 -0.11596528809E+03  0.12465085927E+03  0.41800000000E+01 0. -1.
        -11    1    1    2    0    0 -0.33864414982E+02  0.62047241864E+02 -0.41537726059E+03  0.42134893786E+03  0.00000000000E+00 0. -1.
         11    1    1    2    0    0 -0.10018093432E+03  0.24774563466E+02 -0.30338092134E+03  0.32045277660E+03  0.00000000000E+00 0.  1.
</event>
<event>
 7    1  0.2943257E-009  0.2034710E+03  0.7561462E-02  0.1146843E+00
         -1   -1    0    0    0  501 -0.00000000000E+00  0.00000000000E+00  0.17453850278E+03  0.17453850278E+03  0.00000000000E+00 0.  1.
          1   -1    0    0  501    0  0.00000000000E+00 -0.00000000000E+00 -0.24238343282E+03  0.24238343282E+03  0.00000000000E+00 0. -1.
         25    2    1    2    0    0 -0.97184931783E+02 -0.14371458202E+03 -0.16611206015E+02  0.21452898935E+03  0.12509181850E+03 0.  0.
          5    1    3    3  502    0  0.23400085760E+02 -0.64303441822E+02  0.37355832838E+01  0.68658019387E+02  0.41800000000E+01 0. -1.
         -5    1    3    3    0  502 -0.12058501754E+03 -0.79411140194E+02 -0.20346789299E+02  0.14587096996E+03  0.41800000000E+01 0. -1.
        -11    1    1    2    0    0 -0.10495401247E+02 -0.39243592906E+01  0.33222688074E+01  0.11687237193E+02  0.00000000000E+00 0. -1.
         11    1    1    2    0    0  0.10768033303E+03  0.14763894131E+03 -0.54555992831E+02  0.19070570905E+03  0.00000000000E+00 0.  1.
</event>
<event>
 7    1  0.2943257E-009  0.1024831E+03  0.7561462E-02  0.1275159E+00
         -2   -1    0    0    0  501 -0.00000000000E+00  0.00000000000E+00  0.58010268355E+02  0.58010268355E+02  0.00000000000E+00 0. -1.
          2   -1    0    0  501    0  0.00000000000E+00 -0.00000000000E+00 -0.28358131762E+03  0.28358131762E+03  0.00000000000E+00 0.  1.
         25    2    1    2    0    0  0.58196251077E+02  0.35371580652E+02 -0.10918692518E+03  0.17946339150E+03  0.12508945560E+03 0.  0.
          5    1    3    3  502    0  0.23437611702E+02  0.75398672557E+02 -0.31046358216E+02  0.84944865790E+02  0.41800000000E+01 0. -1.
         -5    1    3    3    0  502  0.34758639374E+02 -0.40027091905E+02 -0.78140566962E+02  0.94518525711E+02  0.41800000000E+01 0. -1.
        -11    1    1    2    0    0 -0.46173565427E+02 -0.14085312399E+02 -0.12670676629E+03  0.13559129321E+03  0.00000000000E+00 0.  1.
         11    1    1    2    0    0 -0.12022685650E+02 -0.21286268253E+02  0.10322642209E+02  0.26536901261E+02  0.00000000000E+00 0. -1.
</event>
<event>
 7    1  0.2943257E-009  0.1342415E+03  0.7561462E-02  0.1221294E+00
          2   -1    0    0  501    0  0.00000000000E+00  0.00000000000E+00  0.18943144470E+03  0.18943144470E+03  0.00000000000E+00 0. -1.
         -2   -1    0    0    0  501 -0.00000000000E+00 -0.00000000000E+00 -0.13458591567E+03  0.13458591567E+03  0.00000000000E+00 0.  1.
         25    2    1    2    0    0  0.36177939968E+00  0.10068525904E+03  0.90847250776E+02  0.18448056994E+03  0.12506880282E+03 0.  0.
          5    1    3    3  502    0  0.14719119375E+02  0.11346818218E+03  0.26950978580E+02  0.11762443831E+03  0.41800000000E+01 0.  1.
         -5    1    3    3    0  502 -0.14357339976E+02 -0.12782923140E+02  0.63896272196E+02  0.66856131625E+02  0.41800000000E+01 0.  1.
        -11    1    1    2    0    0  0.31184193678E+02 -0.26119450392E+01 -0.13526839880E+02  0.34091811178E+02  0.00000000000E+00 0. -1.
         11    1    1    2    0    0 -0.31545973078E+02 -0.98073313997E+02 -0.22474881870E+02  0.10544497926E+03  0.00000000000E+00 0.  1.
</event>
<event>
 7    1  0.2943257E-009  0.1067655E+03  0.7561462E-02  0.1266680E+00
         -2   -1    0    0    0  501 -0.00000000000E+00  0.00000000000E+00  0.41073024167E+02  0.41073024167E+02  0.00000000000E+00 0.  1.
          2   -1    0    0  501    0  0.00000000000E+00 -0.00000000000E+00 -0.53464300998E+03  0.53464300998E+03  0.00000000000E+00 0. -1.
         25    2    1    2    0    0  0.10003921952E+03 -0.14923392949E+02 -0.29507485120E+03  0.33609683601E+03  0.12514536453E+03 0.  0.
          5    1    3    3  502    0  0.11721238472E+02 -0.17283994308E+02 -0.21722830962E+03  0.21826986689E+03  0.41800000000E+01 0. -1.
         -5    1    3    3    0  502  0.88317981050E+02  0.23606013588E+01 -0.77846541575E+02  0.11782696911E+03  0.41800000000E+01 0. -1.
        -11    1    1    2    0    0 -0.88670664017E+02  0.51959921724E+01 -0.20491529032E+03  0.22333777378E+03  0.00000000000E+00 0. -1.
         11    1    1    2    0    0 -0.11368555505E+02  0.97274007770E+01  0.64201556991E+01  0.16281424365E+02  0.00000000000E+00 0.  1.
</event>
<event>
 7    1  0.2943257E-009  0.8028423E+02  0.7561462E-02  0.1328247E+00
         -4   -1    0    0    0  501 -0.00000000000E+00  0.00000000000E+00  0.68105597794E+03  0.68105597794E+03  0.00000000000E+00 0.  1.
          4   -1    0    0  501    0  0.00000000000E+00 -0.00000000000E+00 -0.18382114446E+02  0.18382114446E+02  0.00000000000E+00 0. -1.
         25    2    1    2    0    0  0.27056610806E+02  0.27996933401E+01  0.33660563523E+03  0.36012569766E+03  0.12508903220E+03 0.  0.
          5    1    3    3  502    0  0.44364459901E+02 -0.16647091634E+02  0.32936548474E+03  0.33278285097E+03  0.41800000000E+01 0. -1.
         -5    1    3    3    0  502 -0.17307849095E+02  0.19446784974E+02  0.72401504883E+01  0.27342846691E+02  0.41800000000E+01 0. -1.
        -11    1    1    2    0    0 -0.59014487772E+01  0.39180964619E+02  0.86055492002E+02  0.94739235747E+02  0.00000000000E+00 0. -1.
         11    1    1    2    0    0 -0.21155162029E+02 -0.41980657959E+02  0.24001273627E+03  0.24457315898E+03  0.00000000000E+00 0.  1.
</event>
<event>
 7    1  0.2943257E-009  0.1277284E+03  0.7561462E-02  0.1230866E+00
         -1   -1    0    0    0  501 -0.00000000000E+00  0.00000000000E+00  0.33353726671E+03  0.33353726671E+03  0.00000000000E+00 0. -1.
          1   -1    0    0  501    0  0.00000000000E+00 -0.00000000000E+00 -0.75752413780E+02  0.75752413780E+02  0.00000000000E+00 0.  1.
         25    2    1    2    0    0 -0.10005960336E+03  0.20560645796E+02  0.69181342883E+02  0.17569253704E+03  0.12508854859E+03 0.  0.
          5    1    3    3  502    0 -0.44497620553E+02  0.66973418257E+02  0.81820198330E+01  0.80931420576E+02  0.41800000000E+01 0.  1.
         -5    1    3    3    0  502 -0.55561982811E+02 -0.46412772461E+02  0.60999323050E+02  0.94761116466E+02  0.41800000000E+01 0.  1.
        -11    1    1    2    0    0  0.61863030588E+02 -0.16401774347E+02  0.30508341592E+02  0.70900011721E+02  0.00000000000E+00 0.  1.
         11    1    1    2    0    0  0.38196572776E+02 -0.41588714491E+01  0.15809516845E+03  0.16269713173E+03  0.00000000000E+00 0. -1.
</event>
<event>
 7    1  0.2943257E-009  0.2575952E+03  0.7561462E-02  0.1108597E+00
         -2   -1    0    0    0  501 -0.00000000000E+00  0.00000000000E+00  0.64893517038E+02  0.64893517038E+02  0.00000000000E+00 0.  1.
          2   -1    0    0  501    0  0.00000000000E+00 -0.00000000000E+00 -0.10759554908E+04  0.10759554908E+04  0.00000000000E+00 0. -1.
         25    2    1    2    0    0  0.13519408805E+03  0.19714789660E+03 -0.57695352375E+03  0.63692067869E+03  0.12509135778E+03 0.  0.
          5    1    3    3  502    0  0.48753679195E+02  0.15592414248E+03 -0.44315786326E+03  0.47232999440E+03  0.41800000000E+01 0.  1.
         -5    1    3    3    0  502  0.86440408857E+02  0.41223754125E+02 -0.13379566049E+03  0.16459068429E+03  0.41800000000E+01 0.  1.
        -11    1    1    2    0    0 -0.88342519824E+02 -0.18862763120E+03 -0.35477825594E+03  0.41140295933E+03  0.00000000000E+00 0. -1.
         11    1    1    2    0    0 -0.46851568227E+02 -0.85202653992E+01 -0.79330194060E+02  0.92525369804E+02  0.00000000000E+00 0.  1.
</event>
<event>
 7    1  0.2943257E-009  0.2107593E+03  0.7561462E-02  0.1140966E+00
         -2   -1    0    0    0  501 -0.00000000000E+00  0.00000000000E+00  0.95843336529E+02  0.95843336529E+02  0.00000000000E+00 0.  1.
          2   -1    0    0  501    0  0.00000000000E+00 -0.00000000000E+00 -0.58550620551E+03  0.58550620551E+03  0.00000000000E+00 0. -1.
         25    2    1    2    0    0 -0.10511930047E+03 -0.15858935603E+03 -0.37931986839E+03  0.44241587901E+03  0.12509035240E+03 0.  0.
          5    1    3    3  502    0 -0.10763547138E+02  0.11617692785E+02 -0.10371669733E+03  0.10500214492E+03  0.41800000000E+01 0.  1.
         -5    1    3    3    0  502 -0.94355753329E+02 -0.17020704881E+03 -0.27560317106E+03  0.33741373409E+03  0.41800000000E+01 0.  1.
        -11    1    1    2    0    0  0.12160256830E+03  0.14394629129E+03 -0.89564073602E+02  0.20863710761E+03  0.00000000000E+00 0.  1.
         11    1    1    2    0    0 -0.16483267835E+02  0.14643064740E+02 -0.20778926982E+02  0.30296555415E+02  0.00000000000E+00 0. -1.
</event>
<event>
 7    1  0.2943257E-009  0.1195884E+03  0.7561462E-02  0.1243778E+00
          2   -1    0    0  501    0  0.00000000000E+00  0.00000000000E+00  0.15077562887E+03  0.15077562887E+03  0.00000000000E+00 0.  1.
         -2   -1    0    0    0  501 -0.00000000000E+00 -0.00000000000E+00 -0.12458571525E+03  0.12458571525E+03  0.00000000000E+00 0. -1.
         25    2    1    2    0    0 -0.42782257461E+02 -0.22475616288E+02  0.80542993309E+02  0.15642827840E+03  0.12508859912E+03 0.  0.
          5    1    3    3  502    0  0.43200301155E+02 -0.18809156072E+02  0.21381949936E+02  0.51910601568E+02  0.41800000000E+01 0.  1.
         -5    1    3    3    0  502 -0.85982558616E+02 -0.36664602161E+01  0.59161043372E+02  0.10451767683E+03  0.41800000000E+01 0.  1.
        -11    1    1    2    0    0 -0.13555807305E+02  0.43512029692E+02 -0.21227757917E+02  0.50275981799E+02  0.00000000000E+00 0. -1.
         11    1    1    2    0    0  0.56338064766E+02 -0.21036413405E+02 -0.33125321775E+02  0.68657083926E+02  0.00000000000E+00 0.  1.
</event>
<event>
 7    1  0.2943257E-009  0.1359808E+03  0.7561462E-02  0.1218842E+00
         -1   -1    0    0    0  501 -0.00000000000E+00  0.00000000000E+00  0.47121363676E+02  0.47121363676E+02  0.00000000000E+00 0.  1.
          1   -1    0    0  501    0  0.00000000000E+00 -0.00000000000E+00 -0.48222866398E+03  0.48222866398E+03  0.00000000000E+00 0. -1.
         25    2    1    2    0    0 -0.57457225352E+00  0.83591505420E+02 -0.34340159391E+03  0.37491576116E+03  0.12509717565E+03 0.  0.
          5    1    3    3  502    0  0.57816256164E+02  0.19109953347E+02 -0.11006311838E+03  0.12585417045E+03  0.41800000000E+01 0. -1.
         -5    1    3    3    0  502 -0.58390828417E+02  0.64481552074E+02 -0.23333847553E+03  0.24906159070E+03  0.41800000000E+01 0. -1.
        -11    1    1    2    0    0 -0.44346112277E+02 -0.54730874471E+02 -0.58429299253E+02  0.91520649613E+02  0.00000000000E+00 0. -1.
         11    1    1    2    0    0  0.44920684530E+02 -0.28860630949E+02 -0.33276407149E+02  0.62913616890E+02  0.00000000000E+00 0.  1.
</event>
<event>
 7    1  0.2943257E-009  0.1131837E+03  0.7561462E-02  0.1254785E+00
         -1   -1    0    0    0  501 -0.00000000000E+00  0.00000000000E+00  0.49703881981E+02  0.49703881981E+02  0.00000000000E+00 0.  1.
          1   -1    0    0  501    0  0.00000000000E+00 -0.00000000000E+00 -0.39883650001E+03  0.39883650001E+03  0.00000000000E+00 0. -1.
         25    2    1    2    0    0 -0.42707238216E+02  0.53834312239E+02 -0.10287035979E+03  0.17592773674E+03  0.12508483625E+03 0.  0.
          5    1    3    3  502    0  0.35267665074E+02 -0.13987131561E+02 -0.37882188336E+02  0.53777138658E+02  0.41800000000E+01 0.  1.
         -5    1    3    3    0  502 -0.77974903290E+02  0.67821443800E+02 -0.64988171451E+02  0.12215059808E+03  0.41800000000E+01 0.  1.
        -11    1    1    2    0    0 -0.78985841179E+01 -0.25663474238E+02 -0.89026790792E+01  0.28288853562E+02  0.00000000000E+00 0.  1.
         11    1    1    2    0    0  0.50605822334E+02 -0.28170838001E+02 -0.23735957916E+03  0.24432379169E+03  0.00000000000E+00 0. -1.
</event>
<event>
 7    1  0.2943257E-009  0.8264354E+02  0.7561462E-02  0.1321713E+00
          2   -1    0    0  501    0  0.00000000000E+00  0.00000000000E+00  0.12614065294E+03  0.12614065294E+03  0.00000000000E+00 0. -1.
         -2   -1    0    0    0  501 -0.00000000000E+00 -0.00000000000E+00 -0.14321212910E+03  0.14321212910E+03  0.00000000000E+00 0.  1.
         25    2    1    2    0    0  0.25133870442E+02  0.65816789070E+01 -0.82501815962E+02  0.15207964484E+03  0.12508652524E+03 0.  0.
          5    1    3    3  502    0 -0.27730330466E+02 -0.16059920337E+02 -0.88396502777E+02  0.94118576127E+02  0.41800000000E+01 0.  1.
         -5    1    3    3    0  502  0.52864200907E+02  0.22641599244E+02  0.58946868150E+01  0.57961068715E+02  0.41800000000E+01 0.  1.
        -11    1    1    2    0    0 -0.49274907414E+02 -0.11671064977E+02  0.36744164399E+01  0.50771365891E+02  0.00000000000E+00 0.  1.
         11    1    1    2    0    0  0.24141036972E+02  0.50893860699E+01  0.61755923365E+02  0.66501771310E+02  0.00000000000E+00 0. -1.
</event>
<event>
 7    1  0.2943257E-009  0.1239808E+03  0.7561462E-02  0.1236671E+00
          1   -1    0    0  501    0  0.00000000000E+00  0.00000000000E+00  0.21369385056E+03  0.21369385056E+03  0.00000000000E+00 0. -1.
         -1   -1    0    0    0  501 -0.00000000000E+00 -0.00000000000E+00 -0.10618337244E+03  0.10618337244E+03  0.00000000000E+00 0.  1.
         25    2    1    2    0    0  0.24110263513E+02  0.96903583671E+02  0.91723583857E+02  0.18447940023E+03  0.12509126244E+03 0.  0.
          5    1    3    3  502    0 -0.43188380681E+01  0.88744484728E+02  0.98778802555E+00  0.88953268951E+02  0.41800000000E+01 0. -1.
         -5    1    3    3    0  502  0.28429101581E+02  0.81590989431E+01  0.90735795831E+02  0.95526131281E+02  0.41800000000E+01 0. -1.
        -11    1    1    2    0    0 -0.40460653373E+02 -0.10379308695E+03 -0.36989874201E+00  0.11140110500E+03  0.00000000000E+00 0.  1.
         11    1    1    2    0    0  0.16350389859E+02  0.68895032763E+01  0.16156793002E+02  0.23996717777E+02  0.00000000000E+00 0. -1.
</event>
<event>
 7    1  0.2943257E-009  0.3097945E+03  0.7561462E-02  0.1080444E+00
         -1   -1    0    0    0  501 -0.00000000000E+00  0.00000000000E+00  0.57511890717E+03  0.57511890717E+03  0.00000000000E+00 0.  1.
          1   -1    0    0  501    0  0.00000000000E+00 -0.00000000000E+00 -0.19658871237E+03  0.19658871237E+03  0.00000000000E+00 0. -1.
         25    2    1    2    0    0 -0.49015964903E+02  0.29440853926E+03  0.31872048694E+03  0.45421335626E+03  0.12509225156E+03 0.  0.
          5    1    3    3  502    0  0.17496061093E+02  0.14763871213E+02 -0.21850005057E+01  0.23373717594E+02  0.41800000000E+01 0. -1.
         -5    1    3    3    0  502 -0.66512025996E+02  0.27964466804E+03  0.32090548745E+03  0.43083963866E+03  0.41800000000E+01 0. -1.
        -11    1    1    2    0    0  0.97496794125E+01 -0.24739528576E+03  0.65126531142E+02  0.25600966529E+03  0.00000000000E+00 0.  1.
         11    1    1    2    0    0  0.39266285491E+02 -0.47013253501E+02 -0.53168232802E+01  0.61484597996E+02  0.00000000000E+00 0. -1.
</event>
<event>
 7    1  0.3259423E-009  0.1580527E+03  0.7561462E-02  0.1190913E+00
         -2   -1    0    0    0  501 -0.00000000000E+00  0.00000000000E+00  0.37978744068E+02  0.37978744068E+02  0.00000000000E+00 0.  1.
          2   -1    0    0  501    0  0.00000000000E+00 -0.00000000000E+00 -0.72375794969E+03  0.72375794969E+03  0.00000000000E+00 0. -1.
         25    2    1    2    0    0  0.59853148581E+02 -0.10963460696E+03 -0.36093933006E+03  0.40190410759E+03  0.12509022853E+03 0.  0.
          5    1    3    3  502    0  0.20593985327E+02  0.26021935690E+02 -0.95792709252E+02  0.10146412624E+03  0.41800000000E+01 0.  1.
         -5    1    3    3    0  502  0.39259163255E+02 -0.13565654265E+03 -0.26514662081E+03  0.30043998134E+03  0.41800000000E+01 0.  1.
        -11    1    1    2    0    0 -0.44318809872E+01  0.76856771764E+02 -0.24750668402E+03  0.25920293896E+03  0.00000000000E+00 0. -1.
         11    1    1    2    0    0 -0.55421267594E+02  0.32777835199E+02 -0.77333191544E+02  0.10062964720E+03  0.00000000000E+00 0.  1.
</event>
<event>
 7    1  0.2943257E-009  0.2011435E+03  0.7561462E-02  0.1148778E+00
         -2   -1    0    0    0  501 -0.00000000000E+00  0.00000000000E+00  0.17304712371E+03  0.17304712371E+03  0.00000000000E+00 0.  1.
          2   -1    0    0  501    0  0.00000000000E+00 -0.00000000000E+00 -0.53928784803E+03  0.53928784803E+03  0.00000000000E+00 0. -1.
         25    2    1    2    0    0  0.10729561225E+03 -0.15778705174E+03 -0.43448506909E+03  0.49074751659E+03  0.12508696045E+03 0.  0.
          5    1    3    3  502    0  0.11335206072E+03 -0.13494518146E+03 -0.43204548977E+03  0.46662583437E+03  0.41800000000E+01 0. -1.
         -5    1    3    3    0  502 -0.60564484690E+01 -0.22841870275E+02 -0.24395793128E+01  0.24121682216E+02  0.41800000000E+01 0. -1.
        -11    1    1    2    0    0 -0.78813890385E+02  0.56988895566E+02  0.64640208048E+02  0.11678064922E+03  0.00000000000E+00 0.  1.
         11    1    1    2    0    0 -0.28481721862E+02  0.10079815617E+03  0.36041367175E+01  0.10480680593E+03  0.00000000000E+00 0. -1.
</event>
<event>
 7    1  0.2943257E-009  0.1621421E+03  0.7561462E-02  0.1186299E+00
          2   -1    0    0  501    0  0.00000000000E+00  0.00000000000E+00  0.17892761473E+03  0.17892761473E+03  0.00000000000E+00 0. -1.
         -2   -1    0    0    0  501 -0.00000000000E+00 -0.00000000000E+00 -0.19619503303E+03  0.19619503303E+03  0.00000000000E+00 0.  1.
         25    2    1    2    0    0 -0.91024193876E+02 -0.11168716548E+03  0.40497628794E+02  0.19505714762E+03  0.12509119113E+03 0.  0.
          5    1    3    3  502    0 -0.90073924286E+01 -0.62505824490E+02 -0.35740123714E+02  0.72683836282E+02  0.41800000000E+01 0. -1.
         -5    1    3    3    0  502 -0.82016801448E+02 -0.49181340987E+02  0.76237752508E+02  0.12237331134E+03  0.41800000000E+01 0. -1.
        -11    1    1    2    0    0  0.60125784152E+02  0.12538638559E+02 -0.39357923182E+00  0.61420536317E+02  0.00000000000E+00 0.  1.
         11    1    1    2    0    0  0.30898409724E+02  0.99148526918E+02 -0.57371467863E+02  0.11864496381E+03  0.00000000000E+00 0. -1.
</event>
<event>
 6    1  0.2943257E-009  0.1468440E+03  0.7561462E-02  0.1204406E+00
          2   -1    0    0  501    0  0.00000000000E+00  0.00000000000E+00  0.41974775460E+02  0.41974775460E+02  0.00000000000E+00 0.  1.
         -2   -1    0    0    0  501 -0.00000000000E+00 -0.00000000000E+00 -0.65473577268E+03  0.65473577268E+03  0.00000000000E+00 0. -1.
          5    1    1    2  502    0  0.13621665298E+02 -0.14077016195E+03 -0.26204815032E+03  0.29780613450E+03  0.41800000000E+01 0. -1.
         -5    1    1    2    0  502 -0.36829118945E+01  0.19716540440E+02 -0.50077316189E+01  0.21091599818E+02  0.41800000000E+01 0. -1.
        -11    1    1    2    0    0  0.14566964945E+02  0.94343842122E+02 -0.14328691999E+03  0.17217461617E+03  0.00000000000E+00 0.  1.
         11    1    1    2    0    0 -0.24505718348E+02  0.26709779387E+02 -0.20241819530E+03  0.20563819766E+03  0.00000000000E+00 0. -1.
</event>
<event>
 7    1  0.2943257E-009  0.1426419E+03  0.7561462E-02  0.1209818E+00
         -2   -1    0    0    0  501 -0.00000000000E+00  0.00000000000E+00  0.10089692791E+03  0.10089692791E+03  0.00000000000E+00 0.  1.
          2   -1    0    0  501    0  0.00000000000E+00 -0.00000000000E+00 -0.27720552499E+03  0.27720552499E+03  0.00000000000E+00 0. -1.
         25    2    1    2    0    0  0.12342644513E+03  0.86196377908E+01 -0.57609156970E+02  0.18513342259E+03  0.12508870325E+03 0.  0.
          5    1    3    3  502    0 -0.25925316562E+01 -0.47415948696E+01  0.30160635955E+02  0.30924752279E+02  0.41800000000E+01 0. -1.
         -5    1    3    3    0  502  0.12601897679E+03  0.13361232660E+02 -0.87769792925E+02  0.15420867031E+03  0.41800000000E+01 0. -1.
        -11    1    1    2    0    0 -0.11171424639E+03 -0.39609380450E+02 -0.86183011511E+02  0.14654858354E+03  0.00000000000E+00 0. -1.
         11    1    1    2    0    0 -0.11712198746E+02  0.30989742659E+02 -0.32516428602E+02  0.46420446773E+02  0.00000000000E+00 0.  1.
</event>
<event>
 7    1  0.2943257E-009  0.9235532E+02  0.7561462E-02  0.1297246E+00
          2   -1    0    0  501    0  0.00000000000E+00  0.00000000000E+00  0.31598581488E+03  0.31598581488E+03  0.00000000000E+00 0. -1.
         -2   -1    0    0    0  501 -0.00000000000E+00 -0.00000000000E+00 -0.44502972331E+02  0.44502972331E+02  0.00000000000E+00 0.  1.
         25    2    1    2    0    0  0.42145534575E+02  0.77733096548E+01  0.11658175416E+03  0.17628782817E+03  0.12509765198E+03 0.  0.
          5    1    3    3  502    0  0.59643250418E+02 -0.92181671301E+01  0.13332626884E+03  0.14640921517E+03  0.41800000000E+01 0. -1.
         -5    1    3    3    0  502 -0.17497715843E+02  0.16991476785E+02 -0.16744514677E+02  0.29878613000E+02  0.41800000000E+01 0. -1.
        -11    1    1    2    0    0 -0.56282108152E+02  0.26637530120E+02  0.10265318984E+03  0.12006211348E+03  0.00000000000E+00 0. -1.
         11    1    1    2    0    0  0.14136573576E+02 -0.34410839775E+02  0.52247898541E+02  0.64138845550E+02  0.00000000000E+00 0.  1.
</event>
<event>
 7    1  0.2943257E-009  0.1795976E+03  0.7561462E-02  0.1168193E+00
         -2   -1    0    0    0  501 -0.00000000000E+00  0.00000000000E+00  0.79828893247E+02  0.79828893247E+02  0.00000000000E+00 0.  1.
          2   -1    0    0  501    0  0.00000000000E+00 -0.00000000000E+00 -0.45122763573E+03  0.45122763573E+03  0.00000000000E+00 0. -1.
         25    2    1    2    0    0 -0.78438181859E+02 -0.13239377643E+03 -0.15563834039E+03  0.25209569497E+03  0.12509310938E+03 0.  0.
          5    1    3    3  502    0 -0.92602114244E+02 -0.63428383204E+02 -0.14064446834E+03  0.17999069485E+03  0.41800000000E+01 0.  1.
         -5    1    3    3    0  502  0.14163932384E+02 -0.68965393226E+02 -0.14993872052E+02  0.72105000122E+02  0.41800000000E+01 0.  1.
        -11    1    1    2    0    0  0.68205546266E+02  0.31836558682E+02 -0.82047534511E+02  0.11134343685E+03  0.00000000000E+00 0.  1.
         11    1    1    2    0    0  0.10232635593E+02  0.10055721775E+03 -0.13371286758E+03  0.16761739715E+03  0.00000000000E+00 0. -1.
</event>
<event>
 7    1  0.2943257E-009  0.1124205E+03  0.7561462E-02  0.1256152E+00
         -2   -1    0    0    0  501 -0.00000000000E+00  0.00000000000E+00  0.14997426023E+03  0.14997426023E+03  0.00000000000E+00 0.  1.
          2   -1    0    0  501    0  0.00000000000E+00 -0.00000000000E+00 -0.15571096466E+03  0.15571096466E+03  0.00000000000E+00 0. -1.
         25    2    1    2    0    0 -0.61334842074E+02 -0.15067860874E+02 -0.89330804637E+02  0.16618315805E+03  0.12509135094E+03 0.  0.
          5    1    3    3  502    0 -0.23390367624E+02  0.42365694726E+02 -0.83976489759E+02  0.97012806471E+02  0.41800000000E+01 0.  1.
         -5    1    3    3    0  502 -0.37944474450E+02 -0.57433555600E+02 -0.53543148789E+01  0.69170351582E+02  0.41800000000E+01 0.  1.
        -11    1    1    2    0    0  0.10564495895E+02 -0.34661929757E+02  0.10899341252E+02  0.37839841275E+02  0.00000000000E+00 0. -1.
         11    1    1    2    0    0  0.50770346179E+02  0.49729790631E+02  0.72694758953E+02  0.10166222556E+03  0.00000000000E+00 0.  1.
</event>
<event>
 7    1  0.2943257E-009  0.1020569E+03  0.7561462E-02  0.1276029E+00
          3   -1    0    0  501    0  0.00000000000E+00  0.00000000000E+00  0.31105533421E+02  0.31105533421E+02  0.00000000000E+00 0. -1.
         -3   -1    0    0    0  501 -0.00000000000E+00 -0.00000000000E+00 -0.39505402017E+03  0.39505402017E+03  0.00000000000E+00 0.  1.
         25    2    1    2    0    0 -0.91054705150E+00  0.25023340127E+02 -0.21676382391E+03  0.25151495059E+03  0.12508484466E+03 0.  0.
          5    1    3    3  502    0  0.57321550311E+02  0.11025354871E+00 -0.14348086830E+03  0.15456391640E+03  0.41800000000E+01 0. -1.
         -5    1    3    3    0  502 -0.58232097362E+02  0.24913086578E+02 -0.73282955614E+02  0.96951034186E+02  0.41800000000E+01 0. -1.
        -11    1    1    2    0    0 -0.35693729822E+02 -0.29475098457E+02 -0.12062194252E+03  0.12919936840E+03  0.00000000000E+00 0.  1.
         11    1    1    2    0    0  0.36604276874E+02  0.44517583299E+01 -0.26562720319E+02  0.45445234606E+02  0.00000000000E+00 0. -1.
</event>
<event>
 7    1  0.2943257E-009  0.1113292E+03  0.7561462E-02  0.1258128E+00
          2   -1    0    0  501    0  0.00000000000E+00  0.00000000000E+00  0.20084729812E+03  0.20084729812E+03  0.00000000000E+00 0. -1.
         -2   -1    0    0    0  501 -0.00000000000E+00 -0.00000000000E+00 -0.16919402555E+03  0.16919402555E+03  0.00000000000E+00 0.  1.
         25    2    1    2    0    0 -0.63802826693E+02  0.79545499162E+02  0.11615268658E+03  0.19884092526E+03  0.12509188554E+03 0.  0.
          5    1    3    3  502    0 -0.31876333858E+02  0.44359286047E+02  0.13642665492E+03  0.14701548045E+03  0.41800000000E+01 0. -1.
         -5    1    3    3    0  502 -0.31926492835E+02  0.35186213114E+02 -0.20273968335E+02  0.51825444813E+02  0.41800000000E+01 0. -1.
        -11    1    1    2    0    0  0.67818288653E+02 -0.36634841718E+02 -0.83205597711E+00  0.77085175103E+02  0.00000000000E+00 0. -1.
         11    1    1    2    0    0 -0.40154619596E+01 -0.42910657443E+02 -0.83667358040E+02  0.94115223308E+02  0.00000000000E+00 0.  1.
</event>
<event>
 7    1  0.2943257E-009  0.1058211E+03  0.7561462E-02  0.1268510E+00
          1   -1    0    0  501    0  0.00000000000E+00  0.00000000000E+00  0.92597203855E+02  0.92597203855E+02  0.00000000000E+00 0. -1.
         -1   -1    0    0    0  501 -0.00000000000E+00 -0.00000000000E+00 -0.17570846870E+03  0.17570846870E+03  0.00000000000E+00 0.  1.
         25    2    1    2    0    0  0.33598229432E+02 -0.22849615038E+02 -0.10219517643E+03  0.16655764916E+03  0.12508657194E+03 0.  0.
          5    1    3    3  502    0  0.26780984411E+02  0.40281931056E+02 -0.29229201621E+01  0.48640219550E+02  0.41800000000E+01 0.  1.
         -5    1    3    3    0  502  0.68172450212E+01 -0.63131546094E+02 -0.99272256270E+02  0.11791742961E+03  0.41800000000E+01 0.  1.
        -11    1    1    2    0    0  0.78842363928E+01 -0.30711558168E+02  0.14328841829E+01  0.31739788053E+02  0.00000000000E+00 0.  1.
         11    1    1    2    0    0 -0.41482465825E+02  0.53561173206E+02  0.17651027407E+02  0.70008235335E+02  0.00000000000E+00 0. -1.
</event>
<event>
 7    1  0.2943257E-009  0.7598069E+02  0.7561462E-02  0.1340861E+00
          1   -1    0    0  501    0  0.00000000000E+00  0.00000000000E+00  0.37392219050E+03  0.37392219050E+03  0.00000000000E+00 0. -1.
         -1   -1    0    0    0  501 -0.00000000000E+00 -0.00000000000E+00 -0.45797487189E+02  0.45797487189E+02  0.00000000000E+00 0.  1.
         25    2    1    2    0    0 -0.25692959851E+02 -0.23603382851E+02  0.78619129139E+02  0.15180806024E+03  0.12508985498E+03 0.  0.
          5    1    3    3  502    0 -0.26030213991E+02  0.82830825819E+01 -0.28659523163E+02  0.39812336850E+02  0.41800000000E+01 0.  1.
         -5    1    3    3    0  502  0.33725414046E+00 -0.31886465433E+02  0.10727865230E+03  0.11199572339E+03  0.41800000000E+01 0.  1.
        -11    1    1    2    0    0  0.56889643847E+01 -0.32297006122E+02  0.50297187117E+02  0.60043883553E+02  0.00000000000E+00 0.  1.
         11    1    1    2    0    0  0.20003995466E+02  0.55900388973E+02  0.19920838705E+03  0.20786773389E+03  0.00000000000E+00 0. -1.
</event>
<event>
 7    1  0.2943257E-009  0.1084028E+03  0.7561462E-02  0.1263556E+00
         -2   -1    0    0    0  501 -0.00000000000E+00  0.00000000000E+00  0.86412127100E+01  0.86412127100E+01  0.00000000000E+00 0. -1.
          2   -1    0    0  501    0  0.00000000000E+00 -0.00000000000E+00 -0.20332682489E+04  0.20332682489E+04  0.00000000000E+00 0.  1.
         25    2    1    2    0    0 -0.13224116515E+02  0.54472966056E+01 -0.16914489063E+04  0.16961284138E+04  0.12509054032E+03 0.  0.
          5    1    3    3  502    0 -0.19696557965E+02 -0.58288635505E+02 -0.84931773808E+03  0.85155364602E+03  0.41800000000E+01 0. -1.
         -5    1    3    3    0  502  0.64724414498E+01  0.63735932111E+02 -0.84213116823E+03  0.84457476782E+03  0.41800000000E+01 0. -1.
        -11    1    1    2    0    0  0.29937080769E+02 -0.41516357442E+02 -0.15539206103E+03  0.16360479630E+03  0.00000000000E+00 0. -1.
         11    1    1    2    0    0 -0.16712964254E+02  0.36069060836E+02 -0.17778606884E+03  0.18217625146E+03  0.00000000000E+00 0.  1.
</event>
<event>
 7    1  0.2943257E-009  0.9475970E+02  0.7561462E-02  0.1291718E+00
          2   -1    0    0  501    0  0.00000000000E+00  0.00000000000E+00  0.11499633560E+04  0.11499633560E+04  0.00000000000E+00 0. -1.
         -2   -1    0    0    0  501 -0.00000000000E+00 -0.00000000000E+00 -0.15503740741E+02  0.15503740741E+02  0.00000000000E+00 0.  1.
         25    2    1    2    0    0  0.85316275396E+01 -0.46397396489E+02  0.86653493204E+03  0.87678763910E+03  0.12509303961E+03 0.  0.
          5    1    3    3  502    0  0.26984284415E+02 -0.66080665386E+02  0.81785284072E+03  0.82097231831E+03  0.41800000000E+01 0. -1.
         -5    1    3    3    0  502 -0.18452656875E+02  0.19683268897E+02  0.48682091318E+02  0.55815320793E+02  0.41800000000E+01 0. -1.
        -11    1    1    2    0    0  0.34655135303E+02  0.18242780824E+02  0.19782124338E+03  0.20166065999E+03  0.00000000000E+00 0.  1.
         11    1    1    2    0    0 -0.43186762843E+02  0.28154615666E+02  0.70103439843E+02  0.87018797659E+02  0.00000000000E+00 0. -1.
</event>
<event>
 7    1  0.2943257E-009  0.2628766E+03  0.7561462E-02  0.1105427E+00
         -1   -1    0    0    0  501 -0.00000000000E+00  0.00000000000E+00  0.56228478067E+02  0.56228478067E+02  0.00000000000E+00 0.  1.
          1   -1    0    0  501    0  0.00000000000E+00 -0.00000000000E+00 -0.13521197087E+04  0.13521197087E+04  0.00000000000E+00 0. -1.
         25    2    1    2    0    0  0.19268369631E+03 -0.15076447354E+03 -0.50520992330E+03  0.57510223683E+03  0.12509429606E+03 0.  0.
          5    1    3    3  502    0  0.50033302554E+02 -0.11061950211E+03 -0.28307145730E+03  0.30803721845E+03  0.41800000000E+01 0. -1.
         -5    1    3    3    0  502  0.14265039375E+03 -0.40144971439E+02 -0.22213846600E+03  0.26706501838E+03  0.41800000000E+01 0. -1.
        -11    1    1    2    0    0 -0.13242116557E+03  0.56122763676E+02 -0.53570212293E+03  0.55467278120E+03  0.00000000000E+00 0.  1.
         11    1    1    2    0    0 -0.60262530738E+02  0.94641709869E+02 -0.25497918442E+03  0.27857316875E+03  0.00000000000E+00 0. -1.
</event>
<event>
 7    1  0.2943257E-009  0.6216801E+02  0.7561462E-02  0.1388952E+00
         -4   -1    0    0    0  501 -0.00000000000E+00  0.00000000000E+00  0.41740411969E+02  0.41740411969E+02  0.00000000000E+00 0.  1.
          4   -1    0    0  501    0  0.00000000000E+00 -0.00000000000E+00 -0.31371287421E+03  0.31371287421E+03  0.00000000000E+00 0. -1.
         25    2    1    2    0    0  0.72021454301E+01 -0.11621353382E+02 -0.20094426164E+03  0.23709198387E+03  0.12508831190E+03 0.  0.
          5    1    3    3  502    0  0.13637124867E+02  0.18775988180E+01  0.14887256863E+02  0.20702641591E+02  0.41800000000E+01 0.  1.
         -5    1    3    3    0  502 -0.64349794370E+01 -0.13498952200E+02 -0.21583151850E+03  0.21638934227E+03  0.41800000000E+01 0.  1.
        -11    1    1    2    0    0  0.37416858365E+02 -0.17328057754E+02 -0.26708745404E+02  0.49128809842E+02  0.00000000000E+00 0.  1.
         11    1    1    2    0    0 -0.44619003796E+02  0.28949411135E+02 -0.44319455199E+02  0.69232492472E+02  0.00000000000E+00 0. -1.
</event>
<event>
 7    1  0.2943257E-009  0.1059500E+03  0.7561462E-02  0.1268259E+00
         -3   -1    0    0    0  501 -0.00000000000E+00  0.00000000000E+00  0.61812484179E+02  0.61812484179E+02  0.00000000000E+00 0.  1.
          3   -1    0    0  501    0  0.00000000000E+00 -0.00000000000E+00 -0.26388510719E+03  0.26388510719E+03  0.00000000000E+00 0. -1.
         25    2    1    2    0    0 -0.38118482399E+02  0.20389613577E+02 -0.48312837867E+02  0.14085272361E+03  0.12504640900E+03 0.  0.
          5    1    3    3  502    0  0.30649522546E+02  0.31242190156E+02  0.15204012630E+02  0.46519910555E+02  0.41800000000E+01 0. -1.
         -5    1    3    3    0  502 -0.68768004945E+02 -0.10852576580E+02 -0.63516850497E+02  0.94332813058E+02  0.41800000000E+01 0. -1.
        -11    1    1    2    0    0  0.39710661343E+02 -0.52618822183E+02 -0.75710174448E+02  0.10038778605E+03  0.00000000000E+00 0.  1.
         11    1    1    2    0    0 -0.15921789438E+01  0.32229208606E+02 -0.78049610693E+02  0.84457081707E+02  0.00000000000E+00 0. -1.
</event>
<event>
 7    1  0.2943257E-009  0.1167815E+03  0.7561462E-02  0.1248503E+00
          1   -1    0    0  501    0  0.00000000000E+00  0.00000000000E+00  0.43456480044E+03  0.43456480044E+03  0.00000000000E+00 0. -1.
         -1   -1    0    0    0  501 -0.00000000000E+00 -0.00000000000E+00 -0.46134512143E+02  0.46134512143E+02  0.00000000000E+00 0.  1.
         25    2    1    2    0    0  0.23953166727E+02 -0.39039742831E+02  0.34172031298E+03  0.36676624732E+03  0.12508737806E+03 0.  0.
          5    1    3    3  502    0  0.40212461227E+02  0.36565369011E+02  0.16641694260E+03  0.17511750179E+03  0.41800000000E+01 0. -1.
         -5    1    3    3    0  502 -0.16259294499E+02 -0.75605111843E+02  0.17530337038E+03  0.19164874553E+03  0.41800000000E+01 0. -1.
        -11    1    1    2    0    0 -0.54174029914E+02  0.25622047150E+01  0.12936512188E+02  0.55756109600E+02  0.00000000000E+00 0. -1.
         11    1    1    2    0    0  0.30220863187E+02  0.36477538116E+02  0.33773463123E+02  0.58176955662E+02  0.00000000000E+00 0.  1.
</event>
<event>
 7    1  0.2943257E-009  0.1164585E+03  0.7561462E-02  0.1249057E+00
         -3   -1    0    0    0  501 -0.00000000000E+00  0.00000000000E+00  0.46789466279E+02  0.46789466279E+02  0.00000000000E+00 0.  1.
          3   -1    0    0  501    0  0.00000000000E+00 -0.00000000000E+00 -0.34542933921E+03  0.34542933921E+03  0.00000000000E+00 0. -1.
         25    2    1    2    0    0  0.21757333018E+02  0.43804122455E+02 -0.23296534116E+03  0.26890932823E+03  0.12508874428E+03 0.  0.
          5    1    3    3  502    0 -0.50768852782E+02  0.27777756249E+02 -0.12482578842E+03  0.13765184347E+03  0.41800000000E+01 0. -1.
         -5    1    3    3    0  502  0.72526185800E+02  0.16026366206E+02 -0.10813955274E+03  0.13125748476E+03  0.41800000000E+01 0. -1.
        -11    1    1    2    0    0  0.19072489597E+02  0.18133561352E+02 -0.35647888062E+01  0.26557364816E+02  0.00000000000E+00 0.  1.
         11    1    1    2    0    0 -0.40829822615E+02 -0.61937683807E+02 -0.62109742968E+02  0.96752112441E+02  0.00000000000E+00 0. -1.
</event>
<event>
 7    1  0.2943257E-009  0.1319647E+03  0.7561462E-02  0.1224569E+00
          1   -1    0    0  501    0  0.00000000000E+00  0.00000000000E+00  0.65310032923E+03  0.65310032923E+03  0.00000000000E+00 0. -1.
         -1   -1    0    0    0  501 -0.00000000000E+00 -0.00000000000E+00 -0.28043281194E+02  0.28043281194E+02  0.00000000000E+00 0.  1.
         25    2    1    2    0    0 -0.82687356819E+02 -0.22973139690E+02  0.39720144257E+03  0.42518374517E+03  0.12508903649E+03 0.  0.
          5    1    3    3  502    0 -0.27028800016E+02  0.50277462928E+02  0.19011289576E+03  0.19854159475E+03  0.41800000000E+01 0.  1.
         -5    1    3    3    0  502 -0.55658556804E+02 -0.73250602618E+02  0.20708854681E+03  0.22664215043E+03  0.41800000000E+01 0.  1.
        -11    1    1    2    0    0  0.11626135988E+02 -0.25877592341E+02  0.37848710587E+02  0.47300546683E+02  0.00000000000E+00 0.  1.
         11    1    1    2    0    0  0.71061220831E+02  0.48850732032E+02  0.19000689487E+03  0.20865931857E+03  0.00000000000E+00 0. -1.
</event>
<event>
 7    1  0.2943257E-009  0.9480639E+02  0.7561462E-02  0.1291613E+00
          1   -1    0    0  501    0  0.00000000000E+00  0.00000000000E+00  0.20073521914E+03  0.20073521914E+03  0.00000000000E+00 0. -1.
         -1   -1    0    0    0  501 -0.00000000000E+00 -0.00000000000E+00 -0.56584152854E+02  0.56584152854E+02  0.00000000000E+00 0.  1.
         25    2    1    2    0    0  0.24535381044E+01 -0.81129505144E+01  0.90147088090E+02  0.15442027737E+03  0.12508910727E+03 0.  0.
          5    1    3    3  502    0 -0.47282441796E+02  0.32596592552E+02  0.24888821076E+02  0.62730319326E+02  0.41800000000E+01 0. -1.
         -5    1    3    3    0  502  0.49735979900E+02 -0.40709543066E+02  0.65258267014E+02  0.91689958049E+02  0.41800000000E+01 0. -1.
        -11    1    1    2    0    0 -0.26346600635E+02  0.26580062993E+02 -0.38656114230E+01  0.37624274949E+02  0.00000000000E+00 0.  1.
         11    1    1    2    0    0  0.23893062531E+02 -0.18467112479E+02  0.57869589615E+02  0.65274819668E+02  0.00000000000E+00 0. -1.
</event>
<event>
 7    1  0.2943257E-009  0.8699771E+02  0.7561462E-02  0.1310289E+00
         -1   -1    0    0    0  501 -0.00000000000E+00  0.00000000000E+00  0.87095340044E+02  0.87095340044E+02  0.00000000000E+00 0.  1.
          1   -1    0    0  501    0  0.00000000000E+00 -0.00000000000E+00 -0.14411363944E+03  0.14411363944E+03  0.00000000000E+00 0. -1.
         25    2    1    2    0    0 -0.14606837181E+02 -0.57326803717E+00 -0.77465237215E+01  0.12618030070E+03  0.12509105215E+03 0.  0.
          5    1    3    3  502    0 -0.69962275917E+02 -0.15090957369E+01 -0.87715967942E+01  0.70649916715E+02  0.41800000000E+01 0. -1.
         -5    1    3    3    0  502  0.55355438736E+02  0.93582769972E+00  0.10250730727E+01  0.55530383989E+02  0.41800000000E+01 0. -1.
        -11    1    1    2    0    0 -0.90538607231E+01 -0.16754353018E+02  0.21320152102E+02  0.28587228349E+02  0.00000000000E+00 0.  1.
         11    1    1    2    0    0  0.23660697904E+02  0.17327621055E+02 -0.70591927774E+02  0.76441450428E+02  0.00000000000E+00 0. -1.
</event>
<event>
 7    1  0.2943257E-009  0.1178888E+03  0.7561462E-02  0.1246621E+00
         -1   -1    0    0    0  501 -0.00000000000E+00  0.00000000000E+00  0.98968737311E+02  0.98968737311E+02  0.00000000000E+00 0.  1.
          1   -1    0    0  501    0  0.00000000000E+00 -0.00000000000E+00 -0.30618033195E+03  0.30618033195E+03  0.00000000000E+00 0. -1.
         25    2    1    2    0    0  0.89527268727E+02  0.19909039999E+02 -0.22688826288E+03  0.27484018565E+03  0.12508933645E+03 0.  0.
          5    1    3    3  502    0  0.27587114563E+02 -0.21058780802E+02  0.11521020698E+01  0.34976004317E+02  0.41800000000E+01 0.  1.
         -5    1    3    3    0  502  0.61940154163E+02  0.40967820801E+02 -0.22804036495E+03  0.23986418133E+03  0.41800000000E+01 0.  1.
        -11    1    1    2    0    0 -0.60595677438E+02  0.30863799803E+02  0.22973199217E+02  0.71778674721E+02  0.00000000000E+00 0.  1.
         11    1    1    2    0    0 -0.28931591289E+02 -0.50772839802E+02 -0.32965309712E+01  0.58530208888E+02  0.00000000000E+00 0. -1.
</event>
<event>
 7    1  0.2943257E-009  0.1654189E+03  0.7561462E-02  0.1182711E+00
         -2   -1    0    0    0  501 -0.00000000000E+00  0.00000000000E+00  0.10528349494E+03  0.10528349494E+03  0.00000000000E+00 0.  1.
          2   -1    0    0  501    0  0.00000000000E+00 -0.00000000000E+00 -0.54777445338E+03  0.54777445338E+03  0.00000000000E+00 0. -1.
         25    2    1    2    0    0  0.10232919807E+02 -0.14539382523E+03 -0.44110259795E+03  0.48110622704E+03  0.12509045814E+03 0.  0.
          5    1    3    3  502    0 -0.20428787487E+02 -0.11150471955E+03 -0.15913191648E+03  0.19542537471E+03  0.41800000000E+01 0. -1.
         -5    1    3    3    0  502  0.30661707295E+02 -0.33889105679E+02 -0.28197068147E+03  0.28568085232E+03  0.41800000000E+01 0. -1.
        -11    1    1    2    0    0  0.40347703273E+02  0.61933483315E+02  0.54768025515E+01  0.74119423103E+02  0.00000000000E+00 0. -1.
         11    1    1    2    0    0 -0.50580623081E+02  0.83460341911E+02 -0.68651630526E+01  0.97832298179E+02  0.00000000000E+00 0.  1.
</event>
<event>
 7    1  0.2943257E-009  0.2448130E+03  0.7561462E-02  0.1116627E+00
         -4   -1    0    0    0  501 -0.00000000000E+00  0.00000000000E+00  0.84238691495E+03  0.84238691495E+03  0.00000000000E+00 0.  1.
          4   -1    0    0  501    0  0.00000000000E+00 -0.00000000000E+00 -0.77193057678E+02  0.77193057678E+02  0.00000000000E+00 0. -1.
         25    2    1    2    0    0  0.87404180531E+02 -0.20723851195E+03  0.48567041196E+03  0.54964729095E+03  0.12509637801E+03 0.  0.
          5    1    3    3  502    0  0.21438394150E+02 -0.18440162410E+03  0.37982719090E+03  0.42278804508E+03  0.41800000000E+01 0. -1.
         -5    1    3    3    0  502  0.65965786381E+02 -0.22836887844E+02  0.10584322106E+03  0.12685924587E+03  0.41800000000E+01 0. -1.
        -11    1    1    2    0    0 -0.23650003339E+02  0.13748291953E+03  0.11763152944E+03  0.18247753982E+03  0.00000000000E+00 0.  1.
         11    1    1    2    0    0 -0.63754177192E+02  0.69755592413E+02  0.16189191587E+03  0.18745514185E+03  0.00000000000E+00 0. -1.
</event>
<event>
 7    1  0.2943257E-009  0.1088439E+03  0.7561462E-02  0.1262726E+00
          2   -1    0    0  501    0  0.00000000000E+00  0.00000000000E+00  0.23326350574E+03  0.23326350574E+03  0.00000000000E+00 0. -1.
         -2   -1    0    0    0  501 -0.00000000000E+00 -0.00000000000E+00 -0.69285311787E+02  0.69285311787E+02  0.00000000000E+00 0.  1.
         25    2    1    2    0    0  0.10446151225E+02  0.63258130984E+02  0.75841300425E+02  0.15971942947E+03  0.12509068746E+03 0.  0.
          5    1    3    3  502    0 -0.56665287357E+02  0.35166885443E+02  0.27437785103E+02  0.72235511173E+02  0.41800000000E+01 0.  1.
         -5    1    3    3    0  502  0.67111438582E+02  0.28091245541E+02  0.48403515322E+02  0.87483918294E+02  0.41800000000E+01 0.  1.
        -11    1    1    2    0    0 -0.28000856254E+02 -0.36831622818E+02 -0.29646454454E+01  0.46361681516E+02  0.00000000000E+00 0.  1.
         11    1    1    2    0    0  0.17554705029E+02 -0.26426508166E+02  0.91101538976E+02  0.96467706546E+02  0.00000000000E+00 0. -1.
</event>
<event>
 6    1  0.2943257E-009  0.1027702E+03  0.7561462E-02  0.1274576E+00
         -1   -1    0    0    0  501 -0.00000000000E+00  0.00000000000E+00  0.22883893112E+02  0.22883893112E+02  0.00000000000E+00 0.  1.
          1   -1    0    0  501    0  0.00000000000E+00 -0.00000000000E+00 -0.76448193565E+03  0.76448193565E+03  0.00000000000E+00 0. -1.
          5    1    1    2  502    0  0.15572844218E+02 -0.36516137378E+02 -0.22373033272E+02  0.45759881817E+02  0.41800000000E+01 0. -1.
         -5    1    1    2    0  502 -0.30218114641E+02 -0.34929167099E+02 -0.36179089070E+03  0.36475101393E+03  0.41800000000E+01 0. -1.
        -11    1    1    2    0    0  0.34927697223E+02 -0.91770546572E+01 -0.11767482722E+03  0.12309154044E+03  0.00000000000E+00 0.  1.
         11    1    1    2    0    0 -0.20282426800E+02  0.80622359134E+02 -0.23975929134E+03  0.25376339258E+03  0.00000000000E+00 0. -1.
</event>
<event>
 7    1  0.2943257E-009  0.1430822E+03  0.7561462E-02  0.1209241E+00
          2   -1    0    0  501    0  0.00000000000E+00  0.00000000000E+00  0.72650430932E+03  0.72650430932E+03  0.00000000000E+00 0.  1.
         -2   -1    0    0    0  501 -0.00000000000E+00 -0.00000000000E+00 -0.53802393186E+02  0.53802393186E+02  0.00000000000E+00 0. -1.
         25    2    1    2    0    0  0.13888120442E+03  0.16324872340E+02  0.17958465615E+03  0.25971624558E+03  0.12508952431E+03 0.  0.
          5    1    3    3  502    0  0.14032419933E+03  0.13934560370E+02  0.19659684152E+03  0.24197694805E+03  0.41800000000E+01 0. -1.
         -5    1    3    3    0  502 -0.14429949138E+01  0.23903119692E+01 -0.17012185370E+02  0.17739297526E+02  0.41800000000E+01 0. -1.
        -11    1    1    2    0    0 -0.11962722038E+03 -0.16802311814E+02  0.48477822929E+03  0.49960276334E+03  0.00000000000E+00 0.  1.
         11    1    1    2    0    0 -0.19253984032E+02  0.47743947407E+00  0.83390306892E+01  0.20987693594E+02  0.00000000000E+00 0. -1.
</event>
<event>
 7    1  0.2943257E-009  0.1692296E+03  0.7561462E-02  0.1178654E+00
         -1   -1    0    0    0  501 -0.00000000000E+00  0.00000000000E+00  0.25050836424E+03  0.25050836424E+03  0.00000000000E+00 0.  1.
          1   -1    0    0  501    0  0.00000000000E+00 -0.00000000000E+00 -0.15473354448E+03  0.15473354448E+03  0.00000000000E+00 0. -1.
         25    2    1    2    0    0 -0.10743317288E+03  0.96891780386E+02  0.12815756862E+03  0.23022239309E+03  0.12509230250E+03 0.  0.
          5    1    3    3  502    0 -0.89548232880E+02  0.10599216247E+02  0.10605407443E+03  0.13927012781E+03  0.41800000000E+01 0. -1.
         -5    1    3    3    0  502 -0.17884939996E+02  0.86292564139E+02  0.22103494192E+02  0.90952265281E+02  0.41800000000E+01 0. -1.
        -11    1    1    2    0    0  0.16812753600E+02 -0.59675526630E+02 -0.44489263376E+02  0.76309447108E+02  0.00000000000E+00 0. -1.
         11    1    1    2    0    0  0.90620419276E+02 -0.37216253755E+02  0.12106514520E+02  0.98710068519E+02  0.00000000000E+00 0.  1.
</event>
<event>
 7    1  0.2943257E-009  0.1548429E+03  0.7561462E-02  0.1194645E+00
         -1   -1    0    0    0  501 -0.00000000000E+00  0.00000000000E+00  0.52336758154E+02  0.52336758154E+02  0.00000000000E+00 0.  1.
          1   -1    0    0  501    0  0.00000000000E+00 -0.00000000000E+00 -0.52336412827E+03  0.52336412827E+03  0.00000000000E+00 0. -1.
         25    2    1    2    0    0  0.10599943323E+03 -0.64488990240E+02 -0.24916960716E+03  0.30516734834E+03  0.12508759993E+03 0.  0.
          5    1    3    3  502    0 -0.28763931050E+02 -0.96210980571E+01 -0.42482248714E+02  0.52365476347E+02  0.41800000000E+01 0.  1.
         -5    1    3    3    0  502  0.13476336428E+03 -0.54867892183E+02 -0.20668735844E+03  0.25280187200E+03  0.41800000000E+01 0.  1.
        -11    1    1    2    0    0 -0.79411612208E+02  0.70561470513E+02 -0.21862783943E+03  0.24307047835E+03  0.00000000000E+00 0. -1.
         11    1    1    2    0    0 -0.26587821021E+02 -0.60724802729E+01 -0.32299235282E+01  0.27463059722E+02  0.00000000000E+00 0.  1.
</event>
<event>
 7    1  0.2943257E-009  0.6930544E+02  0.7561462E-02  0.1362471E+00
          2   -1    0    0  501    0  0.00000000000E+00  0.00000000000E+00  0.43124525997E+03  0.43124525997E+03  0.00000000000E+00 0. -1.
         -2   -1    0    0    0  501 -0.00000000000E+00 -0.00000000000E+00 -0.30360498824E+02  0.30360498824E+02  0.00000000000E+00 0.  1.
         25    2    1    2    0    0 -0.30920524382E+02  0.50250937954E+01  0.19016615137E+03  0.22976507701E+03  0.12508994800E+03 0.  0.
          5    1    3    3  502    0 -0.47619131729E+02 -0.90238811521E+00  0.10208000579E+02  0.48888359420E+02  0.41800000000E+01 0. -1.
         -5    1    3    3    0  502  0.16698607346E+02  0.59274819106E+01  0.17995815079E+03  0.18087671759E+03  0.41800000000E+01 0. -1.
        -11    1    1    2    0    0  0.16200876486E+02 -0.35350081383E+02  0.18604864131E+03  0.19006891799E+03  0.00000000000E+00 0. -1.
         11    1    1    2    0    0  0.14719647897E+02  0.30324987588E+02  0.24669968465E+02  0.41771763794E+02  0.00000000000E+00 0.  1.
</event>
<event>
 7    1  0.2943257E-009  0.8049481E+02  0.7561462E-02  0.1327653E+00
         -3   -1    0    0    0  501 -0.00000000000E+00  0.00000000000E+00  0.47353498976E+03  0.47353498976E+03  0.00000000000E+00 0.  1.
          3   -1    0    0  501    0  0.00000000000E+00 -0.00000000000E+00 -0.23333543793E+02  0.23333543793E+02  0.00000000000E+00 0. -1.
         25    2    1    2    0    0  0.51076618285E+01 -0.43203234729E+02  0.28562825829E+03  0.31481669635E+03  0.12503376609E+03 0.  0.
          5    1    3    3  502    0  0.97291114409E+01  0.19518095827E+02 -0.11349407342E+00  0.22205786522E+02  0.41800000000E+01 0.  1.
         -5    1    3    3    0  502 -0.46214496124E+01 -0.62721330556E+02  0.28574175237E+03  0.29261090983E+03  0.41800000000E+01 0.  1.
        -11    1    1    2    0    0 -0.24916178736E+02 -0.33702463678E+01  0.36318976039E+02  0.44172871130E+02  0.00000000000E+00 0.  1.
         11    1    1    2    0    0  0.19808516908E+02  0.46573481097E+02  0.12825421163E+03  0.13787896607E+03  0.00000000000E+00 0. -1.
</event>
<event>
 7    1  0.2943257E-009  0.7417310E+02  0.7561462E-02  0.1346451E+00
          1   -1    0    0  501    0  0.00000000000E+00  0.00000000000E+00  0.25913872062E+03  0.25913872062E+03  0.00000000000E+00 0. -1.
         -1   -1    0    0    0  501 -0.00000000000E+00 -0.00000000000E+00 -0.48283653008E+02  0.48283653008E+02  0.00000000000E+00 0.  1.
         25    2    1    2    0    0 -0.16262858703E+02 -0.10714411961E+02  0.88445525191E+02  0.15444337782E+03  0.12510342454E+03 0.  0.
          5    1    3    3  502    0 -0.33699955276E+02 -0.23260634078E+02 -0.18611057946E+02  0.45172867533E+02  0.41800000000E+01 0.  1.
         -5    1    3    3    0  502  0.17437096573E+02  0.12546222117E+02  0.10705658314E+03  0.10927051029E+03  0.41800000000E+01 0.  1.
        -11    1    1    2    0    0  0.36227470357E+02  0.37337086545E+02  0.45250262578E+02  0.68949792628E+02  0.00000000000E+00 0. -1.
         11    1    1    2    0    0 -0.19964611654E+02 -0.26622674584E+02  0.77159279846E+02  0.84029203179E+02  0.00000000000E+00 0.  1.
</event>
<event>
 7    1  0.2943257E-009  0.9782307E+02  0.7561462E-02  0.1284941E+00
         -1   -1    0    0    0  501 -0.00000000000E+00  0.00000000000E+00  0.17617957440E+02  0.17617957440E+02  0.00000000000E+00 0.  1.
          1   -1    0    0  501    0  0.00000000000E+00 -0.00000000000E+00 -0.11434601143E+04  0.11434601143E+04  0.00000000000E+00 0. -1.
         25    2    1    2    0    0 -0.45583164790E+02 -0.33992093189E+02 -0.91207348362E+03  0.92236621743E+03  0.12509241475E+03 0.  0.
          5    1    3    3  502    0  0.16525335118E+02  0.36177056774E+02 -0.18543417885E+03  0.18969758360E+03  0.41800000000E+01 0. -1.
         -5    1    3    3    0  502 -0.62108499908E+02 -0.70169149963E+02 -0.72663930477E+03  0.73266863383E+03  0.41800000000E+01 0. -1.
        -11    1    1    2    0    0  0.35410538309E+02  0.11605527168E+02 -0.21065564035E+03  0.21392613982E+03  0.00000000000E+00 0. -1.
         11    1    1    2    0    0  0.10172626481E+02  0.22386566020E+02 -0.31130328565E+01  0.24785714460E+02  0.00000000000E+00 0.  1.
</event>
<event>
 7    1  0.2943257E-009  0.1160735E+03  0.7561462E-02  0.1249719E+00
          2   -1    0    0  501    0  0.00000000000E+00  0.00000000000E+00  0.30096886074E+03  0.30096886074E+03  0.00000000000E+00 0. -1.
         -2   -1    0    0    0  501 -0.00000000000E+00 -0.00000000000E+00 -0.68970545953E+02  0.68970545953E+02  0.00000000000E+00 0.  1.
         25    2    1    2    0    0 -0.45205948691E+02  0.33611398575E+02  0.22580831797E+03  0.26421579102E+03  0.12508910364E+03 0.  0.
          5    1    3    3  502    0  0.22372135508E+02  0.55047656710E+02  0.63586339451E+02  0.87128938484E+02  0.41800000000E+01 0. -1.
         -5    1    3    3    0  502 -0.67578084199E+02 -0.21436258135E+02  0.16222197852E+03  0.17708685254E+03  0.41800000000E+01 0. -1.
        -11    1    1    2    0    0  0.39308990147E+02  0.22397334907E+02  0.17086245977E+02  0.48360904860E+02  0.00000000000E+00 0.  1.
         11    1    1    2    0    0  0.58969585446E+01 -0.56008733482E+02 -0.10896249158E+02  0.57362710815E+02  0.00000000000E+00 0. -1.
</event>
<event>
 7    1  0.2943257E-009  0.9898304E+02  0.7561462E-02  0.1282449E+00
         -2   -1    0    0    0  501 -0.00000000000E+00  0.00000000000E+00  0.29825298640E+03  0.29825298640E+03  0.00000000000E+00 0.  1.
          2   -1    0    0  501    0  0.00000000000E+00 -0.00000000000E+00 -0.81613546501E+02  0.81613546501E+02  0.00000000000E+00 0. -1.
         25    2    1    2    0    0  0.18591322600E+02  0.41866288540E+01  0.25063499263E+03  0.28076592322E+03  0.12509372076E+03 0.  0.
          5    1    3    3  502    0 -0.78326196592E+01  0.61097811101E+02  0.99888725448E+02  0.11742879683E+03  0.41800000000E+01 0. -1.
         -5    1    3    3    0  502  0.26423942259E+02 -0.56911182247E+02  0.15074626718E+03  0.16333712640E+03  0.41800000000E+01 0. -1.
        -11    1    1    2    0    0 -0.45247347415E+02  0.40845963248E+01 -0.49487902988E+02  0.67179304234E+02  0.00000000000E+00 0. -1.
         11    1    1    2    0    0  0.26656024815E+02 -0.82712251788E+01  0.15492350252E+02  0.31921305443E+02  0.00000000000E+00 0.  1.
</event>
<event>
 7    1  0.2943257E-009  0.1488215E+03  0.7561462E-02  0.1201929E+00
          2   -1    0    0  501    0  0.00000000000E+00  0.00000000000E+00  0.22412895953E+04  0.22412895953E+04  0.00000000000E+00 0. -1.
         -2   -1    0    0    0  501 -0.00000000000E+00 -0.00000000000E+00 -0.15313852399E+02  0.15313852399E+02  0.00000000000E+00 0.  1.
         25    2    1    2    0    0  0.12315397223E+03  0.63230314181E+02  0.15320216134E+04  0.15433412500E+04  0.12508803548E+03 0.  0.
          5    1    3    3  502    0  0.46950637079E+01  0.81801081358E+01  0.77860066378E+03  0.77866900788E+03  0.41800000000E+01 0.  1.
         -5    1    3    3    0  502  0.11845890852E+03  0.55050206046E+02  0.75342094959E+03  0.76467224212E+03  0.41800000000E+01 0.  1.
        -11    1    1    2    0    0 -0.44208357369E+02 -0.63880310041E+02  0.45553861869E+03  0.46211525185E+03  0.00000000000E+00 0. -1.
         11    1    1    2    0    0 -0.78945614859E+02  0.64999585985E+00  0.23841551088E+03  0.25114694589E+03  0.00000000000E+00 0.  1.
</event>
<event>
 6    1  0.2943257E-009  0.8827530E+02  0.7561462E-02  0.1307083E+00
         -2   -1    0    0    0  501 -0.00000000000E+00  0.00000000000E+00  0.61100715778E+03  0.61100715778E+03  0.00000000000E+00 0. -1.
          2   -1    0    0  501    0  0.00000000000E+00 -0.00000000000E+00 -0.19104548731E+02  0.19104548731E+02  0.00000000000E+00 0.  1.
          5    1    1    2  502    0 -0.19390787139E+02  0.15402574526E+02  0.21589089386E+03  0.21734671007E+03  0.41800000000E+01 0.  1.
         -5    1    1    2    0  502  0.53561708617E+02 -0.53058181855E+02  0.93435113780E+02  0.12013167850E+03  0.41800000000E+01 0.  1.
        -11    1    1    2    0    0  0.14942438296E+02  0.16554843449E+01  0.49442263712E+02  0.51677408329E+02  0.00000000000E+00 0.  1.
         11    1    1    2    0    0 -0.49113359773E+02  0.36000122985E+02  0.23313433770E+03  0.24095590962E+03  0.00000000000E+00 0. -1.
</event>
<event>
 7    1  0.2943257E-009  0.1054185E+03  0.7561462E-02  0.1269297E+00
         -2   -1    0    0    0  501 -0.00000000000E+00  0.00000000000E+00  0.37058347612E+02  0.37058347612E+02  0.00000000000E+00 0.  1.
          2   -1    0    0  501    0  0.00000000000E+00 -0.00000000000E+00 -0.51046389346E+03  0.51046389346E+03  0.00000000000E+00 0. -1.
         25    2    1    2    0    0  0.62557882812E+01 -0.14565167729E+02 -0.42010636028E+03  0.43861784045E+03  0.12507988254E+03 0.  0.
          5    1    3    3  502    0  0.20721536140E+02  0.48350163415E+02 -0.27088386192E+03  0.27597583121E+03  0.41800000000E+01 0.  1.
         -5    1    3    3    0  502 -0.14465747858E+02 -0.62915331144E+02 -0.14922249836E+03  0.16264200924E+03  0.41800000000E+01 0.  1.
        -11    1    1    2    0    0 -0.48505336260E+02 -0.53612059054E+00 -0.17724506543E+02  0.51645069496E+02  0.00000000000E+00 0.  1.
         11    1    1    2    0    0  0.42249547979E+02  0.15101288319E+02 -0.35574679027E+02  0.57259331128E+02  0.00000000000E+00 0. -1.
</event>
<event>
 7    1  0.2943257E-009  0.4813831E+02  0.7561462E-02  0.1455650E+00
         -2   -1    0    0    0  501 -0.00000000000E+00  0.00000000000E+00  0.65371583103E+01  0.65371583103E+01  0.00000000000E+00 0.  1.
          2   -1    0    0  501    0  0.00000000000E+00 -0.00000000000E+00 -0.10550731791E+04  0.10550731791E+04  0.00000000000E+00 0. -1.
         25    2    1    2    0    0 -0.30385075064E+02 -0.10013775416E+01 -0.92229737383E+03  0.93123833331E+03  0.12509249426E+03 0.  0.
          5    1    3    3  502    0 -0.33305140331E+02 -0.23322234036E+02 -0.89356410177E+03  0.89449842668E+03  0.41800000000E+01 0. -1.
         -5    1    3    3    0  502  0.29200652669E+01  0.22320856494E+02 -0.28733272058E+02  0.36739906627E+02  0.41800000000E+01 0. -1.
        -11    1    1    2    0    0  0.18759641342E+02 -0.50136608243E+01 -0.71469285565E+02  0.74060243838E+02  0.00000000000E+00 0.  1.
         11    1    1    2    0    0  0.11625433722E+02  0.60150383659E+01 -0.54769361438E+02  0.56311760300E+02  0.00000000000E+00 0. -1.
</event>
<event>
 7    1  0.3422620E-009  0.1386754E+03  0.7561462E-02  0.1215123E+00
          2   -1    0    0  501    0  0.00000000000E+00  0.00000000000E+00  0.67856794032E+03  0.67856794032E+03  0.00000000000E+00 0. -1.
         -2   -1    0    0    0  501 -0.00000000000E+00 -0.00000000000E+00 -0.40156612209E+02  0.40156612209E+02  0.00000000000E+00 0.  1.
         25    2    1    2    0    0 -0.68107591685E+02  0.96723128041E+02  0.25929831671E+03  0.31125071109E+03  0.12508949021E+03 0.  0.
          5    1    3    3  502    0 -0.31314710510E+02 -0.68587960220E+01  0.15943822903E+03  0.16268274479E+03  0.41800000000E+01 0.  1.
         -5    1    3    3    0  502 -0.36792881175E+02  0.10358192406E+03  0.99860087682E+02  0.14856796630E+03  0.41800000000E+01 0.  1.
        -11    1    1    2    0    0  0.39762609312E+01 -0.61932696596E+02  0.90177687226E+02  0.10946910446E+03  0.00000000000E+00 0.  1.
         11    1    1    2    0    0  0.64131330754E+02 -0.34790431445E+02  0.28893532418E+03  0.29800473698E+03  0.00000000000E+00 0. -1.
</event>
<event>
 7    1  0.2943257E-009  0.1688000E+03  0.7561462E-02  0.1179105E+00
          2   -1    0    0  501    0  0.00000000000E+00  0.00000000000E+00  0.33059657833E+02  0.33059657833E+02  0.00000000000E+00 0. -1.
         -2   -1    0    0    0  501 -0.00000000000E+00 -0.00000000000E+00 -0.94169468808E+03  0.94169468808E+03  0.00000000000E+00 0.  1.
         25    2    1    2    0    0  0.11977023800E+03  0.65019783614E+02 -0.55734335014E+03  0.58724029796E+03  0.12508827054E+03 0.  0.
          5    1    3    3  502    0 -0.19294985882E+01  0.56622622824E+02 -0.11356442371E+03  0.12698108171E+03  0.41800000000E+01 0.  1.
         -5    1    3    3    0  502  0.12169973659E+03  0.83971607899E+01 -0.44377892643E+03  0.46025921625E+03  0.41800000000E+01 0.  1.
        -11    1    1    2    0    0  0.12024725336E+01 -0.33762786200E+02 -0.41752550840E+02  0.53708911494E+02  0.00000000000E+00 0. -1.
         11    1    1    2    0    0 -0.12097271053E+03 -0.31256997413E+02 -0.30953912926E+03  0.33380513646E+03  0.00000000000E+00 0.  1.
</event>
<event>
 7    1  0.2943257E-009  0.1609619E+03  0.7561462E-02  0.1187615E+00
         -2   -1    0    0    0  501 -0.00000000000E+00  0.00000000000E+00  0.36156297658E+02  0.36156297658E+02  0.00000000000E+00 0.  1.
          2   -1    0    0  501    0  0.00000000000E+00 -0.00000000000E+00 -0.83621029660E+03  0.83621029660E+03  0.00000000000E+00 0. -1.
         25    2    1    2    0    0  0.13200671018E+03 -0.51633827059E+01 -0.48463550396E+03  0.51765987484E+03  0.12509093601E+03 0.  0.
          5    1    3    3  502    0 -0.20111589257E+02 -0.10844227685E+02 -0.12455644518E+03  0.12670380315E+03  0.41800000000E+01 0. -1.
         -5    1    3    3    0  502  0.15211829943E+03  0.56808449794E+01 -0.36007905878E+03  0.39095607169E+03  0.41800000000E+01 0. -1.
        -11    1    1    2    0    0 -0.11655731493E+03  0.27020158644E+02 -0.17649300603E+03  0.21322635347E+03  0.00000000000E+00 0.  1.
         11    1    1    2    0    0 -0.15449395251E+02 -0.21856775938E+02 -0.13892548895E+03  0.14148036594E+03  0.00000000000E+00 0. -1.
</event>
<event>
 7    1  0.2943257E-009  0.1109588E+03  0.7561462E-02  0.1258805E+00
         -1   -1    0    0    0  501 -0.00000000000E+00  0.00000000000E+00  0.29114211100E+03  0.29114211100E+03  0.00000000000E+00 0.  1.
          1   -1    0    0  501    0  0.00000000000E+00 -0.00000000000E+00 -0.45714030575E+02  0.45714030575E+02  0.00000000000E+00 0. -1.
         25    2    1    2    0    0 -0.29146620962E+02  0.17523700351E+02  0.15636757921E+03  0.20311503661E+03  0.12509313603E+03 0.  0.
          5    1    3    3  502    0  0.36588198639E+02  0.41820248701E+02  0.93652739569E+02  0.10897677509E+03  0.41800000000E+01 0.  1.
         -5    1    3    3    0  502 -0.65734819601E+02 -0.24296548350E+02  0.62714839643E+02  0.94138261515E+02  0.41800000000E+01 0.  1.
        -11    1    1    2    0    0 -0.32374219192E+02 -0.10668697804E+02  0.50109885087E+02  0.60604552343E+02  0.00000000000E+00 0.  1.
         11    1    1    2    0    0  0.61520840154E+02 -0.68550025465E+01  0.38950616127E+02  0.73136552625E+02  0.00000000000E+00 0. -1.
</event>
<event>
 7    1  0.2943257E-009  0.1871293E+03  0.7561462E-02  0.1161076E+00
          1   -1    0    0  501    0  0.00000000000E+00  0.00000000000E+00  0.65770680551E+03  0.65770680551E+03  0.00000000000E+00 0. -1.
         -1   -1    0    0    0  501 -0.00000000000E+00 -0.00000000000E+00 -0.71863185888E+02  0.71863185888E+02  0.00000000000E+00 0.  1.
         25    2    1    2    0    0  0.14035081311E+03 -0.12021450826E+03  0.24526450984E+03  0.33159169591E+03  0.12509394180E+03 0.  0.
          5    1    3    3  502    0  0.98951801493E+02 -0.69956683901E+02  0.23648118928E+03  0.26575594429E+03  0.41800000000E+01 0. -1.
         -5    1    3    3    0  502  0.41399011615E+02 -0.50257824361E+02  0.87833205585E+01  0.65835751626E+02  0.41800000000E+01 0. -1.
        -11    1    1    2    0    0 -0.10145327557E+03  0.10495144965E+03  0.17842895595E+03  0.23053083574E+03  0.00000000000E+00 0.  1.
         11    1    1    2    0    0 -0.38897537541E+02  0.15263058608E+02  0.16215015384E+03  0.16744745975E+03  0.00000000000E+00 0. -1.
</event>
<event>
 7    1  0.2943257E-009  0.1116751E+03  0.7561462E-02  0.1257499E+00
          1   -1    0    0  501    0  0.00000000000E+00  0.00000000000E+00  0.72320302753E+02  0.72320302753E+02  0.00000000000E+00 0. -1.
         -1   -1    0    0    0  501 -0.00000000000E+00 -0.00000000000E+00 -0.25057494542E+03  0.25057494542E+03  0.00000000000E+00 0.  1.
         25    2    1    2    0    0 -0.20083623274E+02 -0.57602038391E+02 -0.11952470506E+03  0.18345129120E+03  0.12508746690E+03 0.  0.
          5    1    3    3  502    0  0.50213852548E+02 -0.44675711703E+02 -0.52662767900E+02  0.85487950770E+02  0.41800000000E+01 0. -1.
         -5    1    3    3    0  502 -0.70297475822E+02 -0.12926326687E+02 -0.66861937158E+02  0.97963340434E+02  0.41800000000E+01 0. -1.
        -11    1    1    2    0    0 -0.19616034592E+02  0.30781620714E+02 -0.79305649076E+02  0.87302250614E+02  0.00000000000E+00 0.  1.
         11    1    1    2    0    0  0.39699657866E+02  0.26820417676E+02  0.20575711469E+02  0.52141706354E+02  0.00000000000E+00 0. -1.
</event>
<event>
 7    1  0.2943257E-009  0.1536734E+03  0.7561462E-02  0.1196030E+00
          2   -1    0    0  501    0  0.00000000000E+00  0.00000000000E+00  0.15069813755E+03  0.15069813755E+03  0.00000000000E+00 0. -1.
         -2   -1    0    0    0  501 -0.00000000000E+00 -0.00000000000E+00 -0.17526749233E+03  0.17526749233E+03  0.00000000000E+00 0.  1.
         25    2    1    2    0    0  0.30282870404E+02  0.11548472412E+03  0.37905051026E+01  0.17296074524E+03  0.12508907914E+03 0.  0.
          5    1    3    3  502    0 -0.36433923740E+02  0.22095320850E+02 -0.31112924481E+02  0.52925612630E+02  0.41800000000E+01 0. -1.
         -5    1    3    3    0  502  0.66716794144E+02  0.93389403273E+02  0.34903429584E+02  0.12003513261E+03  0.41800000000E+01 0. -1.
        -11    1    1    2    0    0  0.12426235280E+02 -0.10496483080E+03 -0.26553488326E+02  0.10898217639E+03  0.00000000000E+00 0.  1.
         11    1    1    2    0    0 -0.42709105684E+02 -0.10519893324E+02 -0.18063715527E+01  0.44022708254E+02  0.00000000000E+00 0. -1.
</event>
<event>
 7    1  0.2943257E-009  0.1144927E+03  0.7561462E-02  0.1252469E+00
          2   -1    0    0  501    0  0.00000000000E+00  0.00000000000E+00  0.50950770959E+03  0.50950770959E+03  0.00000000000E+00 0. -1.
         -2   -1    0    0    0  501 -0.00000000000E+00 -0.00000000000E+00 -0.40579192236E+02  0.40579192236E+02  0.00000000000E+00 0.  1.
         25    2    1    2    0    0  0.34489726432E+02  0.32400564816E+02  0.40918697725E+03  0.43049914541E+03  0.12512471385E+03 0.  0.
          5    1    3    3  502    0  0.78408762673E+02  0.20536160332E+01  0.20893951452E+03  0.22321591460E+03  0.41800000000E+01 0. -1.
         -5    1    3    3    0  502 -0.43919036241E+02  0.30346948783E+02  0.20024746273E+03  0.20728323081E+03  0.41800000000E+01 0. -1.
        -11    1    1    2    0    0 -0.29032923882E+02  0.25556018859E+02  0.38205942301E+01  0.38866665786E+02  0.00000000000E+00 0.  1.
         11    1    1    2    0    0 -0.54568025502E+01 -0.57956583675E+02  0.55920945875E+02  0.80721090632E+02  0.00000000000E+00 0. -1.
</event>
<event>
 7    1  0.2943257E-009  0.1376584E+03  0.7561462E-02  0.1216515E+00
          2   -1    0    0  501    0  0.00000000000E+00  0.00000000000E+00  0.26349676517E+03  0.26349676517E+03  0.00000000000E+00 0. -1.
         -2   -1    0    0    0  501 -0.00000000000E+00 -0.00000000000E+00 -0.11524665031E+03  0.11524665031E+03  0.00000000000E+00 0.  1.
         25    2    1    2    0    0  0.23750691027E+02  0.97568228024E+02  0.17781250395E+03  0.23947582113E+03  0.12509087857E+03 0.  0.
          5    1    3    3  502    0  0.72899105279E+02  0.66307862804E+02  0.13440443867E+03  0.16671244031E+03  0.41800000000E+01 0.  1.
         -5    1    3    3    0  502 -0.49148414251E+02  0.31260365220E+02  0.43408065279E+02  0.72763380820E+02  0.41800000000E+01 0.  1.
        -11    1    1    2    0    0  0.12702263858E+02  0.14371638733E+01  0.19179689528E+02  0.23049369569E+02  0.00000000000E+00 0. -1.
         11    1    1    2    0    0 -0.36452954885E+02 -0.99005391897E+02 -0.48742078615E+02  0.11621822479E+03  0.00000000000E+00 0.  1.
</event>
<event>
 7    1  0.2943257E-009  0.1005600E+03  0.7561462E-02  0.1279123E+00
         -2   -1    0    0    0  501 -0.00000000000E+00  0.00000000000E+00  0.33651710081E+02  0.33651710081E+02  0.00000000000E+00 0.  1.
          2   -1    0    0  501    0  0.00000000000E+00 -0.00000000000E+00 -0.46646037289E+03  0.46646037289E+03  0.00000000000E+00 0. -1.
         25    2    1    2    0    0  0.48168827583E+02 -0.35953755740E+02 -0.24596287335E+03  0.28241214829E+03  0.12508388359E+03 0.  0.
          5    1    3    3  502    0  0.86823380776E+02 -0.35984849388E+02 -0.20696696049E+03  0.22734556070E+03  0.41800000000E+01 0.  1.
         -5    1    3    3    0  502 -0.38654553193E+02  0.31093647774E-01 -0.38995912861E+02  0.55066587594E+02  0.41800000000E+01 0.  1.
        -11    1    1    2    0    0 -0.33093645597E+01  0.20424053095E+02  0.39699211640E+01  0.21067845468E+02  0.00000000000E+00 0.  1.
         11    1    1    2    0    0 -0.44859463023E+02  0.15529702645E+02 -0.19081571062E+03  0.19663208921E+03  0.00000000000E+00 0. -1.
</event>
<event>
 7    1  0.2943257E-009  0.3224844E+03  0.7561462E-02  0.1074512E+00
         -1   -1    0    0    0  501 -0.00000000000E+00  0.00000000000E+00  0.46703331239E+03  0.46703331239E+03  0.00000000000E+00 0.  1.
          1   -1    0    0  501    0  0.00000000000E+00 -0.00000000000E+00 -0.26824948584E+03  0.26824948584E+03  0.00000000000E+00 0. -1.
         25    2    1    2    0    0  0.18520992843E+03  0.25386472833E+03 -0.24195407709E+02  0.33908900278E+03  0.12508363669E+03 0.  0.
          5    1    3    3  502    0  0.66522902376E+02  0.15606880729E+03 -0.61983696640E+02  0.18067158105E+03  0.41800000000E+01 0.  1.
         -5    1    3    3    0  502  0.11868702606E+03  0.97795921046E+02  0.37788288931E+02  0.15841742173E+03  0.41800000000E+01 0.  1.
        -11    1    1    2    0    0 -0.44688655253E+02 -0.20854651105E+02  0.64880804569E+02  0.81495467251E+02  0.00000000000E+00 0.  1.
         11    1    1    2    0    0 -0.14052127318E+03 -0.23301007723E+03  0.15809842969E+03  0.31469832821E+03  0.00000000000E+00 0. -1.
</event>
<event>
 7    1  0.3121590E-009  0.7543721E+02  0.7561462E-02  0.1342522E+00
          3   -1    0    0  501    0  0.00000000000E+00  0.00000000000E+00  0.40787880546E+03  0.40787880546E+03  0.00000000000E+00 0. -1.
         -3   -1    0    0    0  501 -0.00000000000E+00 -0.00000000000E+00 -0.43734199092E+02  0.43734199092E+02  0.00000000000E+00 0.  1.
         25    2    1    2    0    0  0.53845870105E+02 -0.10497342309E+02  0.29299782869E+03  0.32327205699E+03  0.12509006073E+03 0.  0.
          5    1    3    3  502    0  0.30205424616E+02 -0.17325462788E+02  0.29605601497E+03  0.29812610711E+03  0.41800000000E+01 0. -1.
         -5    1    3    3    0  502  0.23640445489E+02  0.68281204799E+01 -0.30581862866E+01  0.25145949884E+02  0.41800000000E+01 0. -1.
        -11    1    1    2    0    0  0.12032382123E+02  0.20932197941E+02 -0.74403098197E+01  0.25264467943E+02  0.00000000000E+00 0.  1.
         11    1    1    2    0    0 -0.65878252228E+02 -0.10434855632E+02  0.78587087500E+02  0.10307647962E+03  0.00000000000E+00 0. -1.
</event>
<event>
 7    1  0.2943257E-009  0.2173308E+03  0.7561462E-02  0.1135889E+00
          2   -1    0    0  501    0  0.00000000000E+00  0.00000000000E+00  0.39586559321E+03  0.39586559321E+03  0.00000000000E+00 0. -1.
         -2   -1    0    0    0  501 -0.00000000000E+00 -0.00000000000E+00 -0.24681343733E+03  0.24681343733E+03  0.00000000000E+00 0.  1.
         25    2    1    2    0    0  0.49621108963E+02  0.20831285026E+03  0.28150120484E+03  0.37516142140E+03  0.12508663296E+03 0.  0.
          5    1    3    3  502    0 -0.49014895397E+01  0.34624921737E+02  0.14053485259E+03  0.14488073370E+03  0.41800000000E+01 0. -1.
         -5    1    3    3    0  502  0.54522598503E+02  0.17368792852E+03  0.14096635225E+03  0.23028068770E+03  0.41800000000E+01 0. -1.
        -11    1    1    2    0    0 -0.65561626082E+01 -0.10781075896E+03 -0.11326171275E+03  0.15650673656E+03  0.00000000000E+00 0.  1.
         11    1    1    2    0    0 -0.43064946355E+02 -0.10050209130E+03 -0.19187336213E+02  0.11101087258E+03  0.00000000000E+00 0. -1.
</event>
<event>
 7    1  0.2943257E-009  0.1355216E+03  0.7561462E-02  0.1219485E+00
          2   -1    0    0  501    0  0.00000000000E+00  0.00000000000E+00  0.49217124853E+03  0.49217124853E+03  0.00000000000E+00 0. -1.
         -2   -1    0    0    0  501 -0.00000000000E+00 -0.00000000000E+00 -0.39824139122E+02  0.39824139122E+02  0.00000000000E+00 0.  1.
         25    2    1    2    0    0 -0.65507779293E+00  0.87507460542E+02  0.26241996371E+03  0.30359244092E+03  0.12508456361E+03 0.  0.
          5    1    3    3  502    0 -0.38511100143E+02 -0.12054933025E+02  0.40128401198E+02  0.57063011024E+02  0.41800000000E+01 0. -1.
         -5    1    3    3    0  502  0.37856022350E+02  0.99562393567E+02  0.22229156251E+03  0.24652942990E+03  0.41800000000E+01 0. -1.
        -11    1    1    2    0    0 -0.43379048060E+02 -0.38614249508E+02  0.64703947038E+02  0.86944826401E+02  0.00000000000E+00 0.  1.
         11    1    1    2    0    0  0.44034125853E+02 -0.48893211034E+02  0.12522319866E+03  0.14145812033E+03  0.00000000000E+00 0. -1.
</event>
<event>
 7    1  0.2943257E-009  0.3145193E+03  0.7561462E-02  0.1078200E+00
          2   -1    0    0  501    0  0.00000000000E+00  0.00000000000E+00  0.86521147612E+02  0.86521147612E+02  0.00000000000E+00 0.  1.
         -2   -1    0    0    0  501 -0.00000000000E+00 -0.00000000000E+00 -0.12563004588E+04  0.12563004588E+04  0.00000000000E+00 0. -1.
         25    2    1    2    0    0 -0.45905123737E+02  0.30160182490E+03 -0.72960983235E+03  0.80065592155E+03  0.12509378918E+03 0.  0.
          5    1    3    3  502    0 -0.62815651163E+02  0.19251938808E+03 -0.34070435101E+03  0.39636655764E+03  0.41800000000E+01 0.  1.
         -5    1    3    3    0  502  0.16910527425E+02  0.10908243682E+03 -0.38890548133E+03  0.40428936391E+03  0.41800000000E+01 0.  1.
        -11    1    1    2    0    0 -0.20774080495E+02 -0.13473143229E+03 -0.20524417435E+03  0.24639255746E+03  0.00000000000E+00 0.  1.
         11    1    1    2    0    0  0.66679204232E+02 -0.16687039261E+03 -0.23492530454E+03  0.29577312745E+03  0.00000000000E+00 0. -1.
</event>
<event>
 7    1  0.2943257E-009  0.1113202E+03  0.7561462E-02  0.1258144E+00
          1   -1    0    0  501    0  0.00000000000E+00  0.00000000000E+00  0.54284455930E+02  0.54284455930E+02  0.00000000000E+00 0. -1.
         -1   -1    0    0    0  501 -0.00000000000E+00 -0.00000000000E+00 -0.30937163002E+03  0.30937163002E+03  0.00000000000E+00 0.  1.
         25    2    1    2    0    0 -0.28313709214E+02 -0.36973407213E+02 -0.68327905944E+02  0.14994952468E+03  0.12508980075E+03 0.  0.
          5    1    3    3  502    0  0.14753759379E+02  0.40373891490E+02 -0.33766646758E+02  0.54821376881E+02  0.41800000000E+01 0.  1.
         -5    1    3    3    0  502 -0.43067468592E+02 -0.77347298703E+02 -0.34561259187E+02  0.95128147801E+02  0.41800000000E+01 0.  1.
        -11    1    1    2    0    0  0.33581664780E+02  0.59157053749E+02 -0.82230194709E+02  0.10671968019E+03  0.00000000000E+00 0. -1.
         11    1    1    2    0    0 -0.52679555662E+01 -0.22183646536E+02 -0.10452907344E+03  0.10698688108E+03  0.00000000000E+00 0.  1.
</event>
<event>
 7    1  0.2943257E-009  0.1378491E+03  0.7561462E-02  0.1216253E+00
          2   -1    0    0  501    0  0.00000000000E+00  0.00000000000E+00  0.15948509282E+04  0.15948509282E+04  0.00000000000E+00 0.  1.
         -2   -1    0    0    0  501 -0.00000000000E+00 -0.00000000000E+00 -0.14359923597E+02  0.14359923597E+02  0.00000000000E+00 0. -1.
         25    2    1    2    0    0 -0.25165216785E+02 -0.81205713548E+02  0.11749961126E+04  0.11846899837E+04  0.12508731701E+03 0.  0.
          5    1    3    3  502    0 -0.75998568670E+02 -0.50360402707E+02  0.75071917143E+03  0.75624645411E+03  0.41800000000E+01 0. -1.
         -5    1    3    3    0  502  0.50833351885E+02 -0.30845310841E+02  0.42427694118E+03  0.42844352963E+03  0.41800000000E+01 0. -1.
        -11    1    1    2    0    0  0.27496354854E+02 -0.13123738545E+02  0.79261548698E+02  0.84915694342E+02  0.00000000000E+00 0.  1.
         11    1    1    2    0    0 -0.23311380697E+01  0.94329452093E+02  0.32623334331E+03  0.33960517373E+03  0.00000000000E+00 0. -1.
</event>
<event>
 7    1  0.2943257E-009  0.9494468E+02  0.7561462E-02  0.1291301E+00
         -1   -1    0    0    0  501 -0.00000000000E+00  0.00000000000E+00  0.90615533156E+02  0.90615533156E+02  0.00000000000E+00 0.  1.
          1   -1    0    0  501    0  0.00000000000E+00 -0.00000000000E+00 -0.20398841348E+03  0.20398841348E+03  0.00000000000E+00 0. -1.
         25    2    1    2    0    0  0.27995698414E+02  0.60532711881E+02 -0.11067248677E+03  0.17984418258E+03  0.12509021682E+03 0.  0.
          5    1    3    3  502    0  0.29800651560E+02 -0.13135013027E+02 -0.10001959796E+03  0.10527107759E+03  0.41800000000E+01 0.  1.
         -5    1    3    3    0  502 -0.18049531459E+01  0.73667724908E+02 -0.10652888811E+02  0.74573104997E+02  0.41800000000E+01 0.  1.
        -11    1    1    2    0    0 -0.32709001234E+02 -0.12551103131E+02  0.37984889163E+02  0.51674565855E+02  0.00000000000E+00 0.  1.
         11    1    1    2    0    0  0.47133028191E+01 -0.47981608749E+02 -0.40685282719E+02  0.63085198197E+02  0.00000000000E+00 0. -1.
</event>
<event>
 7    1  0.2943257E-009  0.1002725E+03  0.7561462E-02  0.1279724E+00
          1   -1    0    0  501    0  0.00000000000E+00  0.00000000000E+00  0.59249196401E+03  0.59249196401E+03  0.00000000000E+00 0. -1.
         -1   -1    0    0    0  501 -0.00000000000E+00 -0.00000000000E+00 -0.36537510388E+02  0.36537510388E+02  0.00000000000E+00 0.  1.
         25    2    1    2    0    0 -0.47421694467E+02  0.29758344027E+02  0.48390467720E+03  0.50293639660E+03  0.12508759434E+03 0.  0.
          5    1    3    3  502    0 -0.67629676149E+02 -0.29779053360E+02  0.25721468890E+03  0.26765170221E+03  0.41800000000E+01 0. -1.
         -5    1    3    3    0  502  0.20207981682E+02  0.59537397386E+02  0.22668998831E+03  0.23528469438E+03  0.41800000000E+01 0. -1.
        -11    1    1    2    0    0  0.38611144633E+02 -0.35945354345E+02  0.90487717031E+02  0.10474214015E+03  0.00000000000E+00 0. -1.
         11    1    1    2    0    0  0.88105498347E+01  0.61870103185E+01 -0.18437940608E+02  0.21350937660E+02  0.00000000000E+00 0.  1.
</event>
<event>
 7    1  0.5002642E-009  0.6975069E+02  0.7561462E-02  0.1360943E+00
          1   -1    0    0  501    0  0.00000000000E+00  0.00000000000E+00  0.29031922565E+03  0.29031922565E+03  0.00000000000E+00 0. -1.
         -1   -1    0    0    0  501 -0.00000000000E+00 -0.00000000000E+00 -0.53546023205E+02  0.53546023205E+02  0.00000000000E+00 0.  1.
         25    2    1    2    0    0 -0.53397157141E+02 -0.12092797730E+02  0.16882794293E+03  0.21713432131E+03  0.12508775731E+03 0.  0.
          5    1    3    3  502    0  0.11003881466E+02  0.10676493228E+02  0.14316666755E+03  0.14404596493E+03  0.41800000000E+01 0.  1.
         -5    1    3    3    0  502 -0.64401038606E+02 -0.22769290958E+02  0.25661275380E+02  0.73088356381E+02  0.41800000000E+01 0.  1.
        -11    1    1    2    0    0  0.28811091722E+02  0.30255053037E+01 -0.19843836020E+02  0.35114249480E+02  0.00000000000E+00 0.  1.
         11    1    1    2    0    0  0.24586065418E+02  0.90672924259E+01  0.87789095540E+02  0.91616678069E+02  0.00000000000E+00 0. -1.
</event>
<event>
 7    1  0.2943257E-009  0.9533997E+02  0.7561462E-02  0.1290412E+00
         -2   -1    0    0    0  501 -0.00000000000E+00  0.00000000000E+00  0.13118892850E+02  0.13118892850E+02  0.00000000000E+00 0.  1.
          2   -1    0    0  501    0  0.00000000000E+00 -0.00000000000E+00 -0.99602841585E+03  0.99602841585E+03  0.00000000000E+00 0. -1.
         25    2    1    2    0    0  0.10751946631E+02 -0.43857366865E+02 -0.75809560637E+03  0.76967173709E+03  0.12508621624E+03 0.  0.
          5    1    3    3  502    0 -0.42877372680E+02 -0.34603708494E+02 -0.59758968629E+03  0.60013897665E+03  0.41800000000E+01 0.  1.
         -5    1    3    3    0  502  0.53629319310E+02 -0.92536583713E+01 -0.16050592008E+03  0.16953276044E+03  0.41800000000E+01 0.  1.
        -11    1    1    2    0    0  0.26906970885E+02  0.62583423131E+01 -0.55490054111E+02  0.61986272964E+02  0.00000000000E+00 0.  1.
         11    1    1    2    0    0 -0.37658917516E+02  0.37599024552E+02 -0.16932386252E+03  0.17748929865E+03  0.00000000000E+00 0. -1.
</event>
<event>
 7    1  0.2943257E-009  0.1734088E+03  0.7561462E-02  0.1174339E+00
          1   -1    0    0  501    0  0.00000000000E+00  0.00000000000E+00  0.39837724396E+03  0.39837724396E+03  0.00000000000E+00 0. -1.
         -1   -1    0    0    0  501 -0.00000000000E+00 -0.00000000000E+00 -0.86031777020E+02  0.86031777020E+02  0.00000000000E+00 0.  1.
         25    2    1    2    0    0 -0.85593691194E+02  0.11455048908E+03  0.11982849438E+03  0.22462683153E+03  0.12510096264E+03 0.  0.
          5    1    3    3  502    0 -0.78386700332E+02  0.13312014074E+03  0.67800800088E+02  0.16875979247E+03  0.41800000000E+01 0.  1.
         -5    1    3    3    0  502 -0.72069908619E+01 -0.18569651660E+02  0.52027694291E+02  0.55867039060E+02  0.41800000000E+01 0.  1.
        -11    1    1    2    0    0  0.51750201084E+02  0.75315264350E+00  0.38883767717E+02  0.64734827898E+02  0.00000000000E+00 0.  1.
         11    1    1    2    0    0  0.33843490109E+02 -0.11530364173E+03  0.15363320484E+03  0.19504736155E+03  0.00000000000E+00 0. -1.
</event>
<event>
 7    1  0.2943257E-009  0.7289031E+02  0.7561462E-02  0.1350531E+00
          1   -1    0    0  501    0  0.00000000000E+00  0.00000000000E+00  0.93896201134E+03  0.93896201134E+03  0.00000000000E+00 0. -1.
         -1   -1    0    0    0  501 -0.00000000000E+00 -0.00000000000E+00 -0.17206782210E+02  0.17206782210E+02  0.00000000000E+00 0.  1.
         25    2    1    2    0    0  0.77414824130E+00 -0.40158923195E+02  0.31846004859E+03  0.34449681588E+03  0.12509162719E+03 0.  0.
          5    1    3    3  502    0 -0.31603811962E+01 -0.10187244208E+01  0.30134823158E+03  0.30139551239E+03  0.41800000000E+01 0.  1.
         -5    1    3    3    0  502  0.39345294375E+01 -0.39140198774E+02  0.17111817000E+02  0.43101303496E+02  0.41800000000E+01 0.  1.
        -11    1    1    2    0    0  0.14595894495E+02  0.67747623936E+02  0.41525879307E+03  0.42100195475E+03  0.00000000000E+00 0.  1.
         11    1    1    2    0    0 -0.15370042736E+02 -0.27588700741E+02  0.18803638748E+03  0.19067002291E+03  0.00000000000E+00 0. -1.
</event>
<event>
 7    1  0.2943257E-009  0.1575658E+03  0.7561462E-02  0.1191473E+00
          3   -1    0    0  501    0  0.00000000000E+00  0.00000000000E+00  0.75930781890E+03  0.75930781890E+03  0.00000000000E+00 0. -1.
         -3   -1    0    0    0  501 -0.00000000000E+00 -0.00000000000E+00 -0.70728337543E+02  0.70728337543E+02  0.00000000000E+00 0.  1.
         25    2    1    2    0    0 -0.42723017211E+02  0.12421492683E+03  0.63694117792E+03  0.66226623413E+03  0.12509155247E+03 0.  0.
          5    1    3    3  502    0 -0.76846460847E+02  0.11912902999E+03  0.44031694793E+03  0.46259441347E+03  0.41800000000E+01 0. -1.
         -5    1    3    3    0  502  0.34123443636E+02  0.50858968349E+01  0.19662422998E+03  0.19967182067E+03  0.41800000000E+01 0. -1.
        -11    1    1    2    0    0  0.45303064228E+02 -0.64709607741E+02 -0.12798985778E+02  0.80021965730E+02  0.00000000000E+00 0.  1.
         11    1    1    2    0    0 -0.25800470166E+01 -0.59505319086E+02  0.64437289217E+02  0.87747956579E+02  0.00000000000E+00 0. -1.
</event>
<event>
 7    1  0.2943257E-009  0.2519170E+03  0.7561462E-02  0.1112099E+00
         -1   -1    0    0    0  501 -0.00000000000E+00  0.00000000000E+00  0.80110628079E+02  0.80110628079E+02  0.00000000000E+00 0.  1.
          1   -1    0    0  501    0  0.00000000000E+00 -0.00000000000E+00 -0.83433028004E+03  0.83433028004E+03  0.00000000000E+00 0. -1.
         25    2    1    2    0    0 -0.19702391310E+03  0.12010270680E+03 -0.31380599667E+03  0.40910243578E+03  0.12509003518E+03 0.  0.
          5    1    3    3  502    0 -0.12379127439E+03  0.25771751487E+01 -0.14442143086E+03  0.19027859454E+03  0.41800000000E+01 0.  1.
         -5    1    3    3    0  502 -0.73232638703E+02  0.11752553165E+03 -0.16938456581E+03  0.21882384124E+03  0.41800000000E+01 0.  1.
        -11    1    1    2    0    0  0.75208640714E+02 -0.87348816023E+02 -0.26773874957E+03  0.29149647223E+03  0.00000000000E+00 0.  1.
         11    1    1    2    0    0  0.12181527238E+03 -0.32753890774E+02 -0.17267490572E+03  0.21384200011E+03  0.00000000000E+00 0. -1.
</event>
<event>
 7    1  0.2943257E-009  0.7792096E+02  0.7561462E-02  0.1335057E+00
          4   -1    0    0  501    0  0.00000000000E+00  0.00000000000E+00  0.38627795340E+03  0.38627795340E+03  0.00000000000E+00 0. -1.
         -4   -1    0    0    0  501 -0.00000000000E+00 -0.00000000000E+00 -0.44082548293E+02  0.44082548293E+02  0.00000000000E+00 0.  1.
         25    2    1    2    0    0  0.82247571906E+00  0.19450052044E+02  0.29420983808E+03  0.32029182256E+03  0.12509373200E+03 0.  0.
          5    1    3    3  502    0  0.28871638860E+02 -0.31922073380E+02  0.38382911842E+02  0.57821368203E+02  0.41800000000E+01 0. -1.
         -5    1    3    3    0  502 -0.28049163141E+02  0.51372125424E+02  0.25582692624E+03  0.26247045436E+03  0.41800000000E+01 0. -1.
        -11    1    1    2    0    0 -0.23338053642E+02 -0.20937072268E+02  0.71136961564E+02  0.77739906378E+02  0.00000000000E+00 0. -1.
         11    1    1    2    0    0  0.22515577923E+02  0.14870202247E+01 -0.23151394540E+02  0.32328772750E+02  0.00000000000E+00 0.  1.
</event>
<event>
 7    1  0.2943257E-009  0.6911575E+02  0.7561462E-02  0.1363126E+00
          1   -1    0    0  501    0  0.00000000000E+00  0.00000000000E+00  0.21904779534E+03  0.21904779534E+03  0.00000000000E+00 0. -1.
         -1   -1    0    0    0  501 -0.00000000000E+00 -0.00000000000E+00 -0.58507116767E+02  0.58507116767E+02  0.00000000000E+00 0.  1.
         25    2    1    2    0    0 -0.31741533467E+02 -0.45513115046E+01  0.99385299364E+02  0.16294960702E+03  0.12508755859E+03 0.  0.
          5    1    3    3  502    0  0.82289902101E+01  0.27158951896E+02  0.10737244071E+03  0.11113792499E+03  0.41800000000E+01 0. -1.
         -5    1    3    3    0  502 -0.39970523678E+02 -0.31710263400E+02 -0.79871413421E+01  0.51811682030E+02  0.41800000000E+01 0. -1.
        -11    1    1    2    0    0  0.21601860459E+02  0.26492896660E+02 -0.13029060295E+02  0.36582377737E+02  0.00000000000E+00 0.  1.
         11    1    1    2    0    0  0.10139673009E+02 -0.21941585156E+02  0.74184439508E+02  0.78022927355E+02  0.00000000000E+00 0. -1.
</event>
<event>
 7    1  0.2943257E-009  0.1663824E+03  0.7561462E-02  0.1181674E+00
          2   -1    0    0  501    0  0.00000000000E+00  0.00000000000E+00  0.23014893623E+03  0.23014893623E+03  0.00000000000E+00 0. -1.
         -2   -1    0    0    0  501 -0.00000000000E+00 -0.00000000000E+00 -0.23139261683E+03  0.23139261683E+03  0.00000000000E+00 0.  1.
         25    2    1    2    0    0  0.12845778643E+03 -0.63318770635E+02 -0.14414370294E+03  0.23860036024E+03  0.12506820219E+03 0.  0.
          5    1    3    3  502    0  0.96223993045E+02 -0.80051248859E+02 -0.15610672439E+03  0.20013505710E+03  0.41800000000E+01 0.  1.
         -5    1    3    3    0  502  0.32233793381E+02  0.16732478224E+02  0.11963021443E+02  0.38465303136E+02  0.41800000000E+01 0.  1.
        -11    1    1    2    0    0 -0.56673813191E+02  0.79258168642E+02  0.76762378282E+02  0.12404128795E+03  0.00000000000E+00 0. -1.
         11    1    1    2    0    0 -0.71783973236E+02 -0.15939398007E+02  0.66137644060E+02  0.98899904875E+02  0.00000000000E+00 0.  1.
</event>
<event>
 7    1  0.2943257E-009  0.6460933E+02  0.7561462E-02  0.1379447E+00
         -3   -1    0    0    0  501 -0.00000000000E+00  0.00000000000E+00  0.45949239765E+02  0.45949239765E+02  0.00000000000E+00 0.  1.
          3   -1    0    0  501    0  0.00000000000E+00 -0.00000000000E+00 -0.36675529050E+03  0.36675529050E+03  0.00000000000E+00 0. -1.
         25    2    1    2    0    0  0.14514867545E+02 -0.23835487378E+02 -0.77737887611E+02  0.14990192293E+03  0.12509434635E+03 0.  0.
          5    1    3    3  502    0  0.12052719969E+02 -0.13647939060E+02  0.33358790585E+02  0.38233697290E+02  0.41800000000E+01 0.  1.
         -5    1    3    3    0  502  0.24621475765E+01 -0.10187548318E+02 -0.11109667820E+03  0.11166822564E+03  0.41800000000E+01 0.  1.
        -11    1    1    2    0    0 -0.50795528018E+02  0.34540065340E+02 -0.16472407535E+03  0.17580450159E+03  0.00000000000E+00 0. -1.
         11    1    1    2    0    0  0.36280660473E+02 -0.10704577962E+02 -0.78344087777E+02  0.86998105745E+02  0.00000000000E+00 0.  1.
</event>
<event>
 7    1  0.2943257E-009  0.1682262E+03  0.7561462E-02  0.1179710E+00
         -2   -1    0    0    0  501 -0.00000000000E+00  0.00000000000E+00  0.11424614240E+03  0.11424614240E+03  0.00000000000E+00 0.  1.
          2   -1    0    0  501    0  0.00000000000E+00 -0.00000000000E+00 -0.34411394909E+03  0.34411394909E+03  0.00000000000E+00 0. -1.
         25    2    1    2    0    0 -0.10933445098E+03  0.10791088716E+03 -0.46123841819E+02  0.20340693238E+03  0.12509272408E+03 0.  0.
          5    1    3    3  502    0 -0.34092485899E+02 -0.39830367587E+00  0.34576509708E+02  0.48738728587E+02  0.41800000000E+01 0.  1.
         -5    1    3    3    0  502 -0.75241965085E+02  0.10830919083E+03 -0.80700351528E+02  0.15466820380E+03  0.41800000000E+01 0.  1.
        -11    1    1    2    0    0  0.64215824513E+02 -0.10728333095E+03 -0.16261891686E+03  0.20512995232E+03  0.00000000000E+00 0.  1.
         11    1    1    2    0    0  0.45118626471E+02 -0.62755620324E+00 -0.21125048012E+02  0.49823206791E+02  0.00000000000E+00 0. -1.
</event>
<event>
 7    1  0.2943257E-009  0.1014047E+03  0.7561462E-02  0.1277370E+00
          2   -1    0    0  501    0  0.00000000000E+00  0.00000000000E+00  0.65551556526E+02  0.65551556526E+02  0.00000000000E+00 0. -1.
         -2   -1    0    0    0  501 -0.00000000000E+00 -0.00000000000E+00 -0.20482619953E+03  0.20482619953E+03  0.00000000000E+00 0.  1.
         25    2    1    2    0    0  0.17097117178E+02 -0.24875943819E+02 -0.56321242685E+02  0.14046606199E+03  0.12509000039E+03 0.  0.
          5    1    3    3  502    0 -0.31523700225E+02  0.26083974286E+02 -0.56529334810E+02  0.69908193257E+02  0.41800000000E+01 0.  1.
         -5    1    3    3    0  502  0.48620817403E+02 -0.50959918105E+02  0.20809212499E+00  0.70557868736E+02  0.41800000000E+01 0.  1.
        -11    1    1    2    0    0 -0.26009876019E+02  0.54391747814E+02 -0.27074082310E+02  0.66090708982E+02  0.00000000000E+00 0. -1.
         11    1    1    2    0    0  0.89127588402E+01 -0.29515803995E+02 -0.55879318004E+02  0.63820985077E+02  0.00000000000E+00 0.  1.
</event>
<event>
 7    1  0.2984649E-009  0.9003394E+02  0.7561462E-02  0.1302770E+00
          2   -1    0    0  501    0  0.00000000000E+00  0.00000000000E+00  0.20760783356E+03  0.20760783356E+03  0.00000000000E+00 0. -1.
         -2   -1    0    0    0  501 -0.00000000000E+00 -0.00000000000E+00 -0.71360149937E+02  0.71360149937E+02  0.00000000000E+00 0.  1.
         25    2    1    2    0    0  0.28376858832E+02  0.18576842228E+02  0.28089371906E+02  0.13261493675E+03  0.12508942181E+03 0.  0.
          5    1    3    3  502    0  0.67950165463E+02  0.44199143044E+02  0.26035712812E+02  0.85241539016E+02  0.41800000000E+01 0.  1.
         -5    1    3    3    0  502 -0.39573306631E+02 -0.25622300815E+02  0.20536590936E+01  0.47373397729E+02  0.41800000000E+01 0.  1.
        -11    1    1    2    0    0 -0.27777379205E+02 -0.29564732150E+02  0.12205912327E+03  0.12862381489E+03  0.00000000000E+00 0. -1.
         11    1    1    2    0    0 -0.59947962732E+00  0.10987889922E+02 -0.13900811551E+02  0.17729231866E+02  0.00000000000E+00 0.  1.
</event>
<event>
 7    1  0.2943257E-009  0.3930944E+03  0.7561462E-02  0.1046197E+00
         -2   -1    0    0    0  501 -0.00000000000E+00  0.00000000000E+00  0.63972285886E+03  0.63972285886E+03  0.00000000000E+00 0.  1.
          2   -1    0    0  501    0  0.00000000000E+00 -0.00000000000E+00 -0.25325726006E+03  0.25325726006E+03  0.00000000000E+00 0. -1.
         25    2    1    2    0    0 -0.13862508024E+03  0.35367724364E+03  0.11139351902E+03  0.41516447212E+03  0.12509403381E+03 0.  0.
          5    1    3    3  502    0 -0.14056260743E+03  0.20754485283E+03  0.45492678557E+02  0.25479358066E+03  0.41800000000E+01 0. -1.
         -5    1    3    3    0  502  0.19375271893E+01  0.14613239081E+03  0.65900840463E+02  0.16037089147E+03  0.41800000000E+01 0. -1.
        -11    1    1    2    0    0 -0.11320442440E+02 -0.40652352095E+02  0.43281428107E+02  0.60448723451E+02  0.00000000000E+00 0.  1.
         11    1    1    2    0    0  0.14994552268E+03 -0.31302489154E+03  0.23179065167E+03  0.41736692334E+03  0.00000000000E+00 0. -1.
</event>
<event>
 7    1  0.2943257E-009  0.1345557E+03  0.7561462E-02  0.1220848E+00
         -2   -1    0    0    0  501 -0.00000000000E+00  0.00000000000E+00  0.77295165860E+02  0.77295165860E+02  0.00000000000E+00 0. -1.
          2   -1    0    0  501    0  0.00000000000E+00 -0.00000000000E+00 -0.30286631584E+03  0.30286631584E+03  0.00000000000E+00 0.  1.
         25    2    1    2    0    0 -0.43405865855E+02 -0.96640813400E+02 -0.10192569826E+03  0.19304513500E+03  0.12511618671E+03 0.  0.
          5    1    3    3  502    0 -0.65336591594E+02 -0.41013703589E+02 -0.29228848834E+01  0.77311122998E+02  0.41800000000E+01 0. -1.
         -5    1    3    3    0  502  0.21930725740E+02 -0.55627109812E+02 -0.99002813377E+02  0.11573401200E+03  0.41800000000E+01 0. -1.
        -11    1    1    2    0    0  0.64052773333E+01  0.94644739692E+02 -0.11498299464E+03  0.14906288400E+03  0.00000000000E+00 0. -1.
         11    1    1    2    0    0  0.37000588521E+02  0.19960737076E+01 -0.86624570818E+01  0.38053462705E+02  0.00000000000E+00 0.  1.
</event>
<event>
 7    1  0.2943257E-009  0.1269000E+03  0.7561462E-02  0.1232129E+00
          4   -1    0    0  501    0  0.00000000000E+00  0.00000000000E+00  0.28822853386E+03  0.28822853386E+03  0.00000000000E+00 0. -1.
         -4   -1    0    0    0  501 -0.00000000000E+00 -0.00000000000E+00 -0.77958326398E+02  0.77958326398E+02  0.00000000000E+00 0.  1.
         25    2    1    2    0    0 -0.94061771520E+02 -0.53004507159E+01  0.16637972950E+03  0.22848080079E+03  0.12508217419E+03 0.  0.
          5    1    3    3  502    0 -0.52368601720E+02  0.59375310319E+02  0.90805912959E+02  0.12054494660E+03  0.41800000000E+01 0.  1.
         -5    1    3    3    0  502 -0.41693169800E+02 -0.64675761034E+02  0.75573816545E+02  0.10793585419E+03  0.41800000000E+01 0.  1.
        -11    1    1    2    0    0  0.20366273921E+02  0.11692752937E+02  0.57843892730E+02  0.62429332135E+02  0.00000000000E+00 0. -1.
         11    1    1    2    0    0  0.73695497599E+02 -0.63923022210E+01 -0.13953414774E+02  0.75276727332E+02  0.00000000000E+00 0.  1.
</event>
<event>
 7    1  0.2943257E-009  0.7955428E+02  0.7561462E-02  0.1330321E+00
         -2   -1    0    0    0  501 -0.00000000000E+00  0.00000000000E+00  0.26788159638E+02  0.26788159638E+02  0.00000000000E+00 0.  1.
          2   -1    0    0  501    0  0.00000000000E+00 -0.00000000000E+00 -0.57517486876E+03  0.57517486876E+03  0.00000000000E+00 0. -1.
         25    2    1    2    0    0 -0.38414550283E+02  0.15478718893E+02 -0.20270327471E+03  0.24178349868E+03  0.12512143799E+03 0.  0.
          5    1    3    3  502    0 -0.24137563908E+01 -0.21312457771E+02 -0.18632850521E+03  0.18760552052E+03  0.41800000000E+01 0. -1.
         -5    1    3    3    0  502 -0.36000793892E+02  0.36791176664E+02 -0.16374769500E+02  0.54177978159E+02  0.41800000000E+01 0. -1.
        -11    1    1    2    0    0 -0.17782470119E+02 -0.22827903149E+02 -0.40483393833E+02  0.49761778324E+02  0.00000000000E+00 0.  1.
         11    1    1    2    0    0  0.56197020402E+02  0.73491842553E+01 -0.30520004058E+03  0.31041775139E+03  0.00000000000E+00 0. -1.
</event>
<event>
 7    1  0.2943257E-009  0.1332817E+03  0.7561462E-02  0.1222666E+00
         -2   -1    0    0    0  501 -0.00000000000E+00  0.00000000000E+00  0.12958097977E+03  0.12958097977E+03  0.00000000000E+00 0.  1.
          2   -1    0    0  501    0  0.00000000000E+00 -0.00000000000E+00 -0.21191552734E+03  0.21191552734E+03  0.00000000000E+00 0. -1.
         25    2    1    2    0    0 -0.10757772727E+03 -0.27663086676E+02  0.13996326282E+02  0.16787315854E+03  0.12508911399E+03 0.  0.
          5    1    3    3  502    0 -0.10452153616E+03 -0.56107653211E+02 -0.23009567102E+02  0.12091208727E+03  0.41800000000E+01 0.  1.
         -5    1    3    3    0  502 -0.30561911090E+01  0.28444566535E+02  0.37005893384E+02  0.46961071268E+02  0.41800000000E+01 0.  1.
        -11    1    1    2    0    0  0.51608388161E+02 -0.85132750527E+01 -0.93239221647E+02  0.10690862469E+03  0.00000000000E+00 0. -1.
         11    1    1    2    0    0  0.55969339111E+02  0.36176361729E+02 -0.30916522078E+01  0.66714723876E+02  0.00000000000E+00 0.  1.
</event>
<event>
 7    1  0.3894328E-009  0.1670762E+03  0.7561462E-02  0.1180932E+00
          2   -1    0    0  501    0  0.00000000000E+00  0.00000000000E+00  0.14005284948E+04  0.14005284948E+04  0.00000000000E+00 0. -1.
         -2   -1    0    0    0  501 -0.00000000000E+00 -0.00000000000E+00 -0.22343587141E+02  0.22343587141E+02  0.00000000000E+00 0.  1.
         25    2    1    2    0    0  0.90544779210E+02  0.10377209737E+03  0.82325018191E+03  0.84401147081E+03  0.12508995006E+03 0.  0.
          5    1    3    3  502    0  0.12059241352E+02 -0.27928449555E+02  0.18919836817E+03  0.19167399019E+03  0.41800000000E+01 0.  1.
         -5    1    3    3    0  502  0.78485537859E+02  0.13170054693E+03  0.63405181374E+03  0.65233748062E+03  0.41800000000E+01 0.  1.
        -11    1    1    2    0    0 -0.80066460063E+02 -0.48052662562E+02  0.45002448897E+03  0.45961041881E+03  0.00000000000E+00 0. -1.
         11    1    1    2    0    0 -0.10478319147E+02 -0.55719434812E+02  0.10491023678E+03  0.11925019232E+03  0.00000000000E+00 0.  1.
</event>
<event>
 7    1  0.2943257E-009  0.2299200E+03  0.7561462E-02  0.1126696E+00
          1   -1    0    0  501    0  0.00000000000E+00  0.00000000000E+00  0.28546935517E+03  0.28546935517E+03  0.00000000000E+00 0. -1.
         -1   -1    0    0    0  501 -0.00000000000E+00 -0.00000000000E+00 -0.21706427207E+03  0.21706427207E+03  0.00000000000E+00 0.  1.
         25    2    1    2    0    0  0.20228403452E+03 -0.96159807703E+02  0.44153772501E+02  0.26031233577E+03  0.12508963700E+03 0.  0.
          5    1    3    3  502    0 -0.20670553330E+01 -0.99861406354E+01 -0.25529993740E+02  0.27807349800E+02  0.41800000000E+01 0.  1.
         -5    1    3    3    0  502  0.20435108986E+03 -0.86173667067E+02  0.69683766241E+02  0.23250498597E+03  0.41800000000E+01 0.  1.
        -11    1    1    2    0    0 -0.38888671343E+02  0.35667267797E+02  0.41505097304E+02  0.67135354719E+02  0.00000000000E+00 0.  1.
         11    1    1    2    0    0 -0.16339536318E+03  0.60492539906E+02 -0.17253786701E+02  0.17508593675E+03  0.00000000000E+00 0. -1.
</event>
<event>
 7    1  0.2943257E-009  0.1312586E+03  0.7561462E-02  0.1225600E+00
         -4   -1    0    0    0  501 -0.00000000000E+00  0.00000000000E+00  0.30865514574E+03  0.30865514574E+03  0.00000000000E+00 0.  1.
          4   -1    0    0  501    0  0.00000000000E+00 -0.00000000000E+00 -0.78617857552E+02  0.78617857552E+02  0.00000000000E+00 0. -1.
         25    2    1    2    0    0  0.10923365396E+02  0.10993716229E+03  0.13956404289E+03  0.21755622509E+03  0.12508832656E+03 0.  0.
          5    1    3    3  502    0 -0.31106746742E+02  0.11777535468E+02 -0.88516999355E+01  0.34672251533E+02  0.41800000000E+01 0.  1.
         -5    1    3    3    0  502  0.42030112138E+02  0.98159626827E+02  0.14841574283E+03  0.18288397356E+03  0.41800000000E+01 0.  1.
        -11    1    1    2    0    0 -0.32059894388E+02 -0.66936511849E+02  0.96154948643E+02  0.12146648754E+03  0.00000000000E+00 0.  1.
         11    1    1    2    0    0  0.21136528992E+02 -0.43000650446E+02 -0.56817033417E+01  0.48250290667E+02  0.00000000000E+00 0. -1.
</event>
<event>
 7    1  0.2943257E-009  0.1888960E+03  0.7561462E-02  0.1159461E+00
          2   -1    0    0  501    0  0.00000000000E+00  0.00000000000E+00  0.67433866523E+03  0.67433866523E+03  0.00000000000E+00 0.  1.
         -2   -1    0    0    0  501 -0.00000000000E+00 -0.00000000000E+00 -0.75568249397E+02  0.75568249397E+02  0.00000000000E+00 0. -1.
         25    2    1    2    0    0 -0.84571765772E+02  0.15878208188E+03  0.17395453382E+03  0.27976895836E+03  0.12508539937E+03 0.  0.
          5    1    3    3  502    0  0.88619627778E+01  0.33748593564E+02 -0.11832566055E+02  0.37080776303E+02  0.41800000000E+01 0.  1.
         -5    1    3    3    0  502 -0.93433728550E+02  0.12503348832E+03  0.18578709988E+03  0.24268818206E+03  0.41800000000E+01 0.  1.
        -11    1    1    2    0    0 -0.66156669372E+01 -0.12109373266E+02  0.27046094505E+01  0.14061254645E+02  0.00000000000E+00 0. -1.
         11    1    1    2    0    0  0.91187432709E+02 -0.14667270861E+03  0.42211127256E+03  0.45607670162E+03  0.00000000000E+00 0.  1.
</event>
<event>
 7    1  0.2943257E-009  0.1982013E+03  0.7561462E-02  0.1151266E+00
          2   -1    0    0  501    0  0.00000000000E+00  0.00000000000E+00  0.10039847586E+04  0.10039847586E+04  0.00000000000E+00 0. -1.
         -2   -1    0    0    0  501 -0.00000000000E+00 -0.00000000000E+00 -0.47852581943E+02  0.47852581943E+02  0.00000000000E+00 0.  1.
         25    2    1    2    0    0 -0.73185901067E+02 -0.16918381972E+03  0.60147356086E+03  0.64140248411E+03  0.12508941294E+03 0.  0.
          5    1    3    3  502    0 -0.98327189507E+02 -0.15034306795E+03  0.56596864108E+03  0.59380910179E+03  0.41800000000E+01 0.  1.
         -5    1    3    3    0  502  0.25141288440E+02 -0.18840751778E+02  0.35504919779E+02  0.47593382319E+02  0.41800000000E+01 0.  1.
        -11    1    1    2    0    0  0.32843411881E+02  0.56797303498E+02  0.22409660647E+03  0.23350355976E+03  0.00000000000E+00 0.  1.
         11    1    1    2    0    0  0.40342489186E+02  0.11238651623E+03  0.13056200930E+03  0.17693129665E+03  0.00000000000E+00 0. -1.
</event>
<event>
 7    1  0.2943257E-009  0.6604099E+02  0.7561462E-02  0.1374098E+00
         -2   -1    0    0    0  501 -0.00000000000E+00  0.00000000000E+00  0.11799327378E+03  0.11799327378E+03  0.00000000000E+00 0.  1.
          2   -1    0    0  501    0  0.00000000000E+00 -0.00000000000E+00 -0.11254847812E+03  0.11254847812E+03  0.00000000000E+00 0. -1.
         25    2    1    2    0    0 -0.68583290264E+01 -0.33253067410E+02 -0.14806906466E+02  0.13045456174E+03  0.12508535098E+03 0.  0.
          5    1    3    3  502    0  0.66632699926E+01 -0.18120245349E+02 -0.69350019164E+02  0.72108529430E+02  0.41800000000E+01 0. -1.
         -5    1    3    3    0  502 -0.13521599019E+02 -0.15132822061E+02  0.54543112698E+02  0.58346032311E+02  0.41800000000E+01 0. -1.
        -11    1    1    2    0    0 -0.30540050025E+02  0.43204503247E+02 -0.61123904247E+01  0.53260539549E+02  0.00000000000E+00 0. -1.
         11    1    1    2    0    0  0.37398379051E+02 -0.99514358374E+01  0.26364092548E+02  0.46826650604E+02  0.00000000000E+00 0.  1.
</event>
<event>
 7    1  0.2943257E-009  0.1335665E+03  0.7561462E-02  0.1222258E+00
          2   -1    0    0  501    0  0.00000000000E+00  0.00000000000E+00  0.34116174876E+02  0.34116174876E+02  0.00000000000E+00 0. -1.
         -2   -1    0    0    0  501 -0.00000000000E+00 -0.00000000000E+00 -0.75895452436E+03  0.75895452436E+03  0.00000000000E+00 0.  1.
         25    2    1    2    0    0  0.25553832252E+02  0.93213262084E+02 -0.55906216614E+03  0.58098240144E+03  0.12509330362E+03 0.  0.
          5    1    3    3  502    0  0.10805159777E+02 -0.30846149405E+02 -0.12644308956E+03  0.13066584752E+03  0.41800000000E+01 0. -1.
         -5    1    3    3    0  502  0.14748672475E+02  0.12405941149E+03 -0.43261907657E+03  0.45031655392E+03  0.41800000000E+01 0. -1.
        -11    1    1    2    0    0  0.15610444548E+02 -0.28137784372E+02 -0.11604365176E+03  0.12042238165E+03  0.00000000000E+00 0.  1.
         11    1    1    2    0    0 -0.41164276800E+02 -0.65075477712E+02 -0.49732531585E+02  0.91665916140E+02  0.00000000000E+00 0. -1.
</event>
<event>
 7    1  0.2943257E-009  0.1218112E+03  0.7561462E-02  0.1240139E+00
         -1   -1    0    0    0  501 -0.00000000000E+00  0.00000000000E+00  0.16993931680E+02  0.16993931680E+02  0.00000000000E+00 0.  1.
          1   -1    0    0  501    0  0.00000000000E+00 -0.00000000000E+00 -0.92360456737E+03  0.92360456737E+03  0.00000000000E+00 0. -1.
         25    2    1    2    0    0 -0.43507346672E+02 -0.49121110428E+02 -0.50206408333E+03  0.52155776209E+03  0.12509349592E+03 0.  0.
          5    1    3    3  502    0  0.38359987023E+02 -0.33433106494E+02 -0.11871618017E+03  0.12922950533E+03  0.41800000000E+01 0. -1.
         -5    1    3    3    0  502 -0.81867333694E+02 -0.15688003934E+02 -0.38334790316E+03  0.39232825676E+03  0.41800000000E+01 0. -1.
        -11    1    1    2    0    0  0.70225320232E+02  0.40305222010E+02 -0.30965311238E+03  0.32006430062E+03  0.00000000000E+00 0. -1.
         11    1    1    2    0    0 -0.26717973561E+02  0.88158884186E+01 -0.94893439988E+02  0.98976436350E+02  0.00000000000E+00 0.  1.
</event>
<event>
 7    1  0.2943257E-009  0.1593926E+03  0.7561462E-02  0.1189384E+00
         -1   -1    0    0    0  501 -0.00000000000E+00  0.00000000000E+00  0.60817822601E+02  0.60817822601E+02  0.00000000000E+00 0.  1.
          1   -1    0    0  501    0  0.00000000000E+00 -0.00000000000E+00 -0.72947887583E+03  0.72947887583E+03  0.00000000000E+00 0. -1.
         25    2    1    2    0    0 -0.14511114709E+03  0.40247056113E+02 -0.54136687474E+03  0.57567480081E+03  0.12508522168E+03 0.  0.
          5    1    3    3  502    0  0.73099302379E+01  0.92028131928E+01 -0.20143032204E+03  0.20181618837E+03  0.41800000000E+01 0. -1.
         -5    1    3    3    0  502 -0.15242107733E+03  0.31044242920E+02 -0.33993655271E+03  0.37385861244E+03  0.41800000000E+01 0. -1.
        -11    1    1    2    0    0  0.11596577727E+03 -0.29687811645E+02 -0.13719817476E+03  0.18207901256E+03  0.00000000000E+00 0. -1.
         11    1    1    2    0    0  0.29145369818E+02 -0.10559244468E+02  0.99039962752E+01  0.32542885056E+02  0.00000000000E+00 0.  1.
</event>
<event>
 7    1  0.2943257E-009  0.2938002E+03  0.7561462E-02  0.1088382E+00
          2   -1    0    0  501    0  0.00000000000E+00  0.00000000000E+00  0.12970956082E+04  0.12970956082E+04  0.00000000000E+00 0. -1.
         -2   -1    0    0    0  501 -0.00000000000E+00 -0.00000000000E+00 -0.76778399207E+02  0.76778399207E+02  0.00000000000E+00 0.  1.
         25    2    1    2    0    0  0.10446344565E+03 -0.27245698472E+03  0.73139970003E+03  0.79733231318E+03  0.12509147232E+03 0.  0.
          5    1    3    3  502    0  0.26077318631E+02 -0.97607999161E+02  0.12175018925E+03  0.15826537533E+03  0.41800000000E+01 0.  1.
         -5    1    3    3    0  502  0.78386127024E+02 -0.17484898556E+03  0.60964951078E+03  0.63906693785E+03  0.41800000000E+01 0.  1.
        -11    1    1    2    0    0 -0.13308907363E+02  0.88749921817E+02  0.85308984439E+02  0.12381962067E+03  0.00000000000E+00 0.  1.
         11    1    1    2    0    0 -0.91154538292E+02  0.18370706290E+03  0.40360852454E+03  0.45272207356E+03  0.00000000000E+00 0. -1.
</event>
<event>
 7    1  0.2943257E-009  0.1090538E+03  0.7561462E-02  0.1262332E+00
         -2   -1    0    0    0  501 -0.00000000000E+00  0.00000000000E+00  0.15647897775E+03  0.15647897775E+03  0.00000000000E+00 0.  1.
          2   -1    0    0  501    0  0.00000000000E+00 -0.00000000000E+00 -0.89859147790E+02  0.89859147790E+02  0.00000000000E+00 0. -1.
         25    2    1    2    0    0 -0.11689962509E+02 -0.49509543943E+02  0.16157357524E+02  0.13600052457E+03  0.12508889765E+03 0.  0.
          5    1    3    3  502    0  0.43066110015E+02  0.61875540715E+01 -0.22044512769E+02  0.48953126565E+02  0.41800000000E+01 0. -1.
         -5    1    3    3    0  502 -0.54756072524E+02 -0.55697098015E+02  0.38201870292E+02  0.87047398005E+02  0.41800000000E+01 0. -1.
        -11    1    1    2    0    0  0.46298901378E+02  0.37393609586E+02  0.20373563470E+02  0.62904311419E+02  0.00000000000E+00 0.  1.
         11    1    1    2    0    0 -0.34608938868E+02  0.12115934357E+02  0.30088908970E+02  0.47433289554E+02  0.00000000000E+00 0. -1.
</event>
<event>
 7    1  0.2943257E-009  0.1421194E+03  0.7561462E-02  0.1210505E+00
          2   -1    0    0  501    0  0.00000000000E+00  0.00000000000E+00  0.10964754768E+03  0.10964754768E+03  0.00000000000E+00 0. -1.
         -2   -1    0    0    0  501 -0.00000000000E+00 -0.00000000000E+00 -0.21874938481E+03  0.21874938481E+03  0.00000000000E+00 0.  1.
         25    2    1    2    0    0 -0.90989836689E+01  0.10500451317E+03 -0.26395690852E+02  0.16568794058E+03  0.12508805646E+03 0.  0.
          5    1    3    3  502    0  0.10926707435E+02  0.13041772364E+03 -0.21715580937E+02  0.13272985508E+03  0.41800000000E+01 0. -1.
         -5    1    3    3    0  502 -0.20025691104E+02 -0.25413210474E+02 -0.46801099148E+01  0.32958085496E+02  0.41800000000E+01 0. -1.
        -11    1    1    2    0    0 -0.24706972873E+02 -0.33970298602E+02 -0.71942837580E+02  0.83307788200E+02  0.00000000000E+00 0.  1.
         11    1    1    2    0    0  0.33805956541E+02 -0.71034214563E+02 -0.10763308698E+02  0.79401203709E+02  0.00000000000E+00 0. -1.
</event>
<event>
 7    1  0.2943257E-009  0.1450666E+03  0.7561462E-02  0.1206670E+00
         -1   -1    0    0    0  501 -0.00000000000E+00  0.00000000000E+00  0.24906421106E+03  0.24906421106E+03  0.00000000000E+00 0.  1.
          1   -1    0    0  501    0  0.00000000000E+00 -0.00000000000E+00 -0.12086681250E+03  0.12086681250E+03  0.00000000000E+00 0. -1.
         25    2    1    2    0    0  0.12237800025E+03 -0.43823841126E+02  0.27452497447E+02  0.18247782670E+03  0.12509042179E+03 0.  0.
          5    1    3    3  502    0 -0.27005365982E+01 -0.26353703630E+02  0.47487467917E+02  0.54537533883E+02  0.41800000000E+01 0.  1.
         -5    1    3    3    0  502  0.12507853685E+03 -0.17470137496E+02 -0.20034970470E+02  0.12794029282E+03  0.41800000000E+01 0.  1.
        -11    1    1    2    0    0 -0.58740742188E+02  0.43869694310E+02  0.99767219736E+02  0.12380841250E+03  0.00000000000E+00 0.  1.
         11    1    1    2    0    0 -0.63637258062E+02 -0.45853184757E-01  0.97768137642E+00  0.63644784366E+02  0.00000000000E+00 0. -1.
</event>
<event>
 7    1  0.2943257E-009  0.1380991E+03  0.7561462E-02  0.1215910E+00
          1   -1    0    0  501    0  0.00000000000E+00  0.00000000000E+00  0.48869842372E+02  0.48869842372E+02  0.00000000000E+00 0. -1.
         -1   -1    0    0    0  501 -0.00000000000E+00 -0.00000000000E+00 -0.56748618097E+03  0.56748618097E+03  0.00000000000E+00 0.  1.
         25    2    1    2    0    0  0.48813420481E+02  0.11773775307E+03 -0.27889084093E+03  0.33116762892E+03  0.12508784425E+03 0.  0.
          5    1    3    3  502    0 -0.16920822755E+02  0.41493724021E+02 -0.13028282545E+02  0.46853515577E+02  0.41800000000E+01 0.  1.
         -5    1    3    3    0  502  0.65734243236E+02  0.76244029045E+02 -0.26586255838E+03  0.28431411335E+03  0.41800000000E+01 0.  1.
        -11    1    1    2    0    0 -0.23608365278E+02 -0.25211704479E+02 -0.14977712944E+03  0.15370807870E+03  0.00000000000E+00 0.  1.
         11    1    1    2    0    0 -0.25205055203E+02 -0.92526048587E+02 -0.89948368237E+02  0.13148031573E+03  0.00000000000E+00 0. -1.
</event>
<event>
 7    1  0.2943257E-009  0.2116796E+03  0.7561462E-02  0.1140243E+00
         -1   -1    0    0    0  501 -0.00000000000E+00  0.00000000000E+00  0.17611149254E+03  0.17611149254E+03  0.00000000000E+00 0. -1.
          1   -1    0    0  501    0  0.00000000000E+00 -0.00000000000E+00 -0.26030154470E+03  0.26030154470E+03  0.00000000000E+00 0.  1.
         25    2    1    2    0    0  0.28773575108E+02 -0.18191089791E+03 -0.43326573876E+02  0.22681233446E+03  0.12508856724E+03 0.  0.
          5    1    3    3  502    0 -0.23036098468E+02  0.56794964268E+01  0.82021372271E+01  0.25449282257E+02  0.41800000000E+01 0.  1.
         -5    1    3    3    0  502  0.51809673576E+02 -0.18759039434E+03 -0.51528711103E+02  0.20136305220E+03  0.41800000000E+01 0.  1.
        -11    1    1    2    0    0  0.31541266907E+02  0.44504443916E+02 -0.19984951305E+02  0.58093849287E+02  0.00000000000E+00 0. -1.
         11    1    1    2    0    0 -0.60314842015E+02  0.13740645400E+03 -0.20878526976E+02  0.15150685349E+03  0.00000000000E+00 0.  1.
</event>
<event>
 7    1  0.2943257E-009  0.3329478E+03  0.7561462E-02  0.1069840E+00
          1   -1    0    0  501    0  0.00000000000E+00  0.00000000000E+00  0.15745941979E+04  0.15745941979E+04  0.00000000000E+00 0. -1.
         -1   -1    0    0    0  501 -0.00000000000E+00 -0.00000000000E+00 -0.81434452619E+02  0.81434452619E+02  0.00000000000E+00 0.  1.
         25    2    1    2    0    0  0.28090735028E+03  0.16615561482E+03  0.52885576625E+03  0.63391837908E+03  0.12508981598E+03 0.  0.
          5    1    3    3  502    0  0.50053655882E+02  0.72300255723E+02  0.72950332932E+02  0.11433249284E+03  0.41800000000E+01 0.  1.
         -5    1    3    3    0  502  0.23085369440E+03  0.93855359102E+02  0.45590543332E+03  0.51958588624E+03  0.41800000000E+01 0.  1.
        -11    1    1    2    0    0 -0.19255125768E+03 -0.13403461553E+03  0.56271086317E+03  0.60965956117E+03  0.00000000000E+00 0. -1.
         11    1    1    2    0    0 -0.88356092605E+02 -0.32120999292E+02  0.40159311587E+03  0.41245071028E+03  0.00000000000E+00 0.  1.
</event>
<event>
 7    1  0.2943257E-009  0.9780118E+02  0.7561462E-02  0.1284989E+00
          3   -1    0    0  501    0  0.00000000000E+00  0.00000000000E+00  0.79841179255E+02  0.79841179255E+02  0.00000000000E+00 0. -1.
         -3   -1    0    0    0  501 -0.00000000000E+00 -0.00000000000E+00 -0.18877969388E+03  0.18877969388E+03  0.00000000000E+00 0.  1.
         25    2    1    2    0    0  0.98169544316E+01 -0.48357921818E+02 -0.91135387632E+02  0.16243498608E+03  0.12507839392E+03 0.  0.
          5    1    3    3  502    0  0.25758675701E+01  0.27378447388E+02  0.15138401985E+02  0.31667934725E+02  0.41800000000E+01 0. -1.
         -5    1    3    3    0  502  0.72410868615E+01 -0.75736369205E+02 -0.10627378962E+03  0.13076705135E+03  0.41800000000E+01 0. -1.
        -11    1    1    2    0    0  0.28752407584E+02  0.44294024923E+02 -0.35422974347E+02  0.63588117580E+02  0.00000000000E+00 0. -1.
         11    1    1    2    0    0 -0.38569362016E+02  0.40638968950E+01  0.17619847350E+02  0.42597769483E+02  0.00000000000E+00 0.  1.
</event>
<event>
 7    1  0.2943257E-009  0.1224949E+03  0.7561462E-02  0.1239037E+00
         -3   -1    0    0    0  501 -0.00000000000E+00  0.00000000000E+00  0.32171714468E+03  0.32171714468E+03  0.00000000000E+00 0.  1.
          3   -1    0    0  501    0  0.00000000000E+00 -0.00000000000E+00 -0.72279150085E+02  0.72279150085E+02  0.00000000000E+00 0. -1.
         25    2    1    2    0    0 -0.23512041939E+00 -0.65759632064E+02  0.25377257563E+02  0.14358135818E+03  0.12508883534E+03 0.  0.
          5    1    3    3  502    0 -0.28720634399E+02  0.25869738003E+02  0.27315894427E+02  0.47515772886E+02  0.41800000000E+01 0.  1.
         -5    1    3    3    0  502  0.28485513979E+02 -0.91629370067E+02 -0.19386368632E+01  0.96065585297E+02  0.41800000000E+01 0.  1.
        -11    1    1    2    0    0  0.24004380177E+02 -0.13346026983E+02  0.76905472944E+02  0.81662589187E+02  0.00000000000E+00 0.  1.
         11    1    1    2    0    0 -0.23769259758E+02  0.79105659047E+02  0.14715526409E+03  0.16875234740E+03  0.00000000000E+00 0. -1.
</event>
<event>
 7    1  0.2943257E-009  0.1186815E+03  0.7561462E-02  0.1245288E+00
          2   -1    0    0  501    0  0.00000000000E+00  0.00000000000E+00  0.91746082597E+03  0.91746082597E+03  0.00000000000E+00 0. -1.
         -2   -1    0    0    0  501 -0.00000000000E+00 -0.00000000000E+00 -0.23446313498E+02  0.23446313498E+02  0.00000000000E+00 0.  1.
         25    2    1    2    0    0 -0.13176377966E+02 -0.93310633917E+02  0.56863199914E+03  0.58980580605E+03  0.12509215432E+03 0.  0.
          5    1    3    3  502    0  0.32304527511E+01 -0.11511507724E+03  0.32917787179E+03  0.34876562404E+03  0.41800000000E+01 0. -1.
         -5    1    3    3    0  502 -0.16406830717E+02  0.21804443324E+02  0.23945412734E+03  0.24104018201E+03  0.41800000000E+01 0. -1.
        -11    1    1    2    0    0  0.26266123424E+01  0.44767717537E+02  0.36058213279E+02  0.57543395544E+02  0.00000000000E+00 0.  1.
         11    1    1    2    0    0  0.10549765623E+02  0.48542916380E+02  0.28932430005E+03  0.29355793787E+03  0.00000000000E+00 0. -1.
</event>
<event>
 7    1  0.2943257E-009  0.1182138E+03  0.7561462E-02  0.1246073E+00
         -2   -1    0    0    0  501 -0.00000000000E+00  0.00000000000E+00  0.62814255623E+02  0.62814255623E+02  0.00000000000E+00 0. -1.
          2   -1    0    0  501    0  0.00000000000E+00 -0.00000000000E+00 -0.25793118382E+03  0.25793118382E+03  0.00000000000E+00 0.  1.
         25    2    1    2    0    0  0.56318305955E+02  0.10446208582E+02 -0.14595638613E+03  0.20057930717E+03  0.12509163423E+03 0.  0.
          5    1    3    3  502    0  0.88822872580E+02  0.32859523409E+02 -0.12088419957E+03  0.15362198110E+03  0.41800000000E+01 0. -1.
         -5    1    3    3    0  502 -0.32504566625E+02 -0.22413314827E+02 -0.25072186557E+02  0.46957326072E+02  0.41800000000E+01 0. -1.
        -11    1    1    2    0    0 -0.43558453581E+02  0.34270620457E+02 -0.43611220273E+01  0.55595266797E+02  0.00000000000E+00 0. -1.
         11    1    1    2    0    0 -0.12759852374E+02 -0.44716829040E+02 -0.44799420047E+02  0.64570865477E+02  0.00000000000E+00 0.  1.
</event>
<event>
 7    1  0.4023778E-009  0.1312837E+03  0.7561462E-02  0.1225563E+00
         -1   -1    0    0    0  501 -0.00000000000E+00  0.00000000000E+00  0.16260231676E+02  0.16260231676E+02  0.00000000000E+00 0.  1.
          1   -1    0    0  501    0  0.00000000000E+00 -0.00000000000E+00 -0.14574001542E+04  0.14574001542E+04  0.00000000000E+00 0. -1.
         25    2    1    2    0    0 -0.86301242743E+02 -0.58948614077E+02 -0.92339274554E+03  0.93767008345E+03  0.12509268271E+03 0.  0.
          5    1    3    3  502    0  0.17816444505E+02 -0.59290883071E+01 -0.24227816593E+02  0.30936051458E+02  0.41800000000E+01 0. -1.
         -5    1    3    3    0  502 -0.10411768725E+03 -0.53019525770E+02 -0.89916492895E+03  0.90673403199E+03  0.41800000000E+01 0. -1.
        -11    1    1    2    0    0  0.74015192369E+01  0.45841254696E+02 -0.94970481334E+02  0.10571468887E+03  0.00000000000E+00 0.  1.
         11    1    1    2    0    0  0.78899723506E+02  0.13107359382E+02 -0.42277669569E+03  0.43027561360E+03  0.00000000000E+00 0. -1.
</event>
<event>
 7    1  0.2943257E-009  0.1384840E+03  0.7561462E-02  0.1215384E+00
         -1   -1    0    0    0  501 -0.00000000000E+00  0.00000000000E+00  0.82048309937E+03  0.82048309937E+03  0.00000000000E+00 0.  1.
          1   -1    0    0  501    0  0.00000000000E+00 -0.00000000000E+00 -0.31208895125E+02  0.31208895125E+02  0.00000000000E+00 0. -1.
         25    2    1    2    0    0  0.12736896556E+03  0.22184028373E+02  0.45095955553E+03  0.48551610580E+03  0.12508550582E+03 0.  0.
          5    1    3    3  502    0  0.97424133744E+02  0.44795047502E+02  0.42817830985E+03  0.44142065600E+03  0.41800000000E+01 0. -1.
         -5    1    3    3    0  502  0.29944831816E+02 -0.22611019129E+02  0.22781245680E+02  0.44095449802E+02  0.41800000000E+01 0. -1.
        -11    1    1    2    0    0 -0.11236892940E+03 -0.10441336944E+02  0.22995434030E+03  0.25615385306E+03  0.00000000000E+00 0. -1.
         11    1    1    2    0    0 -0.15000036165E+02 -0.11742691429E+02  0.10836030841E+03  0.11002203564E+03  0.00000000000E+00 0.  1.
</event>
<event>
 7    1  0.2943257E-009  0.1152578E+03  0.7561462E-02  0.1251132E+00
         -1   -1    0    0    0  501 -0.00000000000E+00  0.00000000000E+00  0.15495424556E+03  0.15495424556E+03  0.00000000000E+00 0.  1.
          1   -1    0    0  501    0  0.00000000000E+00 -0.00000000000E+00 -0.11194014689E+03  0.11194014689E+03  0.00000000000E+00 0. -1.
         25    2    1    2    0    0  0.48256305553E+02 -0.38921596421E+02  0.65968564491E+02  0.15441239242E+03  0.12509106179E+03 0.  0.
          5    1    3    3  502    0  0.58138598251E+02  0.23144921268E+02 -0.66665712238E+00  0.62719222084E+02  0.41800000000E+01 0.  1.
         -5    1    3    3    0  502 -0.98822926982E+01 -0.62066517689E+02  0.66635221613E+02  0.91693170337E+02  0.41800000000E+01 0.  1.
        -11    1    1    2    0    0  0.14022850283E+02  0.40142791160E+02 -0.26477479795E+02  0.50091326081E+02  0.00000000000E+00 0. -1.
         11    1    1    2    0    0 -0.62279155836E+02 -0.12211947396E+01  0.35230139670E+01  0.62390673948E+02  0.00000000000E+00 0.  1.
</event>
<event>
 7    1  0.2943257E-009  0.1411015E+03  0.7561462E-02  0.1211854E+00
         -1   -1    0    0    0  501 -0.00000000000E+00  0.00000000000E+00  0.74447803284E+02  0.74447803284E+02  0.00000000000E+00 0.  1.
          1   -1    0    0  501    0  0.00000000000E+00 -0.00000000000E+00 -0.46582827115E+03  0.46582827115E+03  0.00000000000E+00 0. -1.
         25    2    1    2    0    0 -0.13738806936E+02 -0.12287395067E+03 -0.77555188620E+02  0.19221969116E+03  0.12508732876E+03 0.  0.
          5    1    3    3  502    0 -0.30239824773E+02 -0.23155020771E+02  0.26894393676E+02  0.46812207814E+02  0.41800000000E+01 0.  1.
         -5    1    3    3    0  502  0.16501017837E+02 -0.99718929904E+02 -0.10444958230E+03  0.14540748335E+03  0.41800000000E+01 0.  1.
        -11    1    1    2    0    0 -0.29097643191E+02  0.59486777785E+02 -0.91597427623E+02  0.11302848454E+03  0.00000000000E+00 0.  1.
         11    1    1    2    0    0  0.42836450127E+02  0.63387172889E+02 -0.22222785163E+03  0.23502789874E+03  0.00000000000E+00 0. -1.
</event>
<event>
 7    1  0.2943257E-009  0.1395302E+03  0.7561462E-02  0.1213962E+00
         -2   -1    0    0    0  501 -0.00000000000E+00  0.00000000000E+00  0.26785623012E+03  0.26785623012E+03  0.00000000000E+00 0.  1.
          2   -1    0    0  501    0  0.00000000000E+00 -0.00000000000E+00 -0.97426347570E+02  0.97426347570E+02  0.00000000000E+00 0. -1.
         25    2    1    2    0    0 -0.94389199141E+02  0.48773465055E+02  0.15297572445E+03  0.22435912899E+03  0.12508906700E+03 0.  0.
          5    1    3    3  502    0 -0.91855466777E+02 -0.12044047198E+02  0.12884224625E+03  0.15874596898E+03  0.41800000000E+01 0.  1.
         -5    1    3    3    0  502 -0.25337323644E+01  0.60817512254E+02  0.24133478198E+02  0.65613160009E+02  0.41800000000E+01 0.  1.
        -11    1    1    2    0    0 -0.20716354692E+01 -0.26150775848E+02  0.31347798635E+02  0.40875900360E+02  0.00000000000E+00 0.  1.
         11    1    1    2    0    0  0.96460834611E+02 -0.22622689207E+02 -0.13893640534E+02  0.10004754834E+03  0.00000000000E+00 0. -1.
</event>
<event>
 7    1  0.2943257E-009  0.1104272E+03  0.7561462E-02  0.1259781E+00
          1   -1    0    0  501    0  0.00000000000E+00  0.00000000000E+00  0.31611583850E+03  0.31611583850E+03  0.00000000000E+00 0. -1.
         -1   -1    0    0    0  501 -0.00000000000E+00 -0.00000000000E+00 -0.58431396292E+02  0.58431396292E+02  0.00000000000E+00 0.  1.
         25    2    1    2    0    0  0.67610368836E+02 -0.41208802434E+02  0.15863418326E+03  0.21698112850E+03  0.12508668455E+03 0.  0.
          5    1    3    3  502    0  0.49499814565E+01  0.30870236562E+02  0.99945286859E+02  0.10480461148E+03  0.41800000000E+01 0.  1.
         -5    1    3    3    0  502  0.62660387379E+02 -0.72079038996E+02  0.58688896402E+02  0.11217651702E+03  0.41800000000E+01 0.  1.
        -11    1    1    2    0    0 -0.48551613554E+02  0.26726163547E+00  0.10131624889E+03  0.11234906718E+03  0.00000000000E+00 0.  1.
         11    1    1    2    0    0 -0.19058755282E+02  0.40941540799E+02 -0.22659899424E+01  0.45217039115E+02  0.00000000000E+00 0. -1.
</event>
<event>
 7    1  0.2943257E-009  0.1027047E+03  0.7561462E-02  0.1274709E+00
          2   -1    0    0  501    0  0.00000000000E+00  0.00000000000E+00  0.23210952549E+03  0.23210952549E+03  0.00000000000E+00 0.  1.
         -2   -1    0    0    0  501 -0.00000000000E+00 -0.00000000000E+00 -0.68479966752E+02  0.68479966752E+02  0.00000000000E+00 0. -1.
         25    2    1    2    0    0 -0.10799943761E+02 -0.53793956487E+02  0.32911668183E+02  0.14052709576E+03  0.12511697807E+03 0.  0.
          5    1    3    3  502    0  0.40954484942E+02 -0.48148339633E+02  0.54929717428E+02  0.83846757259E+02  0.41800000000E+01 0. -1.
         -5    1    3    3    0  502 -0.51754428703E+02 -0.56456168540E+01 -0.22018049244E+02  0.56680338501E+02  0.41800000000E+01 0. -1.
        -11    1    1    2    0    0 -0.29558168622E+01  0.69151618025E+02  0.11465196295E+03  0.13392444040E+03  0.00000000000E+00 0.  1.
         11    1    1    2    0    0  0.13755760623E+02 -0.15357661538E+02  0.16065927608E+02  0.26137956082E+02  0.00000000000E+00 0. -1.
</event>
<event>
 7    1  0.2943257E-009  0.1571515E+03  0.7561462E-02  0.1191951E+00
         -1   -1    0    0    0  501 -0.00000000000E+00  0.00000000000E+00  0.62432119167E+03  0.62432119167E+03  0.00000000000E+00 0.  1.
          1   -1    0    0  501    0  0.00000000000E+00 -0.00000000000E+00 -0.61835818290E+02  0.61835818290E+02  0.00000000000E+00 0. -1.
         25    2    1    2    0    0 -0.12102074326E+03 -0.61993184067E+02  0.13672727666E+03  0.22985018890E+03  0.12509031131E+03 0.  0.
          5    1    3    3  502    0 -0.73442438702E+02  0.65916359023E+00  0.13176894615E+03  0.15091306726E+03  0.41800000000E+01 0. -1.
         -5    1    3    3    0  502 -0.47578304562E+02 -0.62652347658E+02  0.49583305109E+01  0.78937121644E+02  0.41800000000E+01 0. -1.
        -11    1    1    2    0    0  0.89259334633E+02  0.84592842390E+02  0.28840368981E+03  0.31352809459E+03  0.00000000000E+00 0. -1.
         11    1    1    2    0    0  0.31761408630E+02 -0.22599658322E+02  0.13735440691E+03  0.14277872647E+03  0.00000000000E+00 0.  1.
</event>
<event>
 7    1  0.2943257E-009  0.1352301E+03  0.7561462E-02  0.1219895E+00
         -1   -1    0    0    0  501 -0.00000000000E+00  0.00000000000E+00  0.36864453295E+03  0.36864453295E+03  0.00000000000E+00 0.  1.
          1   -1    0    0  501    0  0.00000000000E+00 -0.00000000000E+00 -0.84819644657E+02  0.84819644657E+02  0.00000000000E+00 0. -1.
         25    2    1    2    0    0  0.53478408561E+00  0.12372235438E+03  0.24678600522E+03  0.30308150225E+03  0.12509019810E+03 0.  0.
          5    1    3    3  502    0  0.60002480182E+01  0.91162529680E+02  0.25318191700E+03  0.26919354615E+03  0.41800000000E+01 0. -1.
         -5    1    3    3    0  502 -0.54654639326E+01  0.32559824702E+02 -0.63959117788E+01  0.33887956092E+02  0.41800000000E+01 0. -1.
        -11    1    1    2    0    0  0.26729585876E+02 -0.96147095672E+01  0.61390610478E+01  0.29062028004E+02  0.00000000000E+00 0. -1.
         11    1    1    2    0    0 -0.27264369961E+02 -0.11410764481E+03  0.30899822023E+02  0.12132064736E+03  0.00000000000E+00 0.  1.
</event>
<event>
 7    1  0.2943257E-009  0.2039473E+03  0.7561462E-02  0.1146451E+00
         -1   -1    0    0    0  501 -0.00000000000E+00  0.00000000000E+00  0.25442219975E+02  0.25442219975E+02  0.00000000000E+00 0.  1.
          1   -1    0    0  501    0  0.00000000000E+00 -0.00000000000E+00 -0.20534113515E+04  0.20534113515E+04  0.00000000000E+00 0. -1.
         25    2    1    2    0    0 -0.19886466646E+03  0.24692583131E+02 -0.10808826301E+04  0.11063958472E+04  0.12509049300E+03 0.  0.
          5    1    3    3  502    0 -0.50352923083E+02 -0.81259660805E+01 -0.59620165594E+03  0.59839396315E+03  0.41800000000E+01 0. -1.
         -5    1    3    3    0  502 -0.14851174337E+03  0.32818549211E+02 -0.48468097411E+03  0.50800188401E+03  0.41800000000E+01 0. -1.
        -11    1    1    2    0    0  0.49581186284E+02  0.11633109452E+02 -0.10779911607E+03  0.11922362473E+03  0.00000000000E+00 0.  1.
         11    1    1    2    0    0  0.14928348017E+03 -0.36325692583E+02 -0.83928738536E+03  0.85323409954E+03  0.00000000000E+00 0. -1.
</event>
<event>
 7    1  0.2943257E-009  0.1086928E+03  0.7561462E-02  0.1263010E+00
          1   -1    0    0  501    0  0.00000000000E+00  0.00000000000E+00  0.62281639377E+02  0.62281639377E+02  0.00000000000E+00 0. -1.
         -1   -1    0    0    0  501 -0.00000000000E+00 -0.00000000000E+00 -0.20596754385E+03  0.20596754385E+03  0.00000000000E+00 0.  1.
         25    2    1    2    0    0 -0.13640291453E+02  0.53936255555E+01 -0.11313484133E+03  0.16933765008E+03  0.12514231364E+03 0.  0.
          5    1    3    3  502    0  0.32791552412E+02 -0.45976514255E+02 -0.50425977956E+02  0.75824649195E+02  0.41800000000E+01 0.  1.
         -5    1    3    3    0  502 -0.46431843865E+02  0.51370139811E+02 -0.62708863373E+02  0.93513000885E+02  0.41800000000E+01 0.  1.
        -11    1    1    2    0    0  0.31125337166E+02  0.35320695132E+02 -0.39815811080E+01  0.47246069746E+02  0.00000000000E+00 0. -1.
         11    1    1    2    0    0 -0.17485045713E+02 -0.40714320688E+02 -0.26569482032E+02  0.51665463398E+02  0.00000000000E+00 0.  1.
</event>
<event>
 7    1  0.2943257E-009  0.9921533E+02  0.7561462E-02  0.1281955E+00
         -1   -1    0    0    0  501 -0.00000000000E+00  0.00000000000E+00  0.22099311959E+03  0.22099311959E+03  0.00000000000E+00 0.  1.
          1   -1    0    0  501    0  0.00000000000E+00 -0.00000000000E+00 -0.82450344802E+02  0.82450344802E+02  0.00000000000E+00 0. -1.
         25    2    1    2    0    0  0.24795732756E+02 -0.30587629924E+02  0.15641947235E+03  0.20411839373E+03  0.12508731295E+03 0.  0.
          5    1    3    3  502    0  0.32775404252E+01  0.48278504857E+02  0.48188163013E+02  0.68418767579E+02  0.41800000000E+01 0. -1.
         -5    1    3    3    0  502  0.21518192331E+02 -0.78866134781E+02  0.10823130934E+03  0.13569962615E+03  0.41800000000E+01 0. -1.
        -11    1    1    2    0    0 -0.31793666873E+02  0.43166028239E+02 -0.44094951082E+02  0.69415473478E+02  0.00000000000E+00 0. -1.
         11    1    1    2    0    0  0.69979341173E+01 -0.12578398315E+02  0.26218253517E+02  0.29909597182E+02  0.00000000000E+00 0.  1.
</event>
<event>
 7    1  0.2943257E-009  0.1960665E+03  0.7561462E-02  0.1153101E+00
          1   -1    0    0  501    0  0.00000000000E+00  0.00000000000E+00  0.53768753998E+03  0.53768753998E+03  0.00000000000E+00 0. -1.
         -1   -1    0    0    0  501 -0.00000000000E+00 -0.00000000000E+00 -0.96251977138E+02  0.96251977138E+02  0.00000000000E+00 0.  1.
         25    2    1    2    0    0  0.19266584180E+03  0.24517559387E+02  0.29546762693E+03  0.37506097119E+03  0.12509347000E+03 0.  0.
          5    1    3    3  502    0  0.24649182758E+02 -0.53085483786E+00  0.14791428169E+03  0.15001323657E+03  0.41800000000E+01 0.  1.
         -5    1    3    3    0  502  0.16801665904E+03  0.25048414225E+02  0.14755334524E+03  0.22504773462E+03  0.41800000000E+01 0.  1.
        -11    1    1    2    0    0 -0.10591232262E+03  0.36916724961E+01  0.12751818173E+03  0.16580692145E+03  0.00000000000E+00 0. -1.
         11    1    1    2    0    0 -0.86753519178E+02 -0.28209231883E+02  0.18449754183E+02  0.93071624476E+02  0.00000000000E+00 0.  1.
</event>
<event>
 7    1  0.2943257E-009  0.8859406E+02  0.7561462E-02  0.1306293E+00
          1   -1    0    0  501    0  0.00000000000E+00  0.00000000000E+00  0.22449560885E+03  0.22449560885E+03  0.00000000000E+00 0. -1.
         -1   -1    0    0    0  501 -0.00000000000E+00 -0.00000000000E+00 -0.56277554326E+02  0.56277554326E+02  0.00000000000E+00 0.  1.
         25    2    1    2    0    0 -0.26306215048E+02  0.10745783848E+02  0.11663123531E+03  0.17337237528E+03  0.12509055375E+03 0.  0.
          5    1    3    3  502    0  0.32995804639E+01 -0.31717269876E+02 -0.12254574755E+02  0.34416848230E+02  0.41800000000E+01 0. -1.
         -5    1    3    3    0  502 -0.29605795512E+02  0.42463053725E+02  0.12888581007E+03  0.13895552705E+03  0.41800000000E+01 0. -1.
        -11    1    1    2    0    0  0.17813765103E+02 -0.49923153704E+02  0.37420348488E+02  0.64884004068E+02  0.00000000000E+00 0.  1.
         11    1    1    2    0    0  0.84924499454E+01  0.39177369856E+02  0.14166470724E+02  0.42516783835E+02  0.00000000000E+00 0. -1.
</event>
<event>
 7    1  0.2943257E-009  0.1279486E+03  0.7561462E-02  0.1230532E+00
         -3   -1    0    0    0  501 -0.00000000000E+00  0.00000000000E+00  0.62128691064E+02  0.62128691064E+02  0.00000000000E+00 0.  1.
          3   -1    0    0  501    0  0.00000000000E+00 -0.00000000000E+00 -0.42315870351E+03  0.42315870351E+03  0.00000000000E+00 0. -1.
         25    2    1    2    0    0  0.10721841192E+03  0.41474039146E+02 -0.25615023135E+03  0.30736954330E+03  0.12508881386E+03 0.  0.
          5    1    3    3  502    0  0.20760384958E+02  0.20475513493E+01 -0.19076548809E+03  0.19194824797E+03  0.41800000000E+01 0. -1.
         -5    1    3    3    0  502  0.86458026965E+02  0.39426487797E+02 -0.65384743253E+02  0.11542129534E+03  0.41800000000E+01 0. -1.
        -11    1    1    2    0    0  0.95050873433E+01 -0.18130957820E+02 -0.33089983086E+02  0.38910477991E+02  0.00000000000E+00 0. -1.
         11    1    1    2    0    0 -0.11672349927E+03 -0.23343081326E+02 -0.71789798010E+02  0.13900737328E+03  0.00000000000E+00 0.  1.
</event>
<event>
 7    1  0.2943257E-009  0.1200129E+03  0.7561462E-02  0.1243076E+00
         -1   -1    0    0    0  501 -0.00000000000E+00  0.00000000000E+00  0.49014153092E+02  0.49014153092E+02  0.00000000000E+00 0.  1.
          1   -1    0    0  501    0  0.00000000000E+00 -0.00000000000E+00 -0.45028720412E+03  0.45028720412E+03  0.00000000000E+00 0. -1.
         25    2    1    2    0    0  0.61070095137E+01 -0.59403804062E+02 -0.35393771183E+03  0.38011209079E+03  0.12508872932E+03 0.  0.
          5    1    3    3  502    0  0.57772808432E+02 -0.90675644567E+01 -0.98268868525E+02  0.11442972097E+03  0.41800000000E+01 0. -1.
         -5    1    3    3    0  502 -0.51665798918E+02 -0.50336239605E+02 -0.25566884331E+03  0.26568236982E+03  0.41800000000E+01 0. -1.
        -11    1    1    2    0    0 -0.48832483987E+02  0.32115773155E+02 -0.21375488045E+02  0.62232996608E+02  0.00000000000E+00 0. -1.
         11    1    1    2    0    0  0.42725474473E+02  0.27288030907E+02 -0.25959851151E+02  0.56956269818E+02  0.00000000000E+00 0.  1.
</event>
<event>
 7    1  0.2943257E-009  0.1268748E+03  0.7561462E-02  0.1232168E+00
          4   -1    0    0  501    0  0.00000000000E+00  0.00000000000E+00  0.16240739021E+03  0.16240739021E+03  0.00000000000E+00 0. -1.
         -4   -1    0    0    0  501 -0.00000000000E+00 -0.00000000000E+00 -0.12668436889E+03  0.12668436889E+03  0.00000000000E+00 0.  1.
         25    2    1    2    0    0 -0.59757320003E+02  0.57450992337E+02  0.63119035275E+02  0.16279513411E+03  0.12508672696E+03 0.  0.
          5    1    3    3  502    0  0.33223310552E+02  0.22245292662E+02 -0.73402583455E+01  0.40865550311E+02  0.41800000000E+01 0.  1.
         -5    1    3    3    0  502 -0.92980630555E+02  0.35205699675E+02  0.70459293621E+02  0.12192958380E+03  0.41800000000E+01 0.  1.
        -11    1    1    2    0    0 -0.89779629016E+01 -0.42835738195E+02 -0.34412640169E+02  0.55675255616E+02  0.00000000000E+00 0.  1.
         11    1    1    2    0    0  0.68735282905E+02 -0.14615254142E+02  0.70166262136E+01  0.70621369380E+02  0.00000000000E+00 0. -1.
</event>
<event>
 7    1  0.2943257E-009  0.1453830E+03  0.7561462E-02  0.1206264E+00
         -1   -1    0    0    0  501 -0.00000000000E+00  0.00000000000E+00  0.23022302041E+02  0.23022302041E+02  0.00000000000E+00 0.  1.
          1   -1    0    0  501    0  0.00000000000E+00 -0.00000000000E+00 -0.12011865347E+04  0.12011865347E+04  0.00000000000E+00 0. -1.
         25    2    1    2    0    0  0.12269524224E+03  0.10942379192E+02 -0.56408401879E+03  0.59077187114E+03  0.12508703105E+03 0.  0.
          5    1    3    3  502    0  0.12552786710E+03  0.17537138372E+01 -0.28454636177E+03  0.31103765901E+03  0.41800000000E+01 0. -1.
         -5    1    3    3    0  502 -0.28326248635E+01  0.91886653550E+01 -0.27953765703E+03  0.27973421212E+03  0.41800000000E+01 0. -1.
        -11    1    1    2    0    0 -0.50954034763E+02  0.41574225510E+02 -0.29172239751E+03  0.29904295193E+03  0.00000000000E+00 0.  1.
         11    1    1    2    0    0 -0.71741207477E+02 -0.52516604703E+02 -0.32235781634E+03  0.33439401367E+03  0.00000000000E+00 0. -1.
</event>
<event>
 7    1  0.2943257E-009  0.9822906E+02  0.7561462E-02  0.1284065E+00
          2   -1    0    0  501    0  0.00000000000E+00  0.00000000000E+00  0.27795167557E+03  0.27795167557E+03  0.00000000000E+00 0. -1.
         -2   -1    0    0    0  501 -0.00000000000E+00 -0.00000000000E+00 -0.56310643880E+02  0.56310643880E+02  0.00000000000E+00 0.  1.
         25    2    1    2    0    0  0.50009671576E+02 -0.47918035297E+01  0.17457967860E+03  0.22056640054E+03  0.12509014442E+03 0.  0.
          5    1    3    3  502    0  0.55641207816E+02 -0.38485273423E+02  0.17334752072E+03  0.18612870713E+03  0.41800000000E+01 0. -1.
         -5    1    3    3    0  502 -0.56315362406E+01  0.33693469894E+02  0.12321578791E+01  0.34437693403E+02  0.41800000000E+01 0. -1.
        -11    1    1    2    0    0 -0.23690942721E+02  0.42274143364E+02  0.61104074613E+00  0.48463773429E+02  0.00000000000E+00 0.  1.
         11    1    1    2    0    0 -0.26318728855E+02 -0.37482339834E+02  0.46450312336E+02  0.65232145481E+02  0.00000000000E+00 0. -1.
</event>
<event>
 7    1  0.2943257E-009  0.1003960E+03  0.7561462E-02  0.1279465E+00
          2   -1    0    0  501    0  0.00000000000E+00  0.00000000000E+00  0.78735993763E+03  0.78735993763E+03  0.00000000000E+00 0. -1.
         -2   -1    0    0    0  501 -0.00000000000E+00 -0.00000000000E+00 -0.15682965828E+02  0.15682965828E+02  0.00000000000E+00 0.  1.
         25    2    1    2    0    0 -0.31907736109E+01 -0.48897746860E+01  0.53694637757E+03  0.55135601676E+03  0.12509178192E+03 0.  0.
          5    1    3    3  502    0 -0.60208940547E+02 -0.20894704108E+02  0.32688908621E+03  0.33307004108E+03  0.41800000000E+01 0. -1.
         -5    1    3    3    0  502  0.57018166936E+02  0.16004929422E+02  0.21005729136E+03  0.21828597568E+03  0.41800000000E+01 0. -1.
        -11    1    1    2    0    0  0.40275119277E+02  0.12901041726E+01  0.18616203532E+03  0.19047323433E+03  0.00000000000E+00 0. -1.
         11    1    1    2    0    0 -0.37084345666E+02  0.35996705133E+01  0.48568558919E+02  0.61213652372E+02  0.00000000000E+00 0.  1.
</event>
<event>
 7    1  0.2943257E-009  0.6694901E+02  0.7561462E-02  0.1370787E+00
          3   -1    0    0  501    0  0.00000000000E+00  0.00000000000E+00  0.28100172340E+02  0.28100172340E+02  0.00000000000E+00 0. -1.
         -3   -1    0    0    0  501 -0.00000000000E+00 -0.00000000000E+00 -0.50691378348E+03  0.50691378348E+03  0.00000000000E+00 0.  1.
         25    2    1    2    0    0  0.63015156568E+01  0.19073141892E+02 -0.36644269750E+03  0.38772501685E+03  0.12508774639E+03 0.  0.
          5    1    3    3  502    0  0.27065051050E+02  0.25992100253E+02 -0.36326040627E+03  0.36521733451E+03  0.41800000000E+01 0.  1.
         -5    1    3    3    0  502 -0.20763535394E+02 -0.69189583612E+01 -0.31822912328E+01  0.22507682340E+02  0.41800000000E+01 0.  1.
        -11    1    1    2    0    0  0.32273237523E+02 -0.13075306312E+02 -0.10068923037E+03  0.10654035202E+03  0.00000000000E+00 0.  1.
         11    1    1    2    0    0 -0.38574753180E+02 -0.59978355800E+01 -0.11681683265E+02  0.40748586951E+02  0.00000000000E+00 0. -1.
</event>
<event>
 7    1  0.2943257E-009  0.3342564E+03  0.7561462E-02  0.1069269E+00
          1   -1    0    0  501    0  0.00000000000E+00  0.00000000000E+00  0.17507375151E+03  0.17507375151E+03  0.00000000000E+00 0. -1.
         -1   -1    0    0    0  501 -0.00000000000E+00 -0.00000000000E+00 -0.71642559526E+03  0.71642559526E+03  0.00000000000E+00 0.  1.
         25    2    1    2    0    0  0.32901467205E+03 -0.81076681955E+01 -0.18275217572E+03  0.39668908162E+03  0.12508989184E+03 0.  0.
          5    1    3    3  502    0  0.19940443004E+03  0.18127525356E+02 -0.17192148337E+03  0.26394166541E+03  0.41800000000E+01 0.  1.
         -5    1    3    3    0  502  0.12961024201E+03 -0.26235193551E+02 -0.10830692352E+02  0.13274741621E+03  0.41800000000E+01 0.  1.
        -11    1    1    2    0    0 -0.19310439851E+02 -0.16303979137E+02 -0.54532177658E+02  0.60103837008E+02  0.00000000000E+00 0. -1.
         11    1    1    2    0    0 -0.30970423220E+03  0.24411647333E+02 -0.30406749038E+03  0.43470642814E+03  0.00000000000E+00 0.  1.
</event>
<event>
 7    1  0.2943257E-009  0.8303281E+02  0.7561462E-02  0.1320659E+00
         -2   -1    0    0    0  501 -0.00000000000E+00  0.00000000000E+00  0.37924000424E+03  0.37924000424E+03  0.00000000000E+00 0. -1.
          2   -1    0    0  501    0  0.00000000000E+00 -0.00000000000E+00 -0.40892715912E+02  0.40892715912E+02  0.00000000000E+00 0.  1.
         25    2    1    2    0    0  0.37739128653E+02  0.11741175904E+02  0.27038219721E+03  0.30052538348E+03  0.12508747542E+03 0.  0.
          5    1    3    3  502    0 -0.34876363959E+01 -0.17389366498E+02  0.24156047648E+03  0.24224675410E+03  0.41800000000E+01 0.  1.
         -5    1    3    3    0  502  0.41226765048E+02  0.29130542401E+02  0.28821720727E+02  0.58278629382E+02  0.41800000000E+01 0.  1.
        -11    1    1    2    0    0 -0.44914691221E+02  0.30534440737E+02  0.47239955281E+02  0.71981212365E+02  0.00000000000E+00 0. -1.
         11    1    1    2    0    0  0.71755625688E+01 -0.42275616640E+02  0.20725135837E+02  0.47626124301E+02  0.00000000000E+00 0.  1.
</event>
<event>
 7    1  0.2943257E-009  0.1034701E+03  0.7561462E-02  0.1273163E+00
         -2   -1    0    0    0  501 -0.00000000000E+00  0.00000000000E+00  0.16786769019E+02  0.16786769019E+02  0.00000000000E+00 0.  1.
          2   -1    0    0  501    0  0.00000000000E+00 -0.00000000000E+00 -0.71758087737E+03  0.71758087737E+03  0.00000000000E+00 0. -1.
         25    2    1    2    0    0 -0.10098282242E+02  0.12804134004E+01 -0.48940339533E+03  0.50523953295E+03  0.12509071720E+03 0.  0.
          5    1    3    3  502    0 -0.62129582265E+02  0.25924598748E+02 -0.24538926043E+03  0.25449072939E+03  0.41800000000E+01 0. -1.
         -5    1    3    3    0  502  0.52031300023E+02 -0.24644185347E+02 -0.24401413490E+03  0.25074880355E+03  0.41800000000E+01 0. -1.
        -11    1    1    2    0    0  0.73283502452E+01 -0.41151020554E+02 -0.15124293351E+03  0.15691251112E+03  0.00000000000E+00 0. -1.
         11    1    1    2    0    0  0.27699319969E+01  0.39870607154E+02 -0.60147779506E+02  0.72215602314E+02  0.00000000000E+00 0.  1.
</event>
<event>
 7    1  0.2943257E-009  0.1356819E+03  0.7561462E-02  0.1219260E+00
         -1   -1    0    0    0  501 -0.00000000000E+00  0.00000000000E+00  0.33861162354E+02  0.33861162354E+02  0.00000000000E+00 0.  1.
          1   -1    0    0  501    0  0.00000000000E+00 -0.00000000000E+00 -0.79269983089E+03  0.79269983089E+03  0.00000000000E+00 0. -1.
         25    2    1    2    0    0  0.88633828471E+02  0.11040968959E+02 -0.61558953862E+03  0.63448825939E+03  0.12508801980E+03 0.  0.
          5    1    3    3  502    0  0.55162678673E+02  0.67896406857E+02 -0.35518057916E+03  0.36581902547E+03  0.41800000000E+01 0. -1.
         -5    1    3    3    0  502  0.33471149798E+02 -0.56855437898E+02 -0.26040895947E+03  0.26866923393E+03  0.41800000000E+01 0. -1.
        -11    1    1    2    0    0  0.14252629676E+02 -0.19946721525E+01 -0.52984962306E+02  0.54904666470E+02  0.00000000000E+00 0.  1.
         11    1    1    2    0    0 -0.10288645815E+03 -0.90462968064E+01 -0.90264167610E+02  0.13716806739E+03  0.00000000000E+00 0. -1.
</event>
<event>
 7    1  0.3458452E-009  0.1502579E+03  0.7561462E-02  0.1200156E+00
         -2   -1    0    0    0  501 -0.00000000000E+00  0.00000000000E+00  0.83797545610E+02  0.83797545610E+02  0.00000000000E+00 0.  1.
          2   -1    0    0  501    0  0.00000000000E+00 -0.00000000000E+00 -0.40185222161E+03  0.40185222161E+03  0.00000000000E+00 0. -1.
         25    2    1    2    0    0 -0.12341325242E+03 -0.46025591128E+02 -0.25573120832E+03  0.31368039623E+03  0.12509098354E+03 0.  0.
          5    1    3    3  502    0 -0.46753652380E+01 -0.40241980609E+02 -0.14694507901E+03  0.15248476871E+03  0.41800000000E+01 0. -1.
         -5    1    3    3    0  502 -0.11873788718E+03 -0.57836105190E+01 -0.10878612930E+03  0.16119562752E+03  0.41800000000E+01 0. -1.
        -11    1    1    2    0    0  0.92677509154E+02  0.95966037002E+01  0.42168554990E+00  0.93173994893E+02  0.00000000000E+00 0.  1.
         11    1    1    2    0    0  0.30735743268E+02  0.36428987427E+02 -0.62745153240E+02  0.78795376097E+02  0.00000000000E+00 0. -1.
</event>
<event>
 7    1  0.2943257E-009  0.1642917E+03  0.7561462E-02  0.1183935E+00
          1   -1    0    0  501    0  0.00000000000E+00  0.00000000000E+00  0.56580232839E+03  0.56580232839E+03  0.00000000000E+00 0. -1.
         -1   -1    0    0    0  501 -0.00000000000E+00 -0.00000000000E+00 -0.54542231033E+02  0.54542231033E+02  0.00000000000E+00 0.  1.
         25    2    1    2    0    0 -0.85371367831E+02 -0.69842722583E+02  0.19563100853E+03  0.25707092270E+03  0.12509073289E+03 0.  0.
          5    1    3    3  502    0  0.19862042254E+02 -0.35704656393E+02  0.12244344920E+02  0.42856966681E+02  0.41800000000E+01 0.  1.
         -5    1    3    3    0  502 -0.10523341008E+03 -0.34138066191E+02  0.18338666361E+03  0.21421395602E+03  0.41800000000E+01 0.  1.
        -11    1    1    2    0    0  0.11871920943E+03  0.25683990157E+02  0.18389134325E+03  0.22038589828E+03  0.00000000000E+00 0.  1.
         11    1    1    2    0    0 -0.33347841599E+02  0.44158732426E+02  0.13173774558E+03  0.14288773845E+03  0.00000000000E+00 0. -1.
</event>
<event>
 7    1  0.2943257E-009  0.9084564E+02  0.7561462E-02  0.1300817E+00
         -1   -1    0    0    0  501 -0.00000000000E+00  0.00000000000E+00  0.10977139004E+03  0.10977139004E+03  0.00000000000E+00 0. -1.
          1   -1    0    0  501    0  0.00000000000E+00 -0.00000000000E+00 -0.15854924700E+03  0.15854924700E+03  0.00000000000E+00 0.  1.
         25    2    1    2    0    0  0.23620936294E+02  0.70387655149E+02 -0.21237170687E+02  0.14700671385E+03  0.12509031085E+03 0.  0.
          5    1    3    3  502    0  0.41734509200E+02  0.52868436591E+02  0.41530241063E+02  0.79240609340E+02  0.41800000000E+01 0. -1.
         -5    1    3    3    0  502 -0.18113572905E+02  0.17519218557E+02 -0.62767411750E+02  0.67766104507E+02  0.41800000000E+01 0. -1.
        -11    1    1    2    0    0 -0.37135516246E+02 -0.63330845540E+02  0.16036573796E+02  0.75146618439E+02  0.00000000000E+00 0. -1.
         11    1    1    2    0    0  0.13514579952E+02 -0.70568096088E+01 -0.43577260074E+02  0.46167304759E+02  0.00000000000E+00 0.  1.
</event>
<event>
 7    1  0.2943257E-009  0.9896379E+02  0.7561462E-02  0.1282490E+00
         -1   -1    0    0    0  501 -0.00000000000E+00  0.00000000000E+00  0.18412968266E+03  0.18412968266E+03  0.00000000000E+00 0.  1.
          1   -1    0    0  501    0  0.00000000000E+00 -0.00000000000E+00 -0.12822854770E+03  0.12822854770E+03  0.00000000000E+00 0. -1.
         25    2    1    2    0    0  0.45334688985E+02 -0.27091514468E+02  0.12387731767E+03  0.18380032664E+03  0.12509111103E+03 0.  0.
          5    1    3    3  502    0 -0.23395819474E+02  0.63851868392E+01  0.10090754395E+03  0.10386500761E+03  0.41800000000E+01 0.  1.
         -5    1    3    3    0  502  0.68730508459E+02 -0.33476701307E+02  0.22969773711E+02  0.79935319026E+02  0.41800000000E+01 0.  1.
        -11    1    1    2    0    0 -0.17153088970E+01  0.48245673421E+02 -0.63650090746E+02  0.79886928470E+02  0.00000000000E+00 0. -1.
         11    1    1    2    0    0 -0.43619380088E+02 -0.21154158953E+02 -0.43260919597E+01  0.48670975251E+02  0.00000000000E+00 0.  1.
</event>
<event>
 7    1  0.2943257E-009  0.9107821E+02  0.7561462E-02  0.1300261E+00
         -2   -1    0    0    0  501 -0.00000000000E+00  0.00000000000E+00  0.12192544552E+02  0.12192544552E+02  0.00000000000E+00 0. -1.
          2   -1    0    0  501    0  0.00000000000E+00 -0.00000000000E+00 -0.17051555054E+04  0.17051555054E+04  0.00000000000E+00 0.  1.
         25    2    1    2    0    0 -0.20400204948E+01 -0.97473130352E+01 -0.14865812276E+04  0.14918674701E+04  0.12508249389E+03 0.  0.
          5    1    3    3  502    0 -0.19578153741E+02 -0.49751303315E+02 -0.12562358596E+04  0.12573800156E+04  0.41800000000E+01 0.  1.
         -5    1    3    3    0  502  0.17538133246E+02  0.40003990280E+02 -0.23034536801E+03  0.23448745450E+03  0.41800000000E+01 0.  1.
        -11    1    1    2    0    0 -0.22918859926E+02 -0.29977152362E+02 -0.13410416259E+03  0.13931198882E+03  0.00000000000E+00 0.  1.
         11    1    1    2    0    0  0.24958880421E+02  0.39724465398E+02 -0.72277570694E+02  0.86168591079E+02  0.00000000000E+00 0. -1.
</event>
<event>
 7    1  0.2943257E-009  0.8548888E+02  0.7561462E-02  0.1314159E+00
         -4   -1    0    0    0  501 -0.00000000000E+00  0.00000000000E+00  0.28535973790E+03  0.28535973790E+03  0.00000000000E+00 0.  1.
          4   -1    0    0  501    0  0.00000000000E+00 -0.00000000000E+00 -0.36291858551E+02  0.36291858551E+02  0.00000000000E+00 0. -1.
         25    2    1    2    0    0 -0.12871293912E+01 -0.16098825550E+02  0.12899626641E+03  0.18041155263E+03  0.12508981847E+03 0.  0.
          5    1    3    3  502    0 -0.50135369360E+02  0.29278583543E+02  0.48198513837E+02  0.75573539359E+02  0.41800000000E+01 0.  1.
         -5    1    3    3    0  502  0.48848239968E+02 -0.45377409093E+02  0.80797752578E+02  0.10483801327E+03  0.41800000000E+01 0.  1.
        -11    1    1    2    0    0 -0.20852133278E+02  0.90462469651E+01  0.42663542967E+01  0.23126777238E+02  0.00000000000E+00 0. -1.
         11    1    1    2    0    0  0.22139262670E+02  0.70525785851E+01  0.11580525863E+03  0.11811326659E+03  0.00000000000E+00 0.  1.
</event>
<event>
 7    1  0.2943257E-009  0.1783864E+03  0.7561462E-02  0.1169374E+00
         -2   -1    0    0    0  501 -0.00000000000E+00  0.00000000000E+00  0.54823327120E+02  0.54823327120E+02  0.00000000000E+00 0. -1.
          2   -1    0    0  501    0  0.00000000000E+00 -0.00000000000E+00 -0.65385405492E+03  0.65385405492E+03  0.00000000000E+00 0.  1.
         25    2    1    2    0    0 -0.10721217742E+03  0.11170154895E+03 -0.27543802694E+03  0.33983436650E+03  0.12509837307E+03 0.  0.
          5    1    3    3  502    0 -0.59379552756E+02  0.13017316130E+03 -0.23150882396E+03  0.27218521484E+03  0.41800000000E+01 0. -1.
         -5    1    3    3    0  502 -0.47832624666E+02 -0.18471612349E+02 -0.43929202980E+02  0.67649151655E+02  0.41800000000E+01 0. -1.
        -11    1    1    2    0    0  0.23484113016E+02 -0.11531338156E+01 -0.12144502863E+03  0.12370015465E+03  0.00000000000E+00 0.  1.
         11    1    1    2    0    0  0.83728064405E+02 -0.11054841514E+03 -0.20214767224E+03  0.24514286090E+03  0.00000000000E+00 0. -1.
</event>
<event>
 7    1  0.2943257E-009  0.1207827E+03  0.7561462E-02  0.1241811E+00
         -2   -1    0    0    0  501 -0.00000000000E+00  0.00000000000E+00  0.91541063443E+02  0.91541063443E+02  0.00000000000E+00 0.  1.
          2   -1    0    0  501    0  0.00000000000E+00 -0.00000000000E+00 -0.22105359758E+03  0.22105359758E+03  0.00000000000E+00 0. -1.
         25    2    1    2    0    0  0.39980536902E+02 -0.60469563612E+02 -0.13183542613E+03  0.19566051395E+03  0.12508975051E+03 0.  0.
          5    1    3    3  502    0  0.67500834616E+02 -0.22126524025E+01 -0.10675739938E+03  0.12639570098E+03  0.41800000000E+01 0. -1.
         -5    1    3    3    0  502 -0.27520297714E+02 -0.58256911210E+02 -0.25078026751E+02  0.69264812969E+02  0.41800000000E+01 0. -1.
        -11    1    1    2    0    0 -0.56487737969E+01  0.72676846846E+02  0.21174223760E+02  0.75909027558E+02  0.00000000000E+00 0.  1.
         11    1    1    2    0    0 -0.34331763105E+02 -0.12207283234E+02 -0.18851331769E+02  0.41025119516E+02  0.00000000000E+00 0. -1.
</event>
<event>
 7    1  0.2943257E-009  0.8049252E+02  0.7561462E-02  0.1327660E+00
          2   -1    0    0  501    0  0.00000000000E+00  0.00000000000E+00  0.58191182756E+02  0.58191182756E+02  0.00000000000E+00 0. -1.
         -2   -1    0    0    0  501 -0.00000000000E+00 -0.00000000000E+00 -0.40801978108E+03  0.40801978108E+03  0.00000000000E+00 0.  1.
         25    2    1    2    0    0  0.28918661708E+02  0.37669841124E+02 -0.33018042862E+03  0.35626099455E+03  0.12508986717E+03 0.  0.
          5    1    3    3  502    0 -0.91713842936E+01  0.15128995408E+01  0.86446810237E+01  0.13364358005E+02  0.41800000000E+01 0.  1.
         -5    1    3    3    0  502  0.38090046002E+02  0.36156941583E+02 -0.33882510965E+03  0.34289663655E+03  0.41800000000E+01 0.  1.
        -11    1    1    2    0    0 -0.47294700127E+02  0.88278553468E+01  0.13491067297E+02  0.49967275161E+02  0.00000000000E+00 0.  1.
         11    1    1    2    0    0  0.18376038419E+02 -0.46497696471E+02 -0.33139236994E+02  0.59982694118E+02  0.00000000000E+00 0. -1.
</event>
<event>
 7    1  0.2943257E-009  0.1507865E+03  0.7561462E-02  0.1199510E+00
          1   -1    0    0  501    0  0.00000000000E+00  0.00000000000E+00  0.50122458131E+03  0.50122458131E+03  0.00000000000E+00 0. -1.
         -1   -1    0    0    0  501 -0.00000000000E+00 -0.00000000000E+00 -0.75379600364E+02  0.75379600364E+02  0.00000000000E+00 0.  1.
         25    2    1    2    0    0  0.38853745640E+02 -0.12975344369E+03  0.35058486763E+03  0.39611054874E+03  0.12509295628E+03 0.  0.
          5    1    3    3  502    0  0.40093173145E+02 -0.72602936062E+02  0.32108098444E+03  0.33164607615E+03  0.41800000000E+01 0. -1.
         -5    1    3    3    0  502 -0.12394275054E+01 -0.57150507630E+02  0.29503883191E+02  0.64464472589E+02  0.41800000000E+01 0. -1.
        -11    1    1    2    0    0 -0.38218820856E+02  0.74867105662E+01  0.44440481693E+01  0.39197942125E+02  0.00000000000E+00 0.  1.
         11    1    1    2    0    0 -0.63492478440E+00  0.12226673313E+03  0.70816065147E+02  0.14129569081E+03  0.00000000000E+00 0. -1.
</event>
<event>
 7    1  0.3348933E-009  0.9609986E+02  0.7561462E-02  0.1288718E+00
          1   -1    0    0  501    0  0.00000000000E+00  0.00000000000E+00  0.12396749358E+03  0.12396749358E+03  0.00000000000E+00 0. -1.
         -1   -1    0    0    0  501 -0.00000000000E+00 -0.00000000000E+00 -0.13241363171E+03  0.13241363171E+03  0.00000000000E+00 0.  1.
         25    2    1    2    0    0  0.30370175961E+02  0.60367864754E+02 -0.99903890984E+01  0.14252789190E+03  0.12509102851E+03 0.  0.
          5    1    3    3  502    0  0.18527272605E+02  0.88938956655E+02 -0.39889330917E+02  0.99307748751E+02  0.41800000000E+01 0. -1.
         -5    1    3    3    0  502  0.11842903357E+02 -0.28571091901E+02  0.29898941819E+02  0.43220143154E+02  0.41800000000E+01 0. -1.
        -11    1    1    2    0    0 -0.12403183399E+02 -0.81949832919E+01  0.42571440379E+02  0.45092396759E+02  0.00000000000E+00 0. -1.
         11    1    1    2    0    0 -0.17966992562E+02 -0.52172881462E+02 -0.41027189414E+02  0.68760836622E+02  0.00000000000E+00 0.  1.
</event>
<event>
 7    1  0.2943257E-009  0.1913275E+03  0.7561462E-02  0.1157269E+00
          2   -1    0    0  501    0  0.00000000000E+00  0.00000000000E+00  0.15114890601E+03  0.15114890601E+03  0.00000000000E+00 0. -1.
         -2   -1    0    0    0  501 -0.00000000000E+00 -0.00000000000E+00 -0.31180144520E+03  0.31180144520E+03  0.00000000000E+00 0.  1.
         25    2    1    2    0    0  0.11550773218E+03  0.14703132842E+03 -0.81435216041E+02  0.23924659954E+03  0.12508794207E+03 0.  0.
          5    1    3    3  502    0  0.94894490161E+02  0.84283572388E+02 -0.10919576332E+03  0.16748096000E+03  0.41800000000E+01 0. -1.
         -5    1    3    3    0  502  0.20613242019E+02  0.62747756031E+02  0.27760547274E+02  0.71765639539E+02  0.41800000000E+01 0. -1.
        -11    1    1    2    0    0 -0.16058205003E+02 -0.64936983277E+01  0.18823120750E+02  0.25580147393E+02  0.00000000000E+00 0. -1.
         11    1    1    2    0    0 -0.99449527177E+02 -0.14053763009E+03 -0.98040443899E+02  0.19812360427E+03  0.00000000000E+00 0.  1.
</event>
<event>
 7    1  0.2943257E-009  0.1966864E+03  0.7561462E-02  0.1152565E+00
         -2   -1    0    0    0  501 -0.00000000000E+00  0.00000000000E+00  0.50887092823E+03  0.50887092823E+03  0.00000000000E+00 0. -1.
          2   -1    0    0  501    0  0.00000000000E+00 -0.00000000000E+00 -0.84312995085E+02  0.84312995085E+02  0.00000000000E+00 0.  1.
         25    2    1    2    0    0 -0.16808374222E+02 -0.16607449495E+03  0.14166451031E+03  0.25215083823E+03  0.12509177601E+03 0.  0.
          5    1    3    3  502    0 -0.19845585768E+02 -0.18644228080E+03  0.12882626639E+03  0.22752637354E+03  0.41800000000E+01 0. -1.
         -5    1    3    3    0  502  0.30372115466E+01  0.20367785852E+02  0.12838243920E+02  0.24624464693E+02  0.41800000000E+01 0. -1.
        -11    1    1    2    0    0  0.45328659376E+02  0.61349873997E+02  0.77598026444E+02  0.10881152562E+03  0.00000000000E+00 0. -1.
         11    1    1    2    0    0 -0.28520285155E+02  0.10472462095E+03  0.20529539639E+03  0.23222155946E+03  0.00000000000E+00 0.  1.
</event>
<event>
 7    1  0.2943257E-009  0.1939012E+03  0.7561462E-02  0.1154989E+00
          2   -1    0    0  501    0  0.00000000000E+00  0.00000000000E+00  0.14371561921E+03  0.14371561921E+03  0.00000000000E+00 0. -1.
         -2   -1    0    0    0  501 -0.00000000000E+00 -0.00000000000E+00 -0.28401557155E+03  0.28401557155E+03  0.00000000000E+00 0.  1.
         25    2    1    2    0    0  0.49910861396E+02  0.16105393951E+03 -0.93242832991E+02  0.22971667685E+03  0.12508421244E+03 0.  0.
          5    1    3    3  502    0  0.77723846238E+02  0.51944477017E+02 -0.63801072546E+02  0.11325755703E+03  0.41800000000E+01 0.  1.
         -5    1    3    3    0  502 -0.27812984842E+02  0.10910946249E+03 -0.29441760445E+02  0.11645911982E+03  0.41800000000E+01 0.  1.
        -11    1    1    2    0    0  0.57241086251E+01 -0.95064036240E+02  0.81046511120E+01  0.95580446616E+02  0.00000000000E+00 0.  1.
         11    1    1    2    0    0 -0.55634970021E+02 -0.65989903269E+02 -0.55161770456E+02  0.10243406729E+03  0.00000000000E+00 0. -1.
</event>
<event>
 7    1  0.2943257E-009  0.1092347E+03  0.7561462E-02  0.1261994E+00
         -2   -1    0    0    0  501 -0.00000000000E+00  0.00000000000E+00  0.18164760024E+03  0.18164760024E+03  0.00000000000E+00 0.  1.
          2   -1    0    0  501    0  0.00000000000E+00 -0.00000000000E+00 -0.10268309790E+03  0.10268309790E+03  0.00000000000E+00 0. -1.
         25    2    1    2    0    0 -0.52219452348E+02 -0.59375241819E+02  0.69768528484E+02  0.16361206402E+03  0.12509584079E+03 0.  0.
          5    1    3    3  502    0 -0.71014184315E+02 -0.66460095447E+02  0.70315380252E+01  0.97605704688E+02  0.41800000000E+01 0.  1.
         -5    1    3    3    0  502  0.18794731966E+02  0.70848536277E+01  0.62736990459E+02  0.66006359333E+02  0.41800000000E+01 0.  1.
        -11    1    1    2    0    0  0.61346679233E+02  0.27110114575E+02  0.37497346479E+02  0.76840252200E+02  0.00000000000E+00 0.  1.
         11    1    1    2    0    0 -0.91272268845E+01  0.32265127245E+02 -0.28301372625E+02  0.43878381911E+02  0.00000000000E+00 0. -1.
</event>
<event>
 7    1  0.2943257E-009  0.8898110E+02  0.7561462E-02  0.1305338E+00
         -1   -1    0    0    0  501 -0.00000000000E+00  0.00000000000E+00  0.14675484614E+03  0.14675484614E+03  0.00000000000E+00 0.  1.
          1   -1    0    0  501    0  0.00000000000E+00 -0.00000000000E+00 -0.99288951991E+02  0.99288951991E+02  0.00000000000E+00 0. -1.
         25    2    1    2    0    0  0.17162477861E+02 -0.33234254946E+02  0.65732125815E+02  0.14617057365E+03  0.12508420320E+03 0.  0.
          5    1    3    3  502    0 -0.46606187102E+02  0.14998644574E+02  0.35361916674E+02  0.60539520696E+02  0.41800000000E+01 0. -1.
         -5    1    3    3    0  502  0.63768664964E+02 -0.48232899520E+02  0.30370209141E+02  0.85631052958E+02  0.41800000000E+01 0. -1.
        -11    1    1    2    0    0 -0.17728599070E+02  0.23657693132E+01  0.34430201400E+02  0.38798696600E+02  0.00000000000E+00 0.  1.
         11    1    1    2    0    0  0.56612120877E+00  0.30868485633E+02 -0.52696433062E+02  0.61074527881E+02  0.00000000000E+00 0. -1.
</event>
<event>
 7    1  0.2943257E-009  0.1250159E+03  0.7561462E-02  0.1235044E+00
          1   -1    0    0  501    0  0.00000000000E+00  0.00000000000E+00  0.49967529157E+02  0.49967529157E+02  0.00000000000E+00 0. -1.
         -1   -1    0    0    0  501 -0.00000000000E+00 -0.00000000000E+00 -0.33214286252E+03  0.33214286252E+03  0.00000000000E+00 0.  1.
         25    2    1    2    0    0  0.20430285936E+02 -0.32978536559E+02 -0.15703342346E+03  0.20448384128E+03  0.12509662187E+03 0.  0.
          5    1    3    3  502    0 -0.14922732600E+02 -0.72753687527E+02 -0.68600622042E+02  0.10118944975E+03  0.41800000000E+01 0.  1.
         -5    1    3    3    0  502  0.35353018537E+02  0.39775150968E+02 -0.88432801416E+02  0.10329439152E+03  0.41800000000E+01 0.  1.
        -11    1    1    2    0    0  0.43190301751E+02 -0.11433210178E+02 -0.67596016362E+02  0.81026797347E+02  0.00000000000E+00 0.  1.
         11    1    1    2    0    0 -0.63620587687E+02  0.44411746738E+02 -0.57545893546E+02  0.96599753053E+02  0.00000000000E+00 0. -1.
</event>
<event>
 7    1  0.2943257E-009  0.3307155E+03  0.7561462E-02  0.1070821E+00
         -1   -1    0    0    0  501 -0.00000000000E+00  0.00000000000E+00  0.42868126618E+03  0.42868126618E+03  0.00000000000E+00 0.  1.
          1   -1    0    0  501    0  0.00000000000E+00 -0.00000000000E+00 -0.25907624735E+03  0.25907624735E+03  0.00000000000E+00 0. -1.
         25    2    1    2    0    0  0.25439091839E+02  0.31374110678E+03  0.84252914551E+02  0.34903646650E+03  0.12508905572E+03 0.  0.
          5    1    3    3  502    0  0.66606596342E+02  0.24062511895E+03  0.36390431060E+02  0.25234623520E+03  0.41800000000E+01 0. -1.
         -5    1    3    3    0  502 -0.41167504503E+02  0.73115987827E+02  0.47862483491E+02  0.96690231300E+02  0.41800000000E+01 0. -1.
        -11    1    1    2    0    0  0.30112648402E+02 -0.18585976569E+03  0.52771720964E+02  0.19553894403E+03  0.00000000000E+00 0.  1.
         11    1    1    2    0    0 -0.55551740241E+02 -0.12788134109E+03  0.32580383318E+02  0.14318210300E+03  0.00000000000E+00 0. -1.
</event>
<event>
 7    1  0.2943257E-009  0.1085842E+03  0.7561462E-02  0.1263214E+00
          2   -1    0    0  501    0  0.00000000000E+00  0.00000000000E+00  0.36133320034E+03  0.36133320034E+03  0.00000000000E+00 0. -1.
         -2   -1    0    0    0  501 -0.00000000000E+00 -0.00000000000E+00 -0.44627523191E+02  0.44627523191E+02  0.00000000000E+00 0.  1.
         25    2    1    2    0    0 -0.41660035090E+02 -0.54854701117E+02  0.14169844433E+03  0.20119963437E+03  0.12513291728E+03 0.  0.
          5    1    3    3  502    0 -0.73348669854E+02 -0.15672474112E+02  0.12865190481E+03  0.14897798101E+03  0.41800000000E+01 0. -1.
         -5    1    3    3    0  502  0.31688634764E+02 -0.39182227005E+02  0.13046539514E+02  0.52221653359E+02  0.41800000000E+01 0. -1.
        -11    1    1    2    0    0 -0.60710638355E+01  0.41466877008E+02  0.30070445499E+02  0.51580920866E+02  0.00000000000E+00 0.  1.
         11    1    1    2    0    0  0.47731098926E+02  0.13387824109E+02  0.14493678732E+03  0.15318016829E+03  0.00000000000E+00 0. -1.
</event>
<event>
 7    1  0.2943257E-009  0.8982872E+02  0.7561462E-02  0.1303267E+00
         -1   -1    0    0    0  501 -0.00000000000E+00  0.00000000000E+00  0.97444700946E+02  0.97444700946E+02  0.00000000000E+00 0.  1.
          1   -1    0    0  501    0  0.00000000000E+00 -0.00000000000E+00 -0.89311219284E+02  0.89311219284E+02  0.00000000000E+00 0. -1.
         25    2    1    2    0    0 -0.17806654679E+02  0.54096854495E+01 -0.11753922293E+02  0.12701502498E+03  0.12509324615E+03 0.  0.
          5    1    3    3  502    0 -0.36279739540E+02  0.58799317659E+02 -0.29486059802E+00  0.69218051122E+02  0.41800000000E+01 0.  1.
         -5    1    3    3    0  502  0.18473084861E+02 -0.53389632210E+02 -0.11459061695E+02  0.57796973854E+02  0.41800000000E+01 0.  1.
        -11    1    1    2    0    0  0.30689491540E+02  0.11288856390E+02  0.20583558154E+02  0.38638918668E+02  0.00000000000E+00 0.  1.
         11    1    1    2    0    0 -0.12882836861E+02 -0.16698541840E+02 -0.69615419867E+00  0.21101976586E+02  0.00000000000E+00 0. -1.
</event>
<event>
 7    1  0.2943257E-009  0.9622126E+02  0.7561462E-02  0.1288449E+00
          1   -1    0    0  501    0  0.00000000000E+00  0.00000000000E+00  0.14569044288E+03  0.14569044288E+03  0.00000000000E+00 0. -1.
         -1   -1    0    0    0  501 -0.00000000000E+00 -0.00000000000E+00 -0.10661889940E+03  0.10661889940E+03  0.00000000000E+00 0.  1.
         25    2    1    2    0    0  0.36313546331E+01 -0.10665354293E+01  0.81903665410E+02  0.14956724572E+03  0.12509127208E+03 0.  0.
          5    1    3    3  502    0  0.56080337423E+02 -0.21236635655E+02  0.14733296155E+02  0.61891367371E+02  0.41800000000E+01 0.  1.
         -5    1    3    3    0  502 -0.52448982790E+02  0.20170100226E+02  0.67170369255E+02  0.87675878351E+02  0.41800000000E+01 0.  1.
        -11    1    1    2    0    0 -0.31643380577E+02 -0.22944877119E+02  0.80344973385E+01  0.39903935493E+02  0.00000000000E+00 0. -1.
         11    1    1    2    0    0  0.28012025944E+02  0.24011412548E+02 -0.50866619270E+02  0.62838161065E+02  0.00000000000E+00 0.  1.
</event>
<event>
 7    1  0.2943257E-009  0.1285742E+03  0.7561462E-02  0.1229587E+00
          1   -1    0    0  501    0  0.00000000000E+00  0.00000000000E+00  0.12157512710E+03  0.12157512710E+03  0.00000000000E+00 0. -1.
         -1   -1    0    0    0  501 -0.00000000000E+00 -0.00000000000E+00 -0.19790870754E+03  0.19790870754E+03  0.00000000000E+00 0.  1.
         25    2    1    2    0    0 -0.54103445109E+02  0.98385043144E+02 -0.29022284896E+02  0.17057631574E+03  0.12508871645E+03 0.  0.
          5    1    3    3  502    0 -0.65272128427E+02  0.69872438081E+02 -0.70485106505E+02  0.11886223535E+03  0.41800000000E+01 0.  1.
         -5    1    3    3    0  502  0.11168683318E+02  0.28512605063E+02  0.41462821610E+02  0.51714080388E+02  0.41800000000E+01 0.  1.
        -11    1    1    2    0    0 -0.15662376744E+02 -0.13665348450E+02  0.12160040440E+02  0.24081494493E+02  0.00000000000E+00 0.  1.
         11    1    1    2    0    0  0.69765821853E+02 -0.84719694694E+02 -0.59471335978E+02  0.12482602441E+03  0.00000000000E+00 0. -1.
</event>
<event>
 7    1  0.2943257E-009  0.2175474E+03  0.7561462E-02  0.1135725E+00
         -1   -1    0    0    0  501 -0.00000000000E+00  0.00000000000E+00  0.41205965760E+02  0.41205965760E+02  0.00000000000E+00 0.  1.
          1   -1    0    0  501    0  0.00000000000E+00 -0.00000000000E+00 -0.12192231022E+04  0.12192231022E+04  0.00000000000E+00 0. -1.
         25    2    1    2    0    0  0.18864346491E+03 -0.43202192341E+02 -0.70552286524E+03  0.74220103044E+03  0.12508824858E+03 0.  0.
          5    1    3    3  502    0 -0.25273336668E+01  0.25370358434E+02 -0.10966925280E+03  0.11267146894E+03  0.41800000000E+01 0.  1.
         -5    1    3    3    0  502  0.19117079858E+03 -0.68572550775E+02 -0.59585361243E+03  0.62952956150E+03  0.41800000000E+01 0.  1.
        -11    1    1    2    0    0 -0.90354336330E+02  0.57050852892E+02 -0.30906891190E+03  0.32702033303E+03  0.00000000000E+00 0.  1.
         11    1    1    2    0    0 -0.98289128584E+02 -0.13848660551E+02 -0.16342535932E+03  0.19120770452E+03  0.00000000000E+00 0. -1.
</event>
<event>
 7    1  0.2943257E-009  0.1974379E+03  0.7561462E-02  0.1151919E+00
         -2   -1    0    0    0  501 -0.00000000000E+00  0.00000000000E+00  0.42806118098E+02  0.42806118098E+02  0.00000000000E+00 0.  1.
          2   -1    0    0  501    0  0.00000000000E+00 -0.00000000000E+00 -0.10314768315E+04  0.10314768315E+04  0.00000000000E+00 0. -1.
         25    2    1    2    0    0  0.45573371157E+02 -0.17126746417E+03 -0.59162277953E+03  0.63013887894E+03  0.12509203430E+03 0.  0.
          5    1    3    3  502    0 -0.39872541572E+02 -0.82998968957E+02 -0.21379877934E+03  0.23282190375E+03  0.41800000000E+01 0.  1.
         -5    1    3    3    0  502  0.85445912728E+02 -0.88268495214E+02 -0.37782400019E+03  0.39731697519E+03  0.41800000000E+01 0.  1.
        -11    1    1    2    0    0 -0.44794708974E+02  0.11368616701E+03 -0.34686935919E+03  0.36776278070E+03  0.00000000000E+00 0. -1.
         11    1    1    2    0    0 -0.77866218286E+00  0.57581297158E+02 -0.50178574637E+02  0.76381289920E+02  0.00000000000E+00 0.  1.
</event>
<event>
 7    1  0.2943257E-009  0.2000251E+03  0.7561462E-02  0.1149718E+00
          2   -1    0    0  501    0  0.00000000000E+00  0.00000000000E+00  0.83940639849E+02  0.83940639849E+02  0.00000000000E+00 0.  1.
         -2   -1    0    0    0  501 -0.00000000000E+00 -0.00000000000E+00 -0.55025345725E+03  0.55025345725E+03  0.00000000000E+00 0. -1.
         25    2    1    2    0    0 -0.18178420631E+02 -0.18081190204E+03 -0.30204186950E+03  0.37403154562E+03  0.12508759847E+03 0.  0.
          5    1    3    3  502    0  0.37250959667E+02 -0.14921050809E+03 -0.18453516636E+03  0.24025426061E+03  0.41800000000E+01 0.  1.
         -5    1    3    3    0  502 -0.55429380297E+02 -0.31601393945E+02 -0.11750670314E+03  0.13377728500E+03  0.41800000000E+01 0.  1.
        -11    1    1    2    0    0  0.36236317221E+01  0.10515153868E+03 -0.37274461847E+02  0.11162151360E+03  0.00000000000E+00 0.  1.
         11    1    1    2    0    0  0.14554788909E+02  0.75660363357E+02 -0.12699648606E+03  0.14854103788E+03  0.00000000000E+00 0. -1.
</event>
<event>
 7    1  0.2943257E-009  0.9114114E+02  0.7561462E-02  0.1300112E+00
          2   -1    0    0  501    0  0.00000000000E+00  0.00000000000E+00  0.73048391305E+02  0.73048391305E+02  0.00000000000E+00 0. -1.
         -2   -1    0    0    0  501 -0.00000000000E+00 -0.00000000000E+00 -0.26342830058E+03  0.26342830058E+03  0.00000000000E+00 0.  1.
         25    2    1    2    0    0  0.39297814384E+02 -0.34237449846E+02 -0.13124034746E+02  0.13616376462E+03  0.12510719132E+03 0.  0.
          5    1    3    3  502    0 -0.16757311563E+02  0.77531633177E+01  0.42565760253E+02  0.46585785151E+02  0.41800000000E+01 0.  1.
         -5    1    3    3    0  502  0.56055125947E+02 -0.41990613164E+02 -0.55689794999E+02  0.89577979470E+02  0.41800000000E+01 0.  1.
        -11    1    1    2    0    0  0.23095242610E+02  0.16298805486E+02 -0.58445792374E+02  0.64922661203E+02  0.00000000000E+00 0. -1.
         11    1    1    2    0    0 -0.62393056994E+02  0.17938644360E+02 -0.11881008215E+03  0.13539026606E+03  0.00000000000E+00 0.  1.
</event>
<event>
 7    1  0.2943257E-009  0.1754815E+03  0.7561462E-02  0.1172249E+00
          2   -1    0    0  501    0  0.00000000000E+00  0.00000000000E+00  0.11186813399E+04  0.11186813399E+04  0.00000000000E+00 0. -1.
         -2   -1    0    0    0  501 -0.00000000000E+00 -0.00000000000E+00 -0.69890904748E+02  0.69890904748E+02  0.00000000000E+00 0.  1.
         25    2    1    2    0    0 -0.93154908441E+02  0.12245589986E+03  0.97196742376E+03  0.99198862968E+03  0.12508990445E+03 0.  0.
          5    1    3    3  502    0 -0.11199009970E+03  0.56060532894E+02  0.52774559475E+03  0.54241815139E+03  0.41800000000E+01 0. -1.
         -5    1    3    3    0  502  0.18835191260E+02  0.66395366964E+02  0.44422182901E+03  0.44957047829E+03  0.41800000000E+01 0. -1.
        -11    1    1    2    0    0  0.59979420143E+02 -0.55172417960E+02 -0.96963662754E+01  0.82070372627E+02  0.00000000000E+00 0.  1.
         11    1    1    2    0    0  0.33175488298E+02 -0.67283481897E+02  0.86519377697E+02  0.11451324237E+03  0.00000000000E+00 0. -1.
</event>
<event>
 7    1  0.2943257E-009  0.9867048E+02  0.7561462E-02  0.1283117E+00
          2   -1    0    0  501    0  0.00000000000E+00  0.00000000000E+00  0.94481328832E+02  0.94481328832E+02  0.00000000000E+00 0.  1.
         -2   -1    0    0    0  501 -0.00000000000E+00 -0.00000000000E+00 -0.17957143359E+03  0.17957143359E+03  0.00000000000E+00 0. -1.
         25    2    1    2    0    0  0.54694536319E+02  0.19576985905E+02 -0.45623490667E+01  0.13799045377E+03  0.12508317082E+03 0.  0.
          5    1    3    3  502    0  0.17655140374E+02 -0.52831646280E+02  0.45371235232E+01  0.56044131898E+02  0.41800000000E+01 0. -1.
         -5    1    3    3    0  502  0.37039395945E+02  0.72408632185E+02 -0.90994725899E+01  0.81946321871E+02  0.41800000000E+01 0. -1.
        -11    1    1    2    0    0 -0.38295764261E+02 -0.60237610372E+01 -0.99981586105E+02  0.10723417747E+03  0.00000000000E+00 0. -1.
         11    1    1    2    0    0 -0.16398772058E+02 -0.13553224868E+02  0.19453830418E+02  0.28828131179E+02  0.00000000000E+00 0.  1.
</event>
<event>
 7    1  0.2943257E-009  0.9989454E+02  0.7561462E-02  0.1280518E+00
         -2   -1    0    0    0  501 -0.00000000000E+00  0.00000000000E+00  0.16001657117E+02  0.16001657117E+02  0.00000000000E+00 0.  1.
          2   -1    0    0  501    0  0.00000000000E+00 -0.00000000000E+00 -0.96862207605E+03  0.96862207605E+03  0.00000000000E+00 0. -1.
         25    2    1    2    0    0  0.44941769922E+02 -0.61551851613E+01 -0.68251407280E+03  0.69536350275E+03  0.12508913781E+03 0.  0.
          5    1    3    3  502    0  0.78005923405E+02  0.21196212647E+02 -0.31117746228E+03  0.32153240731E+03  0.41800000000E+01 0.  1.
         -5    1    3    3    0  502 -0.33064153483E+02 -0.27351397808E+02 -0.37133661052E+03  0.37383109545E+03  0.41800000000E+01 0.  1.
        -11    1    1    2    0    0 -0.55088293240E+02  0.19966386416E+02 -0.26496693022E+03  0.27136847781E+03  0.00000000000E+00 0. -1.
         11    1    1    2    0    0  0.10146523317E+02 -0.13811201255E+02 -0.51394159159E+01  0.17891752611E+02  0.00000000000E+00 0.  1.
</event>
<event>
 7    1  0.4621135E-009  0.1573123E+03  0.7561462E-02  0.1191765E+00
         -1   -1    0    0    0  501 -0.00000000000E+00  0.00000000000E+00  0.25596849511E+02  0.25596849511E+02  0.00000000000E+00 0.  1.
          1   -1    0    0  501    0  0.00000000000E+00 -0.00000000000E+00 -0.11886030134E+04  0.11886030134E+04  0.00000000000E+00 0. -1.
         25    2    1    2    0    0  0.86916831669E+02  0.90599324839E+02 -0.80106058062E+03  0.82043150745E+03  0.12508809420E+03 0.  0.
          5    1    3    3  502    0  0.10122962910E+03  0.22204762204E+02 -0.55494127008E+03  0.56455094979E+03  0.41800000000E+01 0.  1.
         -5    1    3    3    0  502 -0.14312797432E+02  0.68394562635E+02 -0.24611931054E+03  0.25588055766E+03  0.41800000000E+01 0.  1.
        -11    1    1    2    0    0 -0.39128189589E+01 -0.46966620693E+02 -0.53090203333E+02  0.70991149458E+02  0.00000000000E+00 0.  1.
         11    1    1    2    0    0 -0.83004012710E+02 -0.43632704146E+02 -0.30885537990E+03  0.32277720597E+03  0.00000000000E+00 0. -1.
</event>
<event>
 7    1  0.3512446E-009  0.1768310E+03  0.7561462E-02  0.1170906E+00
         -1   -1    0    0    0  501 -0.00000000000E+00  0.00000000000E+00  0.23347594856E+02  0.23347594856E+02  0.00000000000E+00 0.  1.
          1   -1    0    0  501    0  0.00000000000E+00 -0.00000000000E+00 -0.15949026398E+04  0.15949026398E+04  0.00000000000E+00 0. -1.
         25    2    1    2    0    0  0.73761793047E+02 -0.13270887885E+03 -0.10233868916E+04  0.10421235598E+04  0.12509330675E+03 0.  0.
          5    1    3    3  502    0  0.62946681772E+02 -0.30046023212E+01 -0.43019431328E+03  0.43480562550E+03  0.41800000000E+01 0. -1.
         -5    1    3    3    0  502  0.10815111274E+02 -0.12970427653E+03 -0.59319257834E+03  0.60731793435E+03  0.41800000000E+01 0. -1.
        -11    1    1    2    0    0 -0.10928140855E+02  0.72299681720E+02 -0.37719926331E+03  0.38422122857E+03  0.00000000000E+00 0.  1.
         11    1    1    2    0    0 -0.62833652191E+02  0.60409197135E+02 -0.17096888998E+03  0.19190544621E+03  0.00000000000E+00 0. -1.
</event>
<event>
 7    1  0.2943257E-009  0.1148331E+03  0.7561462E-02  0.1251873E+00
         -1   -1    0    0    0  501 -0.00000000000E+00  0.00000000000E+00  0.56454253253E+02  0.56454253253E+02  0.00000000000E+00 0.  1.
          1   -1    0    0  501    0  0.00000000000E+00 -0.00000000000E+00 -0.31051868631E+03  0.31051868631E+03  0.00000000000E+00 0. -1.
         25    2    1    2    0    0  0.73320178715E+02  0.41348102212E+01 -0.16747530971E+03  0.22155922966E+03  0.12509023791E+03 0.  0.
          5    1    3    3  502    0  0.47059035699E+02  0.48562254140E+02 -0.15371560943E+03  0.16798454200E+03  0.41800000000E+01 0. -1.
         -5    1    3    3    0  502  0.26261143016E+02 -0.44427443919E+02 -0.13759700282E+02  0.53574687657E+02  0.41800000000E+01 0. -1.
        -11    1    1    2    0    0  0.17385129423E+02 -0.84477272963E+01  0.85543872245E+00  0.19347831840E+02  0.00000000000E+00 0.  1.
         11    1    1    2    0    0 -0.90705308137E+02  0.43129170751E+01 -0.87444562068E+02  0.12606587807E+03  0.00000000000E+00 0. -1.
</event>
<event>
 7    1  0.2943257E-009  0.9546120E+02  0.7561462E-02  0.1290141E+00
         -2   -1    0    0    0  501 -0.00000000000E+00  0.00000000000E+00  0.33199852050E+03  0.33199852050E+03  0.00000000000E+00 0.  1.
          2   -1    0    0  501    0  0.00000000000E+00 -0.00000000000E+00 -0.59060776237E+02  0.59060776237E+02  0.00000000000E+00 0. -1.
         25    2    1    2    0    0 -0.63663708670E+02  0.18729599649E+02  0.23013346743E+03  0.27020860806E+03  0.12508962121E+03 0.  0.
          5    1    3    3  502    0 -0.45783670594E+02 -0.34052914142E+02  0.34634359811E+02  0.66878671743E+02  0.41800000000E+01 0. -1.
         -5    1    3    3    0  502 -0.17880038076E+02  0.52782513791E+02  0.19549910762E+03  0.20332993632E+03  0.41800000000E+01 0. -1.
        -11    1    1    2    0    0  0.13373835001E+02 -0.23779512690E+02 -0.24508950601E+02  0.36674423594E+02  0.00000000000E+00 0. -1.
         11    1    1    2    0    0  0.50289873668E+02  0.50499130402E+01  0.67313227432E+02  0.84176265078E+02  0.00000000000E+00 0.  1.
</event>
<event>
 7    1  0.2943257E-009  0.1292500E+03  0.7561462E-02  0.1228573E+00
         -1   -1    0    0    0  501 -0.00000000000E+00  0.00000000000E+00  0.50454154252E+02  0.50454154252E+02  0.00000000000E+00 0.  1.
          1   -1    0    0  501    0  0.00000000000E+00 -0.00000000000E+00 -0.42557855178E+03  0.42557855178E+03  0.00000000000E+00 0. -1.
         25    2    1    2    0    0 -0.94820012497E+02 -0.20937140049E+02 -0.22096572315E+03  0.27185261852E+03  0.12509515094E+03 0.  0.
          5    1    3    3  502    0  0.24789152312E+02 -0.27298747018E+02 -0.37898039694E+02  0.53042034970E+02  0.41800000000E+01 0.  1.
         -5    1    3    3    0  502 -0.11960916481E+03  0.63616069686E+01 -0.18306768346E+03  0.21881058355E+03  0.41800000000E+01 0.  1.
        -11    1    1    2    0    0  0.20729254536E+02  0.17895432749E+02  0.56891836361E+01  0.27969900203E+02  0.00000000000E+00 0.  1.
         11    1    1    2    0    0  0.74090757960E+02  0.30417073000E+01 -0.15984785802E+03  0.17621018731E+03  0.00000000000E+00 0. -1.
</event>
<event>
 7    1  0.2943257E-009  0.9445703E+02  0.7561462E-02  0.1292404E+00
         -1   -1    0    0    0  501 -0.00000000000E+00  0.00000000000E+00  0.41379962977E+02  0.41379962977E+02  0.00000000000E+00 0.  1.
          1   -1    0    0  501    0  0.00000000000E+00 -0.00000000000E+00 -0.29100019004E+03  0.29100019004E+03  0.00000000000E+00 0. -1.
         25    2    1    2    0    0  0.14316232200E+02 -0.31044012210E+00 -0.11401228583E+03  0.16985621001E+03  0.12508908777E+03 0.  0.
          5    1    3    3  502    0 -0.45321528795E+02  0.12771465062E+01 -0.97820264077E+02  0.10789786161E+03  0.41800000000E+01 0. -1.
         -5    1    3    3    0  502  0.59637760995E+02 -0.15875866283E+01 -0.16192021755E+02  0.61958348399E+02  0.41800000000E+01 0. -1.
        -11    1    1    2    0    0 -0.32468617948E+01  0.41142909660E+02 -0.96316761577E+02  0.10478644801E+03  0.00000000000E+00 0.  1.
         11    1    1    2    0    0 -0.11069370405E+02 -0.40832469538E+02 -0.39291179655E+02  0.57737494997E+02  0.00000000000E+00 0. -1.
</event>
<event>
 7    1  0.2943257E-009  0.7607551E+02  0.7561462E-02  0.1340572E+00
         -1   -1    0    0    0  501 -0.00000000000E+00  0.00000000000E+00  0.39445376619E+03  0.39445376619E+03  0.00000000000E+00 0.  1.
          1   -1    0    0  501    0  0.00000000000E+00 -0.00000000000E+00 -0.36268244635E+02  0.36268244635E+02  0.00000000000E+00 0. -1.
         25    2    1    2    0    0  0.33682555495E+02  0.38931432841E+02  0.17259006388E+03  0.21928184050E+03  0.12508806664E+03 0.  0.
          5    1    3    3  502    0  0.18672390685E+02  0.16179072402E+02  0.18665254880E+03  0.18832702124E+03  0.41800000000E+01 0.  1.
         -5    1    3    3    0  502  0.15010164810E+02  0.22752360440E+02 -0.14062484917E+02  0.30954819257E+02  0.41800000000E+01 0.  1.
        -11    1    1    2    0    0 -0.16551724095E+02 -0.65690801799E+02  0.14362130704E+03  0.15879647618E+03  0.00000000000E+00 0.  1.
         11    1    1    2    0    0 -0.17130831400E+02  0.26759368957E+02  0.41974150626E+02  0.52643694136E+02  0.00000000000E+00 0. -1.
</event>
<event>
 7    1  0.2943257E-009  0.7163100E+02  0.7561462E-02  0.1354633E+00
         -2   -1    0    0    0  501 -0.00000000000E+00  0.00000000000E+00  0.33654955620E+03  0.33654955620E+03  0.00000000000E+00 0.  1.
          2   -1    0    0  501    0  0.00000000000E+00 -0.00000000000E+00 -0.34461994422E+02  0.34461994422E+02  0.00000000000E+00 0. -1.
         25    2    1    2    0    0 -0.17349451865E+02 -0.23539366501E+01  0.26318501103E+03  0.29192646041E+03  0.12509262072E+03 0.  0.
          5    1    3    3  502    0  0.40436746277E+02  0.24041182082E+01  0.20739130787E+03  0.21135169082E+03  0.41800000000E+01 0.  1.
         -5    1    3    3    0  502 -0.57786198142E+02 -0.47580548583E+01  0.55793703164E+02  0.80574769590E+02  0.41800000000E+01 0.  1.
        -11    1    1    2    0    0  0.18920846193E+02  0.19510431934E+02 -0.86389744706E+01  0.28518191647E+02  0.00000000000E+00 0. -1.
         11    1    1    2    0    0 -0.15713943278E+01 -0.17156495284E+02  0.47541525223E+02  0.50566898571E+02  0.00000000000E+00 0.  1.
</event>
<event>
 7    1  0.2943257E-009  0.2994534E+03  0.7561462E-02  0.1085514E+00
         -2   -1    0    0    0  501 -0.00000000000E+00  0.00000000000E+00  0.12927312530E+03  0.12927312530E+03  0.00000000000E+00 0.  1.
          2   -1    0    0  501    0  0.00000000000E+00 -0.00000000000E+00 -0.12024528149E+04  0.12024528149E+04  0.00000000000E+00 0. -1.
         25    2    1    2    0    0 -0.21269951256E+03  0.19237135883E+03 -0.96283481008E+03  0.10123961273E+04  0.12508886751E+03 0.  0.
          5    1    3    3  502    0 -0.22651136839E+03  0.18746617966E+03 -0.94017369626E+03  0.98508630082E+03  0.41800000000E+01 0. -1.
         -5    1    3    3    0  502  0.13811855826E+02  0.49051791697E+01 -0.22661113823E+02  0.27309826506E+02  0.41800000000E+01 0. -1.
        -11    1    1    2    0    0  0.11724318169E+03 -0.78859306669E+02 -0.94913832518E+02  0.17021571462E+03  0.00000000000E+00 0. -1.
         11    1    1    2    0    0  0.95456330873E+02 -0.11351205216E+03 -0.15431047008E+02  0.14911409826E+03  0.00000000000E+00 0.  1.
</event>
<event>
 7    1  0.2943257E-009  0.1266737E+03  0.7561462E-02  0.1232476E+00
          2   -1    0    0  501    0  0.00000000000E+00  0.00000000000E+00  0.30771446824E+04  0.30771446824E+04  0.00000000000E+00 0. -1.
         -2   -1    0    0    0  501 -0.00000000000E+00 -0.00000000000E+00 -0.13763950486E+02  0.13763950486E+02  0.00000000000E+00 0.  1.
         25    2    1    2    0    0  0.30989210119E+02 -0.97551162161E+02  0.26593271408E+04  0.26642346886E+04  0.12509625869E+03 0.  0.
          5    1    3    3  502    0  0.70638998556E+02 -0.40961696562E+02  0.19000741361E+04  0.19018325173E+04  0.41800000000E+01 0.  1.
         -5    1    3    3    0  502 -0.39649788436E+02 -0.56589465600E+02  0.75925300468E+03  0.76240217134E+03  0.41800000000E+01 0.  1.
        -11    1    1    2    0    0 -0.19996864782E+02  0.61267299467E+02  0.37044531350E+03  0.37600968987E+03  0.00000000000E+00 0. -1.
         11    1    1    2    0    0 -0.10992345337E+02  0.36283862695E+02  0.33608277628E+02  0.50664254393E+02  0.00000000000E+00 0.  1.
</event>
<event>
 7    1  0.2943257E-009  0.1350655E+03  0.7561462E-02  0.1220127E+00
          1   -1    0    0  501    0  0.00000000000E+00  0.00000000000E+00  0.22659636036E+03  0.22659636036E+03  0.00000000000E+00 0. -1.
         -1   -1    0    0    0  501 -0.00000000000E+00 -0.00000000000E+00 -0.10251809589E+03  0.10251809589E+03  0.00000000000E+00 0.  1.
         25    2    1    2    0    0 -0.15490630127E+02 -0.10522016991E+03  0.71401798377E+02  0.17904476574E+03  0.12509023762E+03 0.  0.
          5    1    3    3  502    0 -0.68707998392E+02 -0.62780758117E+02  0.57395695186E+02  0.10942554939E+03  0.41800000000E+01 0. -1.
         -5    1    3    3    0  502  0.53217368265E+02 -0.42439411794E+02  0.14006103190E+02  0.69619216350E+02  0.41800000000E+01 0. -1.
        -11    1    1    2    0    0  0.63015736769E+01  0.94249145985E+02 -0.10546057895E+01  0.94465462171E+02  0.00000000000E+00 0.  1.
         11    1    1    2    0    0  0.91890564496E+01  0.10971023926E+02  0.53731071885E+02  0.55604228349E+02  0.00000000000E+00 0. -1.
</event>
<event>
 7    1  0.2943257E-009  0.9334410E+02  0.7561462E-02  0.1294950E+00
          2   -1    0    0  501    0  0.00000000000E+00  0.00000000000E+00  0.51138652637E+03  0.51138652637E+03  0.00000000000E+00 0.  1.
         -2   -1    0    0    0  501 -0.00000000000E+00 -0.00000000000E+00 -0.31119502661E+02  0.31119502661E+02  0.00000000000E+00 0. -1.
         25    2    1    2    0    0 -0.34520228107E+02 -0.38596172333E+02  0.35257797882E+03  0.37767888066E+03  0.12509514411E+03 0.  0.
          5    1    3    3  502    0  0.50860500615E+01 -0.45741340652E+02  0.36144241237E+02  0.58668703109E+02  0.41800000000E+01 0.  1.
         -5    1    3    3    0  502 -0.39606278168E+02  0.71451683193E+01  0.31643373759E+03  0.31901017756E+03  0.41800000000E+01 0. -1.
        -11    1    1    2    0    0  0.25857081301E+02  0.66206104911E+02  0.10983130479E+03  0.13082336371E+03  0.00000000000E+00 0.  1.
         11    1    1    2    0    0  0.86631468058E+01 -0.27609932578E+02  0.17857740096E+02  0.34003784655E+02  0.00000000000E+00 0. -1.
</event>
<event>
 7    1  0.2943257E-009  0.1140484E+03  0.7561462E-02  0.1253251E+00
          2   -1    0    0  501    0  0.00000000000E+00  0.00000000000E+00  0.17544895150E+04  0.17544895150E+04  0.00000000000E+00 0. -1.
         -2   -1    0    0    0  501 -0.00000000000E+00 -0.00000000000E+00 -0.16846248433E+02  0.16846248433E+02  0.00000000000E+00 0.  1.
         25    2    1    2    0    0  0.78741905415E+02  0.21117241152E+02  0.14593116212E+04  0.14669301817E+04  0.12509006616E+03 0.  0.
          5    1    3    3  502    0  0.48652839687E+02 -0.32677132750E+02  0.11505106238E+04  0.11520100094E+04  0.41800000000E+01 0. -1.
         -5    1    3    3    0  502  0.30089065727E+02  0.53794373902E+02  0.30880099734E+03  0.31492017227E+03  0.41800000000E+01 0. -1.
        -11    1    1    2    0    0 -0.44280283058E+01 -0.32131536900E+02  0.27368097839E+02  0.42438848683E+02  0.00000000000E+00 0.  1.
         11    1    1    2    0    0 -0.74313877109E+02  0.11014295748E+02  0.25096354761E+03  0.26196673313E+03  0.00000000000E+00 0. -1.
</event>
<event>
 7    1  0.2943257E-009  0.1107183E+03  0.7561462E-02  0.1259245E+00
         -2   -1    0    0    0  501 -0.00000000000E+00  0.00000000000E+00  0.14528551201E+03  0.14528551201E+03  0.00000000000E+00 0.  1.
          2   -1    0    0  501    0  0.00000000000E+00 -0.00000000000E+00 -0.13254531762E+03  0.13254531762E+03  0.00000000000E+00 0. -1.
         25    2    1    2    0    0 -0.66271308174E+02  0.82125132550E+01 -0.32351171158E+02  0.14544006329E+03  0.12508749767E+03 0.  0.
          5    1    3    3  502    0 -0.71167579237E+02  0.53323574918E+02 -0.42661117253E+02  0.98720166642E+02  0.41800000000E+01 0.  1.
         -5    1    3    3    0  502  0.48962710628E+01 -0.45111061663E+02  0.10309946095E+02  0.46719896652E+02  0.41800000000E+01 0.  1.
        -11    1    1    2    0    0  0.11340274232E+02 -0.26599048718E+02  0.64997609617E+02  0.71139303260E+02  0.00000000000E+00 0.  1.
         11    1    1    2    0    0  0.54931033942E+02  0.18386535463E+02 -0.19906244071E+02  0.61251463079E+02  0.00000000000E+00 0. -1.
</event>
<event>
 7    1  0.2943257E-009  0.1001213E+03  0.7561462E-02  0.1280041E+00
          2   -1    0    0  501    0  0.00000000000E+00  0.00000000000E+00  0.27248244153E+03  0.27248244153E+03  0.00000000000E+00 0. -1.
         -2   -1    0    0    0  501 -0.00000000000E+00 -0.00000000000E+00 -0.52268618785E+02  0.52268618785E+02  0.00000000000E+00 0.  1.
         25    2    1    2    0    0  0.33496619945E+02  0.38866216794E+02  0.12696705238E+03  0.18547629545E+03  0.12509283524E+03 0.  0.
          5    1    3    3  502    0  0.35127249859E+02 -0.33403167518E+02  0.94149795122E+02  0.10597807134E+03  0.41800000000E+01 0.  1.
         -5    1    3    3    0  502 -0.16306299141E+01  0.72269384312E+02  0.32817257253E+02  0.79498224108E+02  0.41800000000E+01 0.  1.
        -11    1    1    2    0    0  0.10191300358E+01  0.15092434374E+02  0.69235191971E+02  0.70868413335E+02  0.00000000000E+00 0. -1.
         11    1    1    2    0    0 -0.34515749980E+02 -0.53958651168E+02  0.24011578394E+02  0.68406351529E+02  0.00000000000E+00 0.  1.
</event>
<event>
 7    1  0.2943257E-009  0.5382456E+02  0.7561462E-02  0.1425741E+00
          2   -1    0    0  501    0  0.00000000000E+00  0.00000000000E+00  0.11782997627E+03  0.11782997627E+03  0.00000000000E+00 0. -1.
         -2   -1    0    0    0  501 -0.00000000000E+00 -0.00000000000E+00 -0.14985379392E+03  0.14985379392E+03  0.00000000000E+00 0.  1.
         25    2    1    2    0    0 -0.22166445837E+02  0.11967038648E+02  0.39862329138E+02  0.13367842724E+03  0.12508539199E+03 0.  0.
          5    1    3    3  502    0 -0.10055921475E+02 -0.38913519061E+01 -0.44968784827E+02  0.46431973738E+02  0.41800000000E+01 0. -1.
         -5    1    3    3    0  502 -0.12110524362E+02  0.15858390554E+02  0.84831113965E+02  0.87246453497E+02  0.41800000000E+01 0. -1.
        -11    1    1    2    0    0  0.48390916408E+02 -0.98895792736E+01  0.78776805825E+01  0.50015421825E+02  0.00000000000E+00 0. -1.
         11    1    1    2    0    0 -0.26224470571E+02 -0.20774593740E+01 -0.79763827376E+02  0.83989921132E+02  0.00000000000E+00 0.  1.
</event>
<event>
 7    1  0.2943257E-009  0.1404231E+03  0.7561462E-02  0.1212761E+00
         -1   -1    0    0    0  501 -0.00000000000E+00  0.00000000000E+00  0.39818086343E+03  0.39818086343E+03  0.00000000000E+00 0.  1.
          1   -1    0    0  501    0  0.00000000000E+00 -0.00000000000E+00 -0.80649694300E+02  0.80649694300E+02  0.00000000000E+00 0. -1.
         25    2    1    2    0    0 -0.57608391629E+02 -0.97146788262E+02  0.28192809220E+03  0.32846196878E+03  0.12509032941E+03 0.  0.
          5    1    3    3  502    0  0.28471430245E+02 -0.36174607113E+02  0.16304751273E+03  0.16947326735E+03  0.41800000000E+01 0.  1.
         -5    1    3    3    0  502 -0.86079821875E+02 -0.60972181149E+02  0.11888057947E+03  0.15898870143E+03  0.41800000000E+01 0.  1.
        -11    1    1    2    0    0  0.17737334047E+02  0.85777880860E+02  0.56202463699E+02  0.10407293015E+03  0.00000000000E+00 0.  1.
         11    1    1    2    0    0  0.39871057582E+02  0.11368907402E+02 -0.20599386768E+02  0.46295658797E+02  0.00000000000E+00 0. -1.
</event>
<event>
 7    1  0.2943257E-009  0.8630946E+02  0.7561462E-02  0.1312043E+00
         -3   -1    0    0    0  501 -0.00000000000E+00  0.00000000000E+00  0.23947074770E+02  0.23947074770E+02  0.00000000000E+00 0.  1.
          3   -1    0    0  501    0  0.00000000000E+00 -0.00000000000E+00 -0.48571454941E+03  0.48571454941E+03  0.00000000000E+00 0. -1.
         25    2    1    2    0    0  0.61666897358E+01  0.77170003228E+01 -0.23034630003E+03  0.26230714186E+03  0.12509212036E+03 0.  0.
          5    1    3    3  502    0  0.16154763098E+02  0.51681095227E+02 -0.20133816866E+03  0.20853403208E+03  0.41800000000E+01 0. -1.
         -5    1    3    3    0  502 -0.99880733626E+01 -0.43964094904E+02 -0.29008131370E+02  0.53773109784E+02  0.41800000000E+01 0. -1.
        -11    1    1    2    0    0 -0.17571947632E+02  0.29373606355E+02 -0.17837946314E+03  0.18163373851E+03  0.00000000000E+00 0.  1.
         11    1    1    2    0    0  0.11405257896E+02 -0.37090606678E+02 -0.53041711465E+02  0.65720743807E+02  0.00000000000E+00 0. -1.
</event>
<event>
 7    1  0.2943257E-009  0.1255752E+03  0.7561462E-02  0.1234173E+00
         -1   -1    0    0    0  501 -0.00000000000E+00  0.00000000000E+00  0.32442172311E+02  0.32442172311E+02  0.00000000000E+00 0.  1.
          1   -1    0    0  501    0  0.00000000000E+00 -0.00000000000E+00 -0.95688940703E+03  0.95688940703E+03  0.00000000000E+00 0. -1.
         25    2    1    2    0    0 -0.56614336241E+02  0.76382569318E+02 -0.76912200443E+03  0.78500633037E+03  0.12508717385E+03 0.  0.
          5    1    3    3  502    0  0.23828586881E+01  0.84960807224E+02 -0.29172842437E+03  0.30388643070E+03  0.41800000000E+01 0.  1.
         -5    1    3    3    0  502 -0.58997194929E+02 -0.85782379060E+01 -0.47739358007E+03  0.48111989968E+03  0.41800000000E+01 0.  1.
        -11    1    1    2    0    0  0.81529226864E+01 -0.50876656416E+02 -0.14957479575E+02  0.53652870488E+02  0.00000000000E+00 0.  1.
         11    1    1    2    0    0  0.48461413555E+02 -0.25505912902E+02 -0.14036775071E+03  0.15067237848E+03  0.00000000000E+00 0. -1.
</event>
<event>
 7    1  0.2943257E-009  0.1016954E+03  0.7561462E-02  0.1276771E+00
          1   -1    0    0  501    0  0.00000000000E+00  0.00000000000E+00  0.29128396432E+03  0.29128396432E+03  0.00000000000E+00 0. -1.
         -1   -1    0    0    0  501 -0.00000000000E+00 -0.00000000000E+00 -0.47185911784E+02  0.47185911784E+02  0.00000000000E+00 0.  1.
         25    2    1    2    0    0  0.13965855051E+02  0.20103780203E+02  0.20089754127E+03  0.23791952972E+03  0.12508666374E+03 0.  0.
          5    1    3    3  502    0 -0.51657508517E+02 -0.12903043883E+02  0.94750795755E+02  0.10876659608E+03  0.41800000000E+01 0. -1.
         -5    1    3    3    0  502  0.65623363567E+02  0.33006824086E+02  0.10614674552E+03  0.12915293363E+03  0.41800000000E+01 0. -1.
        -11    1    1    2    0    0  0.14003619292E+02  0.21869225569E+02 -0.94539708333E+01  0.27635881473E+02  0.00000000000E+00 0.  1.
         11    1    1    2    0    0 -0.27969474343E+02 -0.41973005772E+02  0.52654482094E+02  0.72914464910E+02  0.00000000000E+00 0. -1.
</event>
<event>
 7    1  0.2943257E-009  0.1229913E+03  0.7561462E-02  0.1238242E+00
          2   -1    0    0  501    0  0.00000000000E+00  0.00000000000E+00  0.22708279585E+03  0.22708279585E+03  0.00000000000E+00 0. -1.
         -2   -1    0    0    0  501 -0.00000000000E+00 -0.00000000000E+00 -0.12985195718E+03  0.12985195718E+03  0.00000000000E+00 0.  1.
         25    2    1    2    0    0  0.91486639963E+02 -0.41129621037E+01 -0.48045385206E+02  0.16232061493E+03  0.12511155519E+03 0.  0.
          5    1    3    3  502    0 -0.48920977190E+00  0.43128290983E+02  0.88506314108E+01  0.44227761482E+02  0.41800000000E+01 0. -1.
         -5    1    3    3    0  502  0.91975849735E+02 -0.47241253087E+02 -0.56896016617E+02  0.11809285344E+03  0.41800000000E+01 0. -1.
        -11    1    1    2    0    0 -0.79111772032E+02 -0.10735969284E+02  0.15395589575E+03  0.17342534805E+03  0.00000000000E+00 0. -1.
         11    1    1    2    0    0 -0.12374867931E+02  0.14848931388E+02 -0.86796718738E+01  0.21188790044E+02  0.00000000000E+00 0.  1.
</event>
<event>
 7    1  0.2943257E-009  0.1017661E+03  0.7561462E-02  0.1276625E+00
         -2   -1    0    0    0  501 -0.00000000000E+00  0.00000000000E+00  0.61417753417E+02  0.61417753417E+02  0.00000000000E+00 0.  1.
          2   -1    0    0  501    0  0.00000000000E+00 -0.00000000000E+00 -0.21817301421E+03  0.21817301421E+03  0.00000000000E+00 0. -1.
         25    2    1    2    0    0 -0.18862942622E+02 -0.18615425396E+02 -0.13229108263E+03  0.18399495354E+03  0.12510342808E+03 0.  0.
          5    1    3    3  502    0 -0.49055620796E+02 -0.48091373464E+02 -0.12245031095E+03  0.14046631334E+03  0.41800000000E+01 0. -1.
         -5    1    3    3    0  502  0.30192678174E+02  0.29475948068E+02 -0.98407716773E+01  0.43528640193E+02  0.41800000000E+01 0. -1.
        -11    1    1    2    0    0 -0.25194173692E+02  0.36838420452E+02 -0.14112220297E+02  0.46807802460E+02  0.00000000000E+00 0. -1.
         11    1    1    2    0    0  0.44057116314E+02 -0.18222995056E+02 -0.10351957866E+02  0.48788011625E+02  0.00000000000E+00 0.  1.
</event>
<event>
 7    1  0.2943257E-009  0.9882706E+02  0.7561462E-02  0.1282782E+00
         -2   -1    0    0    0  501 -0.00000000000E+00  0.00000000000E+00  0.11953818455E+03  0.11953818455E+03  0.00000000000E+00 0.  1.
          2   -1    0    0  501    0  0.00000000000E+00 -0.00000000000E+00 -0.15885994344E+03  0.15885994344E+03  0.00000000000E+00 0. -1.
         25    2    1    2    0    0 -0.61471837539E+02  0.36248577017E+02 -0.74210240715E+02  0.16201167708E+03  0.12509147668E+03 0.  0.
          5    1    3    3  502    0  0.74790843168E+01  0.31770424474E+02 -0.85738256973E+02  0.91835819168E+02  0.41800000000E+01 0.  1.
         -5    1    3    3    0  502 -0.68950921856E+02  0.44781525435E+01  0.11528016259E+02  0.70175857914E+02  0.41800000000E+01 0.  1.
        -11    1    1    2    0    0  0.72288842533E+02 -0.41656908448E+02  0.49817310614E+02  0.97173757842E+02  0.00000000000E+00 0.  1.
         11    1    1    2    0    0 -0.10817004994E+02  0.54083314309E+01 -0.14928828789E+02  0.19212693067E+02  0.00000000000E+00 0. -1.
</event>
<event>
 7    1  0.2943257E-009  0.9314071E+02  0.7561462E-02  0.1295419E+00
         -1   -1    0    0    0  501 -0.00000000000E+00  0.00000000000E+00  0.23453733395E+03  0.23453733395E+03  0.00000000000E+00 0.  1.
          1   -1    0    0  501    0  0.00000000000E+00 -0.00000000000E+00 -0.70497796342E+02  0.70497796342E+02  0.00000000000E+00 0. -1.
         25    2    1    2    0    0  0.54271952666E+00 -0.55598401549E+01  0.16975845916E+03  0.21094212589E+03  0.12508972641E+03 0.  0.
          5    1    3    3  502    0  0.21436925739E+02 -0.52606176517E+02  0.14044567454E+03  0.15155662800E+03  0.41800000000E+01 0.  1.
         -5    1    3    3    0  502 -0.20894206213E+02  0.47046336362E+02  0.29312784621E+02  0.59385497898E+02  0.41800000000E+01 0.  1.
        -11    1    1    2    0    0  0.11554982080E+02  0.39756278469E+02 -0.29396065668E+02  0.50776057009E+02  0.00000000000E+00 0. -1.
         11    1    1    2    0    0 -0.12097701607E+02 -0.34196438315E+02  0.23677144116E+02  0.43316947388E+02  0.00000000000E+00 0.  1.
</event>
<event>
 7    1  0.2943257E-009  0.1020050E+03  0.7561462E-02  0.1276135E+00
          1   -1    0    0  501    0  0.00000000000E+00  0.00000000000E+00  0.18254137927E+02  0.18254137927E+02  0.00000000000E+00 0. -1.
         -1   -1    0    0    0  501 -0.00000000000E+00 -0.00000000000E+00 -0.68360420410E+03  0.68360420410E+03  0.00000000000E+00 0.  1.
         25    2    1    2    0    0 -0.90039415517E+01  0.11981282197E+01 -0.45523095095E+03  0.47219326974E+03  0.12509499916E+03 0.  0.
          5    1    3    3  502    0 -0.66900547881E+02 -0.34150416865E+01 -0.25193568936E+03  0.26072286012E+03  0.41800000000E+01 0.  1.
         -5    1    3    3    0  502  0.57896606330E+02  0.46131699062E+01 -0.20329526158E+03  0.21147040962E+03  0.41800000000E+01 0.  1.
        -11    1    1    2    0    0 -0.34478232746E+02 -0.57033218557E+01 -0.36120223198E+02  0.50258799600E+02  0.00000000000E+00 0. -1.
         11    1    1    2    0    0  0.43482174297E+02  0.45051936360E+01 -0.17399889203E+03  0.17940627268E+03  0.00000000000E+00 0.  1.
</event>
<event>
 7    1  0.2943257E-009  0.1910427E+03  0.7561462E-02  0.1157524E+00
          1   -1    0    0  501    0  0.00000000000E+00  0.00000000000E+00  0.37426364088E+03  0.37426364088E+03  0.00000000000E+00 0. -1.
         -1   -1    0    0    0  501 -0.00000000000E+00 -0.00000000000E+00 -0.14009040811E+03  0.14009040811E+03  0.00000000000E+00 0.  1.
         25    2    1    2    0    0 -0.15079530674E+03  0.10726005258E+03  0.36405896517E+02  0.22631777979E+03  0.12510157767E+03 0.  0.
          5    1    3    3  502    0 -0.60712875304E+02  0.74516861622E+02  0.75922757341E+02  0.12255836722E+03  0.41800000000E+01 0.  1.
         -5    1    3    3    0  502 -0.90082431441E+02  0.32743190954E+02 -0.39516860823E+02  0.10375941257E+03  0.41800000000E+01 0.  1.
        -11    1    1    2    0    0  0.80086623964E+02 -0.30833055030E+02  0.30627186303E+02  0.91118434805E+02  0.00000000000E+00 0.  1.
         11    1    1    2    0    0  0.70708682780E+02 -0.76426997547E+02  0.16714014995E+03  0.19691783439E+03  0.00000000000E+00 0. -1.
</event>
<event>
 7    1  0.2943257E-009  0.1004620E+03  0.7561462E-02  0.1279327E+00
         -2   -1    0    0    0  501 -0.00000000000E+00  0.00000000000E+00  0.68768355268E+02  0.68768355268E+02  0.00000000000E+00 0.  1.
          2   -1    0    0  501    0  0.00000000000E+00 -0.00000000000E+00 -0.20223810824E+03  0.20223810824E+03  0.00000000000E+00 0. -1.
         25    2    1    2    0    0 -0.82443470798E+01 -0.46829726399E+01 -0.24720150461E+02  0.12785814739E+03  0.12508685193E+03 0.  0.
          5    1    3    3  502    0  0.22983218685E+01 -0.64441493767E+02 -0.13153886053E+02  0.65943047553E+02  0.41800000000E+01 0. -1.
         -5    1    3    3    0  502 -0.10542668948E+02  0.59758521127E+02 -0.11566264409E+02  0.61915099840E+02  0.41800000000E+01 0. -1.
        -11    1    1    2    0    0  0.19355964787E+02  0.36754175014E+02 -0.16226828168E+02  0.44596330636E+02  0.00000000000E+00 0.  1.
         11    1    1    2    0    0 -0.11111617707E+02 -0.32071202374E+02 -0.92522774343E+02  0.98551985479E+02  0.00000000000E+00 0. -1.
</event>
<event>
 7    1  0.2943257E-009  0.9002818E+02  0.7561462E-02  0.1302783E+00
          2   -1    0    0  501    0  0.00000000000E+00  0.00000000000E+00  0.34436924512E+03  0.34436924512E+03  0.00000000000E+00 0. -1.
         -2   -1    0    0    0  501 -0.00000000000E+00 -0.00000000000E+00 -0.49889428579E+02  0.49889428579E+02  0.00000000000E+00 0.  1.
         25    2    1    2    0    0 -0.20230155702E+02  0.69596982251E+02  0.16635010687E+03  0.22040511868E+03  0.12511218625E+03 0.  0.
          5    1    3    3  502    0 -0.13101517743E+02 -0.25887980357E+01 -0.17681966325E+02  0.22549411867E+02  0.41800000000E+01 0. -1.
         -5    1    3    3    0  502 -0.71286379591E+01  0.72185780287E+02  0.18403207320E+03  0.19785570682E+03  0.41800000000E+01 0. -1.
        -11    1    1    2    0    0 -0.16994845306E+02 -0.46714245563E+02  0.13997532211E+02  0.51642776973E+02  0.00000000000E+00 0.  1.
         11    1    1    2    0    0  0.37225001007E+02 -0.22882736688E+02  0.11413217746E+03  0.12221077804E+03  0.00000000000E+00 0. -1.
</event>
<event>
 7    1  0.2943257E-009  0.1304703E+03  0.7561462E-02  0.1226760E+00
         -1   -1    0    0    0  501 -0.00000000000E+00  0.00000000000E+00  0.26991874154E+02  0.26991874154E+02  0.00000000000E+00 0.  1.
          1   -1    0    0  501    0  0.00000000000E+00 -0.00000000000E+00 -0.91648754704E+03  0.91648754704E+03  0.00000000000E+00 0. -1.
         25    2    1    2    0    0 -0.11248571116E+03 -0.49515172601E+01 -0.50449252487E+03  0.53182489413E+03  0.12508979827E+03 0.  0.
          5    1    3    3  502    0 -0.20780235260E+02  0.77969481547E+01 -0.35644378666E+03  0.35715858666E+03  0.41800000000E+01 0.  1.
         -5    1    3    3    0  502 -0.91705475895E+02 -0.12748465415E+02 -0.14804873821E+03  0.17466630747E+03  0.41800000000E+01 0.  1.
        -11    1    1    2    0    0  0.73277191058E+02 -0.42034611350E+02 -0.22789949873E+03  0.24305274490E+03  0.00000000000E+00 0.  1.
         11    1    1    2    0    0  0.39208520097E+02  0.46986128611E+02 -0.15710364929E+03  0.16860178217E+03  0.00000000000E+00 0. -1.
</event>
<event>
 7    1  0.2943257E-009  0.1564274E+03  0.7561462E-02  0.1192790E+00
         -1   -1    0    0    0  501 -0.00000000000E+00  0.00000000000E+00  0.27263348360E+02  0.27263348360E+02  0.00000000000E+00 0.  1.
          1   -1    0    0  501    0  0.00000000000E+00 -0.00000000000E+00 -0.21352271935E+04  0.21352271935E+04  0.00000000000E+00 0. -1.
         25    2    1    2    0    0  0.75876577114E+02 -0.12705364134E+03 -0.17876103389E+04  0.17980818299E+04  0.12509060970E+03 0.  0.
          5    1    3    3  502    0  0.34516171655E+01  0.23790679588E+01 -0.73922960295E+03  0.73925330700E+03  0.41800000000E+01 0. -1.
         -5    1    3    3    0  502  0.72424959948E+02 -0.12943270930E+03 -0.10483807360E+04  0.10588285229E+04  0.41800000000E+01 0. -1.
        -11    1    1    2    0    0 -0.82799150462E+02  0.96147160305E+02 -0.30253976855E+03  0.32807055233E+03  0.00000000000E+00 0. -1.
         11    1    1    2    0    0  0.69225733481E+01  0.30906481039E+02 -0.17813737665E+02  0.36338159579E+02  0.00000000000E+00 0.  1.
</event>
<event>
 7    1  0.2943257E-009  0.2259038E+03  0.7561462E-02  0.1129556E+00
          2   -1    0    0  501    0  0.00000000000E+00  0.00000000000E+00  0.14701690604E+04  0.14701690604E+04  0.00000000000E+00 0. -1.
         -2   -1    0    0    0  501 -0.00000000000E+00 -0.00000000000E+00 -0.41380404329E+02  0.41380404329E+02  0.00000000000E+00 0.  1.
         25    2    1    2    0    0 -0.19896878866E+03 -0.93973971343E+02  0.66119239910E+03  0.70798487648E+03  0.12509000973E+03 0.  0.
          5    1    3    3  502    0 -0.10783550061E+03 -0.89242275119E+02  0.24791369198E+03  0.28473031088E+03  0.41800000000E+01 0. -1.
         -5    1    3    3    0  502 -0.91133288052E+02 -0.47316962236E+01  0.41327870712E+03  0.42325456560E+03  0.41800000000E+01 0. -1.
        -11    1    1    2    0    0  0.99380792434E+02  0.39834469451E+02  0.52481612241E+03  0.53562607219E+03  0.00000000000E+00 0. -1.
         11    1    1    2    0    0  0.99587996228E+02  0.54139501892E+02  0.24278013456E+03  0.26793851608E+03  0.00000000000E+00 0.  1.
</event>
<event>
 7    1  0.4823289E-009  0.1059634E+03  0.7561462E-02  0.1268233E+00
          2   -1    0    0  501    0  0.00000000000E+00  0.00000000000E+00  0.37718714042E+03  0.37718714042E+03  0.00000000000E+00 0. -1.
         -2   -1    0    0    0  501 -0.00000000000E+00 -0.00000000000E+00 -0.42501662049E+02  0.42501662049E+02  0.00000000000E+00 0.  1.
         25    2    1    2    0    0  0.60885951959E+02 -0.66340986032E+01  0.22276326621E+03  0.26272084046E+03  0.12509059449E+03 0.  0.
          5    1    3    3  502    0  0.70799768126E+02  0.31598018910E+02  0.68874056144E+02  0.10378896847E+03  0.41800000000E+01 0. -1.
         -5    1    3    3    0  502 -0.99138161669E+01 -0.38232117514E+02  0.15388921007E+03  0.15893187199E+03  0.41800000000E+01 0. -1.
        -11    1    1    2    0    0 -0.26715196793E+02  0.39150376544E+02  0.96208873805E+02  0.10725018006E+03  0.00000000000E+00 0. -1.
         11    1    1    2    0    0 -0.34170755165E+02 -0.32516277941E+02  0.15713338352E+02  0.49717781949E+02  0.00000000000E+00 0.  1.
</event>
<event>
 7    1  0.2943257E-009  0.2953836E+03  0.7561462E-02  0.1087571E+00
          1   -1    0    0  501    0  0.00000000000E+00  0.00000000000E+00  0.11223780616E+04  0.11223780616E+04  0.00000000000E+00 0. -1.
         -1   -1    0    0    0  501 -0.00000000000E+00 -0.00000000000E+00 -0.84340442460E+02  0.84340442460E+02  0.00000000000E+00 0.  1.
         25    2    1    2    0    0 -0.14851880010E+03  0.24372384195E+03  0.41791086417E+03  0.52130167412E+03  0.12508716935E+03 0.  0.
          5    1    3    3  502    0 -0.16514111793E+02  0.11186571582E+03  0.23071211803E+03  0.25696732880E+03  0.41800000000E+01 0.  1.
         -5    1    3    3    0  502 -0.13200468831E+03  0.13185812613E+03  0.18719874614E+03  0.26433434532E+03  0.41800000000E+01 0.  1.
        -11    1    1    2    0    0  0.14203334947E+03 -0.19183124654E+03  0.52885711329E+03  0.58022628843E+03  0.00000000000E+00 0. -1.
         11    1    1    2    0    0  0.64854506387E+01 -0.51892595411E+02  0.91269641641E+02  0.10519054147E+03  0.00000000000E+00 0.  1.
</event>
<event>
 7    1  0.2943257E-009  0.2004737E+03  0.7561462E-02  0.1149340E+00
         -1   -1    0    0    0  501 -0.00000000000E+00  0.00000000000E+00  0.17589428349E+03  0.17589428349E+03  0.00000000000E+00 0.  1.
          1   -1    0    0  501    0  0.00000000000E+00 -0.00000000000E+00 -0.26901182832E+03  0.26901182832E+03  0.00000000000E+00 0. -1.
         25    2    1    2    0    0  0.99516827646E+02  0.15140283953E+03 -0.11168262882E+03  0.24687493480E+03  0.12509118693E+03 0.  0.
          5    1    3    3  502    0  0.11324263957E+03  0.73312763250E+02 -0.96808520696E+02  0.16609641402E+03  0.41800000000E+01 0.  1.
         -5    1    3    3    0  502 -0.13725811919E+02  0.78090076279E+02 -0.14874108126E+02  0.80778520776E+02  0.41800000000E+01 0.  1.
        -11    1    1    2    0    0 -0.85037315528E+02 -0.91330191723E+02  0.42406137501E+02  0.13179844252E+03  0.00000000000E+00 0.  1.
         11    1    1    2    0    0 -0.14479512118E+02 -0.60072647807E+02 -0.23841053514E+02  0.66232734493E+02  0.00000000000E+00 0. -1.
</event>
<event>
 7    1  0.2943257E-009  0.7890152E+02  0.7561462E-02  0.1332198E+00
         -2   -1    0    0    0  501 -0.00000000000E+00  0.00000000000E+00  0.32867934600E+02  0.32867934600E+02  0.00000000000E+00 0.  1.
          2   -1    0    0  501    0  0.00000000000E+00 -0.00000000000E+00 -0.51973168246E+03  0.51973168246E+03  0.00000000000E+00 0. -1.
         25    2    1    2    0    0  0.55761762430E+02  0.50099911049E+02 -0.27594164270E+03  0.31210637315E+03  0.12508885941E+03 0.  0.
          5    1    3    3  502    0  0.38206828658E+02  0.45373627606E+02 -0.32144070964E+02  0.67596165101E+02  0.41800000000E+01 0. -1.
         -5    1    3    3    0  502  0.17554933772E+02  0.47262834432E+01 -0.24379757174E+03  0.24451020805E+03  0.41800000000E+01 0. -1.
        -11    1    1    2    0    0 -0.40570562720E+02 -0.18431941616E+02 -0.19818339319E+03  0.20313139680E+03  0.00000000000E+00 0. -1.
         11    1    1    2    0    0 -0.15191199710E+02 -0.31667969433E+02 -0.12738711969E+02  0.37361847107E+02  0.00000000000E+00 0.  1.
</event>
<event>
 7    1  0.2943257E-009  0.1521472E+03  0.7561462E-02  0.1197859E+00
         -2   -1    0    0    0  501 -0.00000000000E+00  0.00000000000E+00  0.26910460704E+02  0.26910460704E+02  0.00000000000E+00 0.  1.
          2   -1    0    0  501    0  0.00000000000E+00 -0.00000000000E+00 -0.11532733927E+04  0.11532733927E+04  0.00000000000E+00 0. -1.
         25    2    1    2    0    0  0.67923909309E+01  0.13854746908E+03 -0.54821796659E+03  0.57916527288E+03  0.12509171295E+03 0.  0.
          5    1    3    3  502    0 -0.87382435300E+01  0.10149803150E+03 -0.51998321505E+03  0.52988510418E+03  0.41800000000E+01 0.  1.
         -5    1    3    3    0  502  0.15530634461E+02  0.37049437583E+02 -0.28234751540E+02  0.49280168694E+02  0.41800000000E+01 0.  1.
        -11    1    1    2    0    0 -0.34886573384E+02 -0.20207803232E+02 -0.19134675586E+03  0.19554797184E+03  0.00000000000E+00 0. -1.
         11    1    1    2    0    0  0.28094182453E+02 -0.11833966585E+03 -0.38679820954E+03  0.40547060868E+03  0.00000000000E+00 0.  1.
</event>
<event>
 7    1  0.2943257E-009  0.9128022E+02  0.7561462E-02  0.1299781E+00
          2   -1    0    0  501    0  0.00000000000E+00  0.00000000000E+00  0.63960627273E+02  0.63960627273E+02  0.00000000000E+00 0.  1.
         -2   -1    0    0    0  501 -0.00000000000E+00 -0.00000000000E+00 -0.18927170131E+03  0.18927170131E+03  0.00000000000E+00 0. -1.
         25    2    1    2    0    0 -0.88894656307E+01  0.35825845668E+01 -0.96812536368E+02  0.15847276776E+03  0.12509633653E+03 0.  0.
          5    1    3    3  502    0 -0.22426269310E+02 -0.48300225508E+02 -0.89454510192E+02  0.10418940029E+03  0.41800000000E+01 0. -1.
         -5    1    3    3    0  502  0.13536803679E+02  0.51882810074E+02 -0.73580261755E+01  0.54283367474E+02  0.41800000000E+01 0. -1.
        -11    1    1    2    0    0  0.40938374815E+02 -0.11153555105E+02  0.10506582088E+02  0.43712018841E+02  0.00000000000E+00 0.  1.
         11    1    1    2    0    0 -0.32048909184E+02  0.75709705381E+01 -0.39005119758E+02  0.51047541979E+02  0.00000000000E+00 0. -1.
</event>
<event>
 7    1  0.2943257E-009  0.1248653E+03  0.7561462E-02  0.1235280E+00
          2   -1    0    0  501    0  0.00000000000E+00  0.00000000000E+00  0.90431804059E+03  0.90431804059E+03  0.00000000000E+00 0. -1.
         -2   -1    0    0    0  501 -0.00000000000E+00 -0.00000000000E+00 -0.21146566390E+02  0.21146566390E+02  0.00000000000E+00 0.  1.
         25    2    1    2    0    0 -0.46964020903E+01 -0.77451561550E+02  0.60052442563E+03  0.61830134128E+03  0.12508462047E+03 0.  0.
          5    1    3    3  502    0  0.49554625216E+02 -0.78292392587E+02  0.37269912943E+03  0.38406701641E+03  0.41800000000E+01 0.  1.
         -5    1    3    3    0  502 -0.54251027306E+02  0.84083103703E+00  0.22782529620E+03  0.23423432487E+03  0.41800000000E+01 0.  1.
        -11    1    1    2    0    0 -0.20399859117E+02  0.74557777821E+02  0.26576766576E+03  0.27678054240E+03  0.00000000000E+00 0. -1.
         11    1    1    2    0    0  0.25096261207E+02  0.28937837283E+01  0.16879382804E+02  0.30382723293E+02  0.00000000000E+00 0.  1.
</event>
<event>
 7    1  0.2943257E-009  0.8246316E+02  0.7561462E-02  0.1322203E+00
         -3   -1    0    0    0  501 -0.00000000000E+00  0.00000000000E+00  0.25957567826E+02  0.25957567826E+02  0.00000000000E+00 0.  1.
          3   -1    0    0  501    0  0.00000000000E+00 -0.00000000000E+00 -0.49185111589E+03  0.49185111589E+03  0.00000000000E+00 0. -1.
         25    2    1    2    0    0  0.19653138384E+02  0.73054539463E+01 -0.31850371774E+03  0.34282433145E+03  0.12507713025E+03 0.  0.
          5    1    3    3  502    0 -0.26279580212E+02  0.55174448652E+01 -0.71948083836E+01  0.28112207342E+02  0.41800000000E+01 0. -1.
         -5    1    3    3    0  502  0.45932718596E+02  0.17880090812E+01 -0.31130890936E+03  0.31471212410E+03  0.41800000000E+01 0. -1.
        -11    1    1    2    0    0 -0.52474946485E+02 -0.20338419005E+02 -0.10995545093E+03  0.12352114186E+03  0.00000000000E+00 0.  1.
         11    1    1    2    0    0  0.32821808101E+02  0.13032965058E+02 -0.37434379390E+02  0.51463210408E+02  0.00000000000E+00 0. -1.
</event>
<event>
 7    1  0.2943257E-009  0.1638206E+03  0.7561462E-02  0.1184450E+00
          2   -1    0    0  501    0  0.00000000000E+00  0.00000000000E+00  0.28824169781E+03  0.28824169781E+03  0.00000000000E+00 0.  1.
         -2   -1    0    0    0  501 -0.00000000000E+00 -0.00000000000E+00 -0.15141578379E+03  0.15141578379E+03  0.00000000000E+00 0. -1.
         25    2    1    2    0    0 -0.49273452078E+02 -0.12415657482E+03  0.19507371373E+03  0.26747661780E+03  0.12508900484E+03 0.  0.
          5    1    3    3  502    0 -0.83087853109E+01 -0.13425974420E+03  0.17444652642E+03  0.22032652543E+03  0.41800000000E+01 0.  1.
         -5    1    3    3    0  502 -0.40964666767E+02  0.10103169379E+02  0.20627187312E+02  0.47150092377E+02  0.41800000000E+01 0.  1.
        -11    1    1    2    0    0  0.11335461856E+02 -0.75365593459E+01  0.12027543421E+02  0.18164642110E+02  0.00000000000E+00 0.  1.
         11    1    1    2    0    0  0.37937990222E+02  0.13169313416E+03 -0.70275343135E+02  0.15401622168E+03  0.00000000000E+00 0. -1.
</event>
<event>
 7    1  0.2943257E-009  0.1874478E+03  0.7561462E-02  0.1160784E+00
          1   -1    0    0  501    0  0.00000000000E+00  0.00000000000E+00  0.23814784777E+03  0.23814784777E+03  0.00000000000E+00 0. -1.
         -1   -1    0    0    0  501 -0.00000000000E+00 -0.00000000000E+00 -0.17327605796E+03  0.17327605796E+03  0.00000000000E+00 0.  1.
         25    2    1    2    0    0  0.29144552710E+02 -0.16607377065E+03  0.61176888960E+02  0.21868165692E+03  0.12509657501E+03 0.  0.
          5    1    3    3  502    0 -0.22727763823E+02 -0.47521868725E+02  0.71377511951E+02  0.88809351241E+02  0.41800000000E+01 0.  1.
         -5    1    3    3    0  502  0.51872316533E+02 -0.11855190193E+03 -0.10200622991E+02  0.12987230568E+03  0.41800000000E+01 0.  1.
        -11    1    1    2    0    0 -0.47941820349E+02  0.16701625222E+03  0.53959644581E+01  0.17384465214E+03  0.00000000000E+00 0.  1.
         11    1    1    2    0    0  0.18797267640E+02 -0.94248157169E+00 -0.17010636091E+01  0.18897596663E+02  0.00000000000E+00 0. -1.
</event>
<event>
 7    1  0.2943257E-009  0.1818237E+03  0.7561462E-02  0.1166050E+00
         -1   -1    0    0    0  501 -0.00000000000E+00  0.00000000000E+00  0.90069381048E+03  0.90069381048E+03  0.00000000000E+00 0. -1.
          1   -1    0    0  501    0  0.00000000000E+00 -0.00000000000E+00 -0.46400953790E+02  0.46400953790E+02  0.00000000000E+00 0.  1.
         25    2    1    2    0    0  0.19763524980E+02 -0.15821712986E+03  0.29273211812E+03  0.35604095172E+03  0.12509919753E+03 0.  0.
          5    1    3    3  502    0  0.44275906913E+02 -0.26025029797E+02  0.15577670537E+03  0.16407776341E+03  0.41800000000E+01 0.  1.
         -5    1    3    3    0  502 -0.24512381933E+02 -0.13219210006E+03  0.13695541275E+03  0.19196318832E+03  0.41800000000E+01 0.  1.
        -11    1    1    2    0    0 -0.38040140806E+02  0.30961500355E+02  0.92565731604E+02  0.10475725027E+03  0.00000000000E+00 0.  1.
         11    1    1    2    0    0  0.18276615826E+02  0.12725562950E+03  0.46899500696E+03  0.48629656227E+03  0.00000000000E+00 0. -1.
</event>
<event>
 7    1  0.2943257E-009  0.9109281E+02  0.7561462E-02  0.1300227E+00
          2   -1    0    0  501    0  0.00000000000E+00  0.00000000000E+00  0.74165864204E+02  0.74165864204E+02  0.00000000000E+00 0. -1.
         -2   -1    0    0    0  501 -0.00000000000E+00 -0.00000000000E+00 -0.18913052067E+03  0.18913052067E+03  0.00000000000E+00 0.  1.
         25    2    1    2    0    0  0.29524163677E+01  0.38616162787E+02 -0.10051832880E+03  0.16508134524E+03  0.12509193152E+03 0.  0.
          5    1    3    3  502    0 -0.52911649549E+02  0.36898763349E+02 -0.85260108410E+02  0.10699495259E+03  0.41800000000E+01 0. -1.
         -5    1    3    3    0  502  0.55864065916E+02  0.17173994382E+01 -0.15258220389E+02  0.58086392649E+02  0.41800000000E+01 0. -1.
        -11    1    1    2    0    0  0.21502057164E+01  0.11207776589E+02 -0.40276475618E+02  0.41862060734E+02  0.00000000000E+00 0.  1.
         11    1    1    2    0    0 -0.51026220840E+01 -0.49823939376E+02  0.25830147952E+02  0.56352978895E+02  0.00000000000E+00 0. -1.
</event>
<event>
 7    1  0.2943257E-009  0.1137691E+03  0.7561462E-02  0.1253745E+00
          1   -1    0    0  501    0  0.00000000000E+00  0.00000000000E+00  0.14507838577E+03  0.14507838577E+03  0.00000000000E+00 0. -1.
         -1   -1    0    0    0  501 -0.00000000000E+00 -0.00000000000E+00 -0.10789238500E+03  0.10789238500E+03  0.00000000000E+00 0.  1.
         25    2    1    2    0    0 -0.26140610168E+02 -0.10680866651E+02  0.49379322290E+02  0.13741650220E+03  0.12509022821E+03 0.  0.
          5    1    3    3  502    0  0.44587002884E+02 -0.39836167432E+01  0.48653711422E+02  0.66245951300E+02  0.41800000000E+01 0.  1.
         -5    1    3    3    0  502 -0.70727613052E+02 -0.66972499077E+01  0.72561086789E+00  0.71170550900E+02  0.41800000000E+01 0.  1.
        -11    1    1    2    0    0  0.51326713475E+02 -0.32978867790E+02 -0.20727420869E+02  0.64433401375E+02  0.00000000000E+00 0.  1.
         11    1    1    2    0    0 -0.25186103307E+02  0.43659734441E+02  0.85340993515E+01  0.51120867197E+02  0.00000000000E+00 0. -1.
</event>
<event>
 7    1  0.3534384E-009  0.1155489E+03  0.7561462E-02  0.1250626E+00
          2   -1    0    0  501    0  0.00000000000E+00  0.00000000000E+00  0.45714364538E+03  0.45714364538E+03  0.00000000000E+00 0. -1.
         -2   -1    0    0    0  501 -0.00000000000E+00 -0.00000000000E+00 -0.45018317506E+02  0.45018317506E+02  0.00000000000E+00 0.  1.
         25    2    1    2    0    0  0.25517544051E+02 -0.89828918910E+02  0.21228408737E+03  0.26349484816E+03  0.12507846149E+03 0.  0.
          5    1    3    3  502    0 -0.20792617540E+02 -0.10451988289E+02 -0.78488892691E+01  0.24912937726E+02  0.41800000000E+01 0. -1.
         -5    1    3    3    0  502  0.46310161591E+02 -0.79376930620E+02  0.22013297664E+03  0.23858191044E+03  0.41800000000E+01 0. -1.
        -11    1    1    2    0    0  0.14209605783E+02  0.69300735806E+02  0.17202777596E+03  0.18600553912E+03  0.00000000000E+00 0. -1.
         11    1    1    2    0    0 -0.39727149834E+02  0.20528183104E+02  0.27813464530E+02  0.52661575600E+02  0.00000000000E+00 0.  1.
</event>
<event>
 7    1  0.2943257E-009  0.9770456E+02  0.7561462E-02  0.1285198E+00
         -2   -1    0    0    0  501 -0.00000000000E+00  0.00000000000E+00  0.71492092810E+02  0.71492092810E+02  0.00000000000E+00 0. -1.
          2   -1    0    0  501    0  0.00000000000E+00 -0.00000000000E+00 -0.32744273912E+03  0.32744273912E+03  0.00000000000E+00 0.  1.
         25    2    1    2    0    0 -0.46755202799E+01  0.20835240582E+02 -0.10909097881E+03  0.16734774073E+03  0.12509379254E+03 0.  0.
          5    1    3    3  502    0  0.33672239197E+02  0.55586386756E+02 -0.27619227440E+02  0.70738675485E+02  0.41800000000E+01 0. -1.
         -5    1    3    3    0  502 -0.38347759477E+02 -0.34751146174E+02 -0.81471751367E+02  0.96609065248E+02  0.41800000000E+01 0. -1.
        -11    1    1    2    0    0  0.40109789995E+02 -0.10891074015E+02 -0.17836332798E+03  0.18314171430E+03  0.00000000000E+00 0.  1.
         11    1    1    2    0    0 -0.35434269715E+02 -0.99441665662E+01  0.31503660482E+02  0.48445376897E+02  0.00000000000E+00 0. -1.
</event>
<event>
 7    1  0.2943257E-009  0.1226709E+03  0.7561462E-02  0.1238755E+00
          1   -1    0    0  501    0  0.00000000000E+00  0.00000000000E+00  0.14866477134E+02  0.14866477134E+02  0.00000000000E+00 0. -1.
         -1   -1    0    0    0  501 -0.00000000000E+00 -0.00000000000E+00 -0.11850324963E+04  0.11850324963E+04  0.00000000000E+00 0.  1.
         25    2    1    2    0    0  0.74082347012E+02 -0.17011528053E+02 -0.64303568735E+03  0.65948425081E+03  0.12508795159E+03 0.  0.
          5    1    3    3  502    0  0.83442223069E+02 -0.46119283442E+02 -0.59349171779E+03  0.60111520059E+03  0.41800000000E+01 0.  1.
         -5    1    3    3    0  502 -0.93598760564E+01  0.29107755390E+02 -0.49543969561E+02  0.58369050219E+02  0.41800000000E+01 0.  1.
        -11    1    1    2    0    0 -0.66058472908E+02  0.51424360871E+02 -0.37668273100E+03  0.38587312237E+03  0.00000000000E+00 0. -1.
         11    1    1    2    0    0 -0.80238741045E+01 -0.34412832818E+02 -0.15044760082E+03  0.15454160026E+03  0.00000000000E+00 0.  1.
</event>
<event>
 7    1  0.2943257E-009  0.1481600E+03  0.7561462E-02  0.1202752E+00
         -1   -1    0    0    0  501 -0.00000000000E+00  0.00000000000E+00  0.46926913764E+02  0.46926913764E+02  0.00000000000E+00 0.  1.
          1   -1    0    0  501    0  0.00000000000E+00 -0.00000000000E+00 -0.57715473852E+03  0.57715473852E+03  0.00000000000E+00 0. -1.
         25    2    1    2    0    0 -0.11512833126E+03  0.40369355619E+02 -0.29714108213E+03  0.34470911680E+03  0.12508930803E+03 0.  0.
          5    1    3    3  502    0  0.15793288304E+02 -0.23442148926E+02 -0.40014371593E+02  0.49168939746E+02  0.41800000000E+01 0. -1.
         -5    1    3    3    0  502 -0.13092161957E+03  0.63811504545E+02 -0.25712671054E+03  0.29554017705E+03  0.41800000000E+01 0. -1.
        -11    1    1    2    0    0  0.57185566927E+02 -0.21729525435E+02 -0.31522890284E+02  0.68818994124E+02  0.00000000000E+00 0.  1.
         11    1    1    2    0    0  0.57942764334E+02 -0.18639830185E+02 -0.20156385235E+03  0.21055354136E+03  0.00000000000E+00 0. -1.
</event>
<event>
 7    1  0.2943257E-009  0.1328858E+03  0.7561462E-02  0.1223236E+00
         -1   -1    0    0    0  501 -0.00000000000E+00  0.00000000000E+00  0.76971987627E+02  0.76971987627E+02  0.00000000000E+00 0.  1.
          1   -1    0    0  501    0  0.00000000000E+00 -0.00000000000E+00 -0.28302495890E+03  0.28302495890E+03  0.00000000000E+00 0. -1.
         25    2    1    2    0    0 -0.28292471928E+02 -0.73165824131E+02 -0.71153521511E+02  0.16389833658E+03  0.12508452871E+03 0.  0.
          5    1    3    3  502    0  0.18508444453E+02 -0.89759411539E+02 -0.67565674320E+02  0.11393817281E+03  0.41800000000E+01 0.  1.
         -5    1    3    3    0  502 -0.46800916382E+02  0.16593587408E+02 -0.35878471912E+01  0.49960163778E+02  0.41800000000E+01 0.  1.
        -11    1    1    2    0    0  0.40466118429E+02  0.92718635393E+02 -0.59734561859E+02  0.11748391367E+03  0.00000000000E+00 0.  1.
         11    1    1    2    0    0 -0.12173646501E+02 -0.19552811262E+02 -0.75164887904E+02  0.78614696278E+02  0.00000000000E+00 0. -1.
</event>
<event>
 7    1  0.2943257E-009  0.1609101E+03  0.7561462E-02  0.1187673E+00
         -2   -1    0    0    0  501 -0.00000000000E+00  0.00000000000E+00  0.89712815993E+02  0.89712815993E+02  0.00000000000E+00 0.  1.
          2   -1    0    0  501    0  0.00000000000E+00 -0.00000000000E+00 -0.31777216654E+03  0.31777216654E+03  0.00000000000E+00 0. -1.
         25    2    1    2    0    0  0.12655947397E+03 -0.18812841771E+02 -0.98627943476E+02  0.20431863143E+03  0.12508960168E+03 0.  0.
          5    1    3    3  502    0  0.84981515535E+02 -0.71887005111E+02 -0.61413524408E+02  0.12719549075E+03  0.41800000000E+01 0. -1.
         -5    1    3    3    0  502  0.41577958434E+02  0.53074163340E+02 -0.37214419068E+02  0.77123140680E+02  0.41800000000E+01 0. -1.
        -11    1    1    2    0    0 -0.45426076406E+02 -0.23752965622E+02 -0.93238562795E+01  0.52102457614E+02  0.00000000000E+00 0.  1.
         11    1    1    2    0    0 -0.81133397564E+02  0.42565807393E+02 -0.12010755079E+03  0.15106389349E+03  0.00000000000E+00 0. -1.
</event>
<event>
 6    1  0.2943257E-009  0.7413994E+02  0.7561462E-02  0.1346555E+00
          2   -1    0    0  501    0  0.00000000000E+00  0.00000000000E+00  0.18769439551E+03  0.18769439551E+03  0.00000000000E+00 0. -1.
         -2   -1    0    0    0  501 -0.00000000000E+00 -0.00000000000E+00 -0.69826148691E+02  0.69826148691E+02  0.00000000000E+00 0.  1.
          5    1    1    2  502    0  0.71320692558E+01  0.20933481288E+02 -0.36044333131E+02  0.42494039601E+02  0.41800000000E+01 0.  1.
         -5    1    1    2    0  502 -0.23714969343E+02  0.27930850921E+02  0.10126295825E+03  0.10776915755E+03  0.41800000000E+01 0.  1.
        -11    1    1    2    0    0 -0.18130844089E+02 -0.50988688548E+02  0.15332703102E+02  0.56246472348E+02  0.00000000000E+00 0.  1.
         11    1    1    2    0    0  0.34713744176E+02  0.21243563388E+01  0.37316918588E+02  0.51010874699E+02  0.00000000000E+00 0. -1.
</event>
<event>
 7    1  0.2943257E-009  0.9674671E+02  0.7561462E-02  0.1287290E+00
         -2   -1    0    0    0  501 -0.00000000000E+00  0.00000000000E+00  0.29836234415E+02  0.29836234415E+02  0.00000000000E+00 0.  1.
          2   -1    0    0  501    0  0.00000000000E+00 -0.00000000000E+00 -0.40002779970E+03  0.40002779970E+03  0.00000000000E+00 0. -1.
         25    2    1    2    0    0 -0.12350153855E+02 -0.14201500238E+02 -0.21148845665E+03  0.24643434498E+03  0.12509320599E+03 0.  0.
          5    1    3    3  502    0  0.18918624949E+02  0.50678943850E+02 -0.95685193979E+02  0.10999726572E+03  0.41800000000E+01 0. -1.
         -5    1    3    3    0  502 -0.31268778804E+02 -0.64880444088E+02 -0.11580326267E+03  0.13643707926E+03  0.41800000000E+01 0. -1.
        -11    1    1    2    0    0  0.56103060573E+01 -0.25863881153E+02 -0.13242514628E+03  0.13504382715E+03  0.00000000000E+00 0. -1.
         11    1    1    2    0    0  0.67398477979E+01  0.40065381391E+02 -0.26277962357E+02  0.48385861985E+02  0.00000000000E+00 0.  1.
</event>
<event>
 7    1  0.2943257E-009  0.7645786E+02  0.7561462E-02  0.1339415E+00
         -1   -1    0    0    0  501 -0.00000000000E+00  0.00000000000E+00  0.15381190867E+02  0.15381190867E+02  0.00000000000E+00 0.  1.
          1   -1    0    0  501    0  0.00000000000E+00 -0.00000000000E+00 -0.92673187046E+03  0.92673187046E+03  0.00000000000E+00 0. -1.
         25    2    1    2    0    0 -0.21518933883E+02 -0.27023541226E+02 -0.65551048695E+03  0.66823228607E+03  0.12508818227E+03 0.  0.
          5    1    3    3  502    0 -0.17829245137E+02  0.84200057657E+01 -0.60974925737E+03  0.61008229588E+03  0.41800000000E+01 0. -1.
         -5    1    3    3    0  502 -0.36896887456E+01 -0.35443546992E+02 -0.45761229580E+02  0.58149990190E+02  0.41800000000E+01 0. -1.
        -11    1    1    2    0    0  0.38024359544E+02 -0.22839765175E+02 -0.13556173848E+03  0.14263411840E+03  0.00000000000E+00 0. -1.
         11    1    1    2    0    0 -0.16505425661E+02  0.49863306401E+02 -0.12027845417E+03  0.13124665687E+03  0.00000000000E+00 0.  1.
</event>
<event>
 7    1  0.2943257E-009  0.1078563E+03  0.7561462E-02  0.1264592E+00
          4   -1    0    0  501    0  0.00000000000E+00  0.00000000000E+00  0.16672557230E+03  0.16672557230E+03  0.00000000000E+00 0. -1.
         -4   -1    0    0    0  501 -0.00000000000E+00 -0.00000000000E+00 -0.85956484464E+02  0.85956484464E+02  0.00000000000E+00 0.  1.
         25    2    1    2    0    0  0.38523447998E+02 -0.30671163256E+02  0.67706306637E+02  0.15052062273E+03  0.12509011794E+03 0.  0.
          5    1    3    3  502    0  0.67352342825E+02  0.76539023199E+01  0.75724461918E+02  0.10171817359E+03  0.41800000000E+01 0. -1.
         -5    1    3    3    0  502 -0.28828894827E+02 -0.38325065576E+02 -0.80181552816E+01  0.48802449144E+02  0.41800000000E+01 0. -1.
        -11    1    1    2    0    0  0.51577122858E+01 -0.26901095851E+02 -0.45801588540E+01  0.27771366713E+02  0.00000000000E+00 0.  1.
         11    1    1    2    0    0 -0.43681160284E+02  0.57572259107E+02  0.17642940054E+02  0.74390067322E+02  0.00000000000E+00 0. -1.
</event>
<event>
 7    1  0.2943257E-009  0.1067446E+03  0.7561462E-02  0.1266720E+00
          1   -1    0    0  501    0  0.00000000000E+00  0.00000000000E+00  0.47942969578E+03  0.47942969578E+03  0.00000000000E+00 0. -1.
         -1   -1    0    0    0  501 -0.00000000000E+00 -0.00000000000E+00 -0.25007217489E+02  0.25007217489E+02  0.00000000000E+00 0.  1.
         25    2    1    2    0    0  0.16261704550E+02 -0.23114831975E+02  0.28332729581E+03  0.31099921921E+03  0.12508964507E+03 0.  0.
          5    1    3    3  502    0 -0.26585273289E+02 -0.61415322048E+02  0.11546593222E+03  0.13352330299E+03  0.41800000000E+01 0. -1.
         -5    1    3    3    0  502  0.42846977839E+02  0.38300490073E+02  0.16786136359E+03  0.17747591621E+03  0.41800000000E+01 0. -1.
        -11    1    1    2    0    0 -0.41431067677E+02  0.40725760231E+02  0.12744401691E+03  0.14006105226E+03  0.00000000000E+00 0.  1.
         11    1    1    2    0    0  0.25169363128E+02 -0.17610928255E+02  0.43651165573E+02  0.53376641803E+02  0.00000000000E+00 0. -1.
</event>
<event>
 7    1  0.2943257E-009  0.1445172E+03  0.7561462E-02  0.1207377E+00
         -1   -1    0    0    0  501 -0.00000000000E+00  0.00000000000E+00  0.33229534331E+02  0.33229534331E+02  0.00000000000E+00 0.  1.
          1   -1    0    0  501    0  0.00000000000E+00 -0.00000000000E+00 -0.76420908649E+03  0.76420908649E+03  0.00000000000E+00 0. -1.
         25    2    1    2    0    0  0.72528328666E+02 -0.90653473697E+02 -0.40777522688E+03  0.44204846348E+03  0.12509115741E+03 0.  0.
          5    1    3    3  502    0  0.34661006364E+02 -0.11842370585E+03 -0.30014025935E+03  0.32454153379E+03  0.41800000000E+01 0.  1.
         -5    1    3    3    0  502  0.37867322302E+02  0.27770232157E+02 -0.10763496752E+03  0.11750692970E+03  0.41800000000E+01 0.  1.
        -11    1    1    2    0    0 -0.55556372740E+02  0.51503731042E+02 -0.86992792038E+02  0.11535549718E+03  0.00000000000E+00 0.  1.
         11    1    1    2    0    0 -0.16971955926E+02  0.39149742655E+02 -0.23621153324E+03  0.24003466015E+03  0.00000000000E+00 0. -1.
</event>
<event>
 7    1  0.2943257E-009  0.1349421E+03  0.7561462E-02  0.1220301E+00
         -2   -1    0    0    0  501 -0.00000000000E+00  0.00000000000E+00  0.59320578465E+02  0.59320578465E+02  0.00000000000E+00 0.  1.
          2   -1    0    0  501    0  0.00000000000E+00 -0.00000000000E+00 -0.62495696619E+03  0.62495696619E+03  0.00000000000E+00 0. -1.
         25    2    1    2    0    0 -0.42766329411E+02 -0.10558689866E+03 -0.49207069128E+03  0.52034468572E+03  0.12508986623E+03 0.  0.
          5    1    3    3  502    0 -0.29520927744E+02 -0.18205092774E+02 -0.20414947263E+02  0.40461747979E+02  0.41800000000E+01 0. -1.
         -5    1    3    3    0  502 -0.13245401667E+02 -0.87381805887E+02 -0.47165574402E+03  0.47988293774E+03  0.41800000000E+01 0. -1.
        -11    1    1    2    0    0 -0.24203269828E+02  0.62026218285E+02 -0.31847892988E+02  0.73806085880E+02  0.00000000000E+00 0.  1.
         11    1    1    2    0    0  0.66969599239E+02  0.43560680377E+02 -0.41717803455E+02  0.90126773060E+02  0.00000000000E+00 0. -1.
</event>
<event>
 7    1  0.2943257E-009  0.1039391E+03  0.7561462E-02  0.1272224E+00
          2   -1    0    0  501    0  0.00000000000E+00  0.00000000000E+00  0.24710031305E+03  0.24710031305E+03  0.00000000000E+00 0. -1.
         -2   -1    0    0    0  501 -0.00000000000E+00 -0.00000000000E+00 -0.57895711817E+02  0.57895711817E+02  0.00000000000E+00 0.  1.
         25    2    1    2    0    0 -0.12552933724E+02 -0.29130277621E+02  0.14639115125E+03  0.19515055495E+03  0.12508885128E+03 0.  0.
          5    1    3    3  502    0 -0.12714187139E+02  0.47182649150E+02  0.80387001539E+02  0.94166848476E+02  0.41800000000E+01 0.  1.
         -5    1    3    3    0  502  0.16125341521E+00 -0.76312926771E+02  0.66004149708E+02  0.10098370648E+03  0.41800000000E+01 0.  1.
        -11    1    1    2    0    0  0.39544748878E+02 -0.39156161159E+01  0.52742537920E+02  0.66037069284E+02  0.00000000000E+00 0. -1.
         11    1    1    2    0    0 -0.26991815154E+02  0.33045893737E+02 -0.99290879373E+01  0.43808400627E+02  0.00000000000E+00 0.  1.
</event>
<event>
 7    1  0.2943257E-009  0.1271913E+03  0.7561462E-02  0.1231684E+00
         -2   -1    0    0    0  501 -0.00000000000E+00  0.00000000000E+00  0.29211211530E+02  0.29211211530E+02  0.00000000000E+00 0.  1.
          2   -1    0    0  501    0  0.00000000000E+00 -0.00000000000E+00 -0.62755334257E+03  0.62755334257E+03  0.00000000000E+00 0. -1.
         25    2    1    2    0    0  0.75647532816E+02  0.27382945977E+02 -0.36182397438E+03  0.39119866981E+03  0.12508971129E+03 0.  0.
          5    1    3    3  502    0  0.11066774328E+03  0.22680204725E+02 -0.26891743735E+03  0.29171184686E+03  0.41800000000E+01 0.  1.
         -5    1    3    3    0  502 -0.35020210465E+02  0.47027412518E+01 -0.92906537032E+02  0.99486822945E+02  0.41800000000E+01 0.  1.
        -11    1    1    2    0    0 -0.40890208798E+02  0.21169621919E+02 -0.42840231629E+02  0.62892348611E+02  0.00000000000E+00 0.  1.
         11    1    1    2    0    0 -0.34757324018E+02 -0.48552567896E+02 -0.19367792503E+03  0.20267353569E+03  0.00000000000E+00 0. -1.
</event>
<event>
 7    1  0.2943257E-009  0.2328003E+03  0.7561462E-02  0.1124684E+00
          2   -1    0    0  501    0  0.00000000000E+00  0.00000000000E+00  0.29639406754E+03  0.29639406754E+03  0.00000000000E+00 0. -1.
         -2   -1    0    0    0  501 -0.00000000000E+00 -0.00000000000E+00 -0.21089166421E+03  0.21089166421E+03  0.00000000000E+00 0.  1.
         25    2    1    2    0    0 -0.17849447606E+03  0.12149577441E+03  0.10733100728E+03  0.27164170039E+03  0.12509103520E+03 0.  0.
          5    1    3    3  502    0 -0.15451812971E+03  0.34212915241E+02  0.77324323693E+02  0.17618995264E+03  0.41800000000E+01 0.  1.
         -5    1    3    3    0  502 -0.23976346352E+02  0.87282859169E+02  0.30006683587E+02  0.95451747752E+02  0.41800000000E+01 0.  1.
        -11    1    1    2    0    0  0.27972155023E+02 -0.27417124488E+02  0.31542307217E+02  0.50289733708E+02  0.00000000000E+00 0. -1.
         11    1    1    2    0    0  0.15052232103E+03 -0.94078649921E+02 -0.53370911168E+02  0.18535429766E+03  0.00000000000E+00 0.  1.
</event>
<event>
 7    1  0.2943257E-009  0.1353648E+03  0.7561462E-02  0.1219706E+00
          1   -1    0    0  501    0  0.00000000000E+00  0.00000000000E+00  0.11388204284E+04  0.11388204284E+04  0.00000000000E+00 0. -1.
         -1   -1    0    0    0  501 -0.00000000000E+00 -0.00000000000E+00 -0.24753983046E+02  0.24753983046E+02  0.00000000000E+00 0.  1.
         25    2    1    2    0    0 -0.58533121983E+02 -0.61068280884E+02  0.92390889323E+03  0.93616832334E+03  0.12509206749E+03 0.  0.
          5    1    3    3  502    0  0.38111795272E+02 -0.44739636633E+01  0.21052016932E+03  0.21402976284E+03  0.41800000000E+01 0.  1.
         -5    1    3    3    0  502 -0.96644917255E+02 -0.56594317221E+02  0.71338872390E+03  0.72213856050E+03  0.41800000000E+01 0.  1.
        -11    1    1    2    0    0  0.41135709379E+02 -0.13647391709E+02  0.40919881975E+02  0.59605659357E+02  0.00000000000E+00 0.  1.
         11    1    1    2    0    0  0.17397412605E+02  0.74715672593E+02  0.14923767020E+03  0.16780042879E+03  0.00000000000E+00 0. -1.
</event>
<event>
 7    1  0.2943257E-009  0.2076628E+03  0.7561462E-02  0.1143430E+00
         -2   -1    0    0    0  501 -0.00000000000E+00  0.00000000000E+00  0.31562378733E+03  0.31562378733E+03  0.00000000000E+00 0. -1.
          2   -1    0    0  501    0  0.00000000000E+00 -0.00000000000E+00 -0.31128208435E+03  0.31128208435E+03  0.00000000000E+00 0.  1.
         25    2    1    2    0    0  0.17654422820E+03 -0.81127446488E+02 -0.21816666453E+03  0.31779658855E+03  0.12509376922E+03 0.  0.
          5    1    3    3  502    0  0.52721187126E+02  0.12253023406E+02 -0.55160679183E+01  0.54567018975E+02  0.41800000000E+01 0.  1.
         -5    1    3    3    0  502  0.12382304107E+03 -0.93380469894E+02 -0.21265059661E+03  0.26322956957E+03  0.41800000000E+01 0.  1.
        -11    1    1    2    0    0 -0.57729320204E+02 -0.67361874234E+01  0.27131756346E+02  0.64141896095E+02  0.00000000000E+00 0.  1.
         11    1    1    2    0    0 -0.11881490799E+03  0.87863633911E+02  0.19537661116E+03  0.24496738704E+03  0.00000000000E+00 0. -1.
</event>
<event>
 7    1  0.2943257E-009  0.1907050E+03  0.7561462E-02  0.1157827E+00
         -2   -1    0    0    0  501 -0.00000000000E+00  0.00000000000E+00  0.13559533468E+03  0.13559533468E+03  0.00000000000E+00 0.  1.
          2   -1    0    0  501    0  0.00000000000E+00 -0.00000000000E+00 -0.37118161394E+03  0.37118161394E+03  0.00000000000E+00 0. -1.
         25    2    1    2    0    0  0.14163425607E+03  0.81098580995E+02 -0.24487532441E+03  0.31976212874E+03  0.12508657857E+03 0.  0.
          5    1    3    3  502    0  0.77886056536E+02  0.10708690115E+03 -0.18999160058E+03  0.23162064436E+03  0.41800000000E+01 0. -1.
         -5    1    3    3    0  502  0.63748199531E+02 -0.25988320154E+02 -0.54883723833E+02  0.88141484386E+02  0.41800000000E+01 0. -1.
        -11    1    1    2    0    0 -0.15114205034E+03 -0.76193897353E+02  0.21680225183E+02  0.17064425434E+03  0.00000000000E+00 0.  1.
         11    1    1    2    0    0  0.95077942722E+01 -0.49046836421E+01 -0.12391180025E+02  0.16370565536E+02  0.00000000000E+00 0. -1.
</event>
<event>
 7    1  0.2943257E-009  0.1154098E+03  0.7561462E-02  0.1250867E+00
         -2   -1    0    0    0  501 -0.00000000000E+00  0.00000000000E+00  0.45149093569E+02  0.45149093569E+02  0.00000000000E+00 0.  1.
          2   -1    0    0  501    0  0.00000000000E+00 -0.00000000000E+00 -0.54602270593E+03  0.54602270593E+03  0.00000000000E+00 0. -1.
         25    2    1    2    0    0  0.64532830534E+02  0.47480170579E+02 -0.11849467706E+03  0.19002386626E+03  0.12509687623E+03 0.  0.
          5    1    3    3  502    0  0.72628293095E+02  0.60951516375E+02 -0.13618544730E+03  0.16599368892E+03  0.41800000000E+01 0.  1.
         -5    1    3    3    0  502 -0.80954625615E+01 -0.13471345796E+02  0.17690770236E+02  0.24030177344E+02  0.41800000000E+01 0.  1.
        -11    1    1    2    0    0 -0.23037461755E+02  0.26323111508E+02 -0.14369705182E+03  0.14789345335E+03  0.00000000000E+00 0.  1.
         11    1    1    2    0    0 -0.41495368778E+02 -0.73803282087E+02 -0.23868188349E+03  0.25325447988E+03  0.00000000000E+00 0. -1.
</event>
<event>
 7    1  0.2943257E-009  0.1720556E+03  0.7561462E-02  0.1175721E+00
         -1   -1    0    0    0  501 -0.00000000000E+00  0.00000000000E+00  0.22245317150E+02  0.22245317150E+02  0.00000000000E+00 0.  1.
          1   -1    0    0  501    0  0.00000000000E+00 -0.00000000000E+00 -0.13866471374E+04  0.13866471374E+04  0.00000000000E+00 0. -1.
         25    2    1    2    0    0 -0.10949091408E+03 -0.77625857399E+02 -0.59936981283E+03  0.62682169075E+03  0.12508887025E+03 0.  0.
          5    1    3    3  502    0 -0.55052007265E+02  0.28712434416E+02 -0.24742851945E+03  0.25513422356E+03  0.41800000000E+01 0.  1.
         -5    1    3    3    0  502 -0.54438906817E+02 -0.10633829181E+03 -0.35194129338E+03  0.37168746719E+03  0.41800000000E+01 0.  1.
        -11    1    1    2    0    0  0.10178598136E+03  0.97549386518E+02 -0.66070976188E+03  0.67558393872E+03  0.00000000000E+00 0.  1.
         11    1    1    2    0    0  0.77049327270E+01 -0.19923529119E+02 -0.10432224551E+03  0.10648682505E+03  0.00000000000E+00 0. -1.
</event>
<event>
 7    1  0.2943257E-009  0.2369763E+03  0.7561462E-02  0.1121824E+00
         -2   -1    0    0    0  501 -0.00000000000E+00  0.00000000000E+00  0.11477687238E+03  0.11477687238E+03  0.00000000000E+00 0. -1.
          2   -1    0    0  501    0  0.00000000000E+00 -0.00000000000E+00 -0.63643110676E+03  0.63643110676E+03  0.00000000000E+00 0.  1.
         25    2    1    2    0    0 -0.33063248561E+02  0.23027816900E+03 -0.38258470475E+03  0.46490896179E+03  0.12509225764E+03 0.  0.
          5    1    3    3  502    0 -0.12593886323E+02  0.15183095109E+02  0.53319800272E+01  0.20857486925E+02  0.41800000000E+01 0. -1.
         -5    1    3    3    0  502 -0.20469362238E+02  0.21509507389E+03 -0.38791668478E+03  0.44405147487E+03  0.41800000000E+01 0. -1.
        -11    1    1    2    0    0  0.29305192148E+02 -0.54640785121E+02 -0.79450074035E+02  0.10078057327E+03  0.00000000000E+00 0.  1.
         11    1    1    2    0    0  0.37580564133E+01 -0.17563738388E+03 -0.59619455594E+02  0.18551844407E+03  0.00000000000E+00 0. -1.
</event>
<event>
 7    1  0.2943257E-009  0.1409706E+03  0.7561462E-02  0.1212029E+00
          1   -1    0    0  501    0  0.00000000000E+00  0.00000000000E+00  0.44255688381E+02  0.44255688381E+02  0.00000000000E+00 0. -1.
         -1   -1    0    0    0  501 -0.00000000000E+00 -0.00000000000E+00 -0.60712604025E+03  0.60712604025E+03  0.00000000000E+00 0.  1.
         25    2    1    2    0    0 -0.84490553034E+02  0.82011564761E+02 -0.22931246697E+03  0.28651813868E+03  0.12507552111E+03 0.  0.
          5    1    3    3  502    0 -0.19255496543E+01  0.43732584550E+02 -0.17503007254E+03  0.18046951374E+03  0.41800000000E+01 0.  1.
         -5    1    3    3    0  502 -0.82565003380E+02  0.38278980211E+02 -0.54282394420E+02  0.10604862495E+03  0.41800000000E+01 0.  1.
        -11    1    1    2    0    0  0.71700982252E+02 -0.84476579608E+01 -0.18521502691E+03  0.19878883262E+03  0.00000000000E+00 0.  1.
         11    1    1    2    0    0  0.12789570782E+02 -0.73563906800E+02 -0.14834285800E+03  0.16607475733E+03  0.00000000000E+00 0. -1.
</event>
<event>
 7    1  0.2943257E-009  0.1438481E+03  0.7561462E-02  0.1208243E+00
          2   -1    0    0  501    0  0.00000000000E+00  0.00000000000E+00  0.11134589094E+03  0.11134589094E+03  0.00000000000E+00 0. -1.
         -2   -1    0    0    0  501 -0.00000000000E+00 -0.00000000000E+00 -0.27392734277E+03  0.27392734277E+03  0.00000000000E+00 0.  1.
         25    2    1    2    0    0 -0.72159735797E+01  0.13360282813E+03 -0.56716001646E+02  0.19173849356E+03  0.12508061045E+03 0.  0.
          5    1    3    3  502    0  0.14713758381E+02  0.47330289381E+02 -0.84793300495E+02  0.98305784099E+02  0.41800000000E+01 0. -1.
         -5    1    3    3    0  502 -0.21929731961E+02  0.86272538748E+02  0.28077298849E+02  0.93432709458E+02  0.41800000000E+01 0. -1.
        -11    1    1    2    0    0  0.32285103455E+02 -0.10913781752E+03 -0.10997587336E+03  0.15826586441E+03  0.00000000000E+00 0.  1.
         11    1    1    2    0    0 -0.25069129875E+02 -0.24465010614E+02  0.41104231756E+01  0.35268875737E+02  0.00000000000E+00 0. -1.
</event>
<event>
 6    1  0.2943257E-009  0.1080643E+03  0.7561462E-02  0.1264197E+00
          1   -1    0    0  501    0  0.00000000000E+00  0.00000000000E+00  0.24818971445E+03  0.24818971445E+03  0.00000000000E+00 0. -1.
         -1   -1    0    0    0  501 -0.00000000000E+00 -0.00000000000E+00 -0.65880167585E+02  0.65880167585E+02  0.00000000000E+00 0.  1.
          5    1    1    2  502    0  0.46612324743E+02  0.86032336503E+02  0.85850288495E+02  0.13023830534E+03  0.41800000000E+01 0.  1.
         -5    1    1    2    0  502  0.84380596506E+01 -0.41466812646E+02  0.15129976188E+02  0.45134088904E+02  0.41800000000E+01 0.  1.
        -11    1    1    2    0    0 -0.34708099232E+02 -0.43009049975E+02  0.43337473950E+00  0.55268601807E+02  0.00000000000E+00 0.  1.
         11    1    1    2    0    0 -0.20342285162E+02 -0.15564738815E+01  0.80895907439E+02  0.83428885987E+02  0.00000000000E+00 0. -1.
</event>
<event>
 7    1  0.2943257E-009  0.1247899E+03  0.7561462E-02  0.1235398E+00
          2   -1    0    0  501    0  0.00000000000E+00  0.00000000000E+00  0.19714154319E+02  0.19714154319E+02  0.00000000000E+00 0.  1.
         -2   -1    0    0    0  501 -0.00000000000E+00 -0.00000000000E+00 -0.80739082343E+03  0.80739082343E+03  0.00000000000E+00 0. -1.
         25    2    1    2    0    0 -0.59006114811E+02  0.15049738407E+02 -0.37991714780E+03  0.40458901369E+03  0.12508802737E+03 0.  0.
          5    1    3    3  502    0 -0.57773857688E+02 -0.48393019909E+02 -0.21165081934E+03  0.22470701977E+03  0.41800000000E+01 0.  1.
         -5    1    3    3    0  502 -0.12322571229E+01  0.63442758316E+02 -0.16826632847E+03  0.17988199392E+03  0.41800000000E+01 0.  1.
        -11    1    1    2    0    0  0.45024838492E+02  0.35956390504E+02 -0.22462940113E+03  0.23190184552E+03  0.00000000000E+00 0. -1.
         11    1    1    2    0    0  0.13981276319E+02 -0.51006128911E+02 -0.18313012017E+03  0.19061411854E+03  0.00000000000E+00 0.  1.
</event>
<event>
 7    1  0.2943257E-009  0.1050205E+03  0.7561462E-02  0.1270079E+00
         -2   -1    0    0    0  501 -0.00000000000E+00  0.00000000000E+00  0.69308878825E+02  0.69308878825E+02  0.00000000000E+00 0.  1.
          2   -1    0    0  501    0  0.00000000000E+00 -0.00000000000E+00 -0.27373705795E+03  0.27373705795E+03  0.00000000000E+00 0. -1.
         25    2    1    2    0    0  0.10826884449E+02 -0.34060152812E+02 -0.18134922455E+02  0.13135098250E+03  0.12508752838E+03 0.  0.
          5    1    3    3  502    0 -0.28418434690E+02 -0.62798925815E+02  0.17100283339E+02  0.71142143656E+02  0.41800000000E+01 0.  1.
         -5    1    3    3    0  502  0.39245319139E+02  0.28738773003E+02 -0.35235205794E+02  0.60208838848E+02  0.41800000000E+01 0.  1.
        -11    1    1    2    0    0  0.93709011811E+01  0.59187030992E+02 -0.75978057091E+02  0.96765611587E+02  0.00000000000E+00 0.  1.
         11    1    1    2    0    0 -0.20197785630E+02 -0.25126878180E+02 -0.11031519958E+03  0.11492934268E+03  0.00000000000E+00 0. -1.
</event>
<event>
 7    1  0.2943257E-009  0.1549332E+03  0.7561462E-02  0.1194539E+00
          2   -1    0    0  501    0  0.00000000000E+00  0.00000000000E+00  0.68622948839E+03  0.68622948839E+03  0.00000000000E+00 0. -1.
         -2   -1    0    0    0  501 -0.00000000000E+00 -0.00000000000E+00 -0.36398626156E+02  0.36398626156E+02  0.00000000000E+00 0.  1.
         25    2    1    2    0    0  0.67932600389E+02  0.92108059402E+02  0.33104286122E+03  0.37193508187E+03  0.12509035279E+03 0.  0.
          5    1    3    3  502    0  0.39490180126E+02 -0.23655346300E+02  0.59460882318E+02  0.75313469320E+02  0.41800000000E+01 0. -1.
         -5    1    3    3    0  502  0.28442420263E+02  0.11576340570E+03  0.27158197890E+03  0.29662161255E+03  0.41800000000E+01 0. -1.
        -11    1    1    2    0    0 -0.87045308967E+02 -0.89881885119E+02  0.29229442208E+03  0.31794915987E+03  0.00000000000E+00 0. -1.
         11    1    1    2    0    0  0.19112708578E+02 -0.22261742836E+01  0.26493578945E+02  0.32743872807E+02  0.00000000000E+00 0.  1.
</event>
<event>
 7    1  0.2943257E-009  0.1069096E+03  0.7561462E-02  0.1266402E+00
          1   -1    0    0  501    0  0.00000000000E+00  0.00000000000E+00  0.10771667082E+03  0.10771667082E+03  0.00000000000E+00 0. -1.
         -1   -1    0    0    0  501 -0.00000000000E+00 -0.00000000000E+00 -0.25521877692E+03  0.25521877692E+03  0.00000000000E+00 0.  1.
         25    2    1    2    0    0  0.43661319382E+02  0.64557086261E+02 -0.18560205769E+03  0.23700169700E+03  0.12509097634E+03 0.  0.
          5    1    3    3  502    0 -0.12273014267E+02 -0.16933754986E+02 -0.11117559323E+03  0.11320275556E+03  0.41800000000E+01 0. -1.
         -5    1    3    3    0  502  0.55934333648E+02  0.81490841247E+02 -0.74426464466E+02  0.12379894144E+03  0.41800000000E+01 0. -1.
        -11    1    1    2    0    0  0.60583456318E+01 -0.35421377229E+02 -0.22427802837E+02  0.42360168279E+02  0.00000000000E+00 0.  1.
         11    1    1    2    0    0 -0.49719665014E+02 -0.29135709033E+02  0.60527754425E+02  0.83573582462E+02  0.00000000000E+00 0. -1.
</event>
<event>
 7    1  0.2943257E-009  0.2042530E+03  0.7561462E-02  0.1146200E+00
         -2   -1    0    0    0  501 -0.00000000000E+00  0.00000000000E+00  0.72088391285E+02  0.72088391285E+02  0.00000000000E+00 0.  1.
          2   -1    0    0  501    0  0.00000000000E+00 -0.00000000000E+00 -0.68827169780E+03  0.68827169780E+03  0.00000000000E+00 0. -1.
         25    2    1    2    0    0 -0.75253616623E+02 -0.17670716361E+03 -0.27029630117E+03  0.35439556496E+03  0.12509035752E+03 0.  0.
          5    1    3    3  502    0  0.55573588589E+01 -0.10715629185E+03 -0.19882381046E+03  0.22596843834E+03  0.41800000000E+01 0.  1.
         -5    1    3    3    0  502 -0.80810975482E+02 -0.69550871763E+02 -0.71472490711E+02  0.12842712661E+03  0.41800000000E+01 0.  1.
        -11    1    1    2    0    0  0.71636308961E+02  0.13743355463E+03 -0.32776637822E+03  0.36256108642E+03  0.00000000000E+00 0. -1.
         11    1    1    2    0    0  0.36173076622E+01  0.39273608978E+02 -0.18120627121E+02  0.43403437700E+02  0.00000000000E+00 0.  1.
</event>
<event>
 7    1  0.2943257E-009  0.2500371E+03  0.7561462E-02  0.1113281E+00
         -2   -1    0    0    0  501 -0.00000000000E+00  0.00000000000E+00  0.75945028279E+02  0.75945028279E+02  0.00000000000E+00 0.  1.
          2   -1    0    0  501    0  0.00000000000E+00 -0.00000000000E+00 -0.10974376939E+04  0.10974376939E+04  0.00000000000E+00 0. -1.
         25    2    1    2    0    0  0.42165533954E+02 -0.23133055076E+03 -0.77891921313E+03  0.82319864249E+03  0.12509639663E+03 0.  0.
          5    1    3    3  502    0 -0.68045232627E+01 -0.19354427767E+03 -0.67448121040E+03  0.70174643892E+03  0.41800000000E+01 0.  1.
         -5    1    3    3    0  502  0.48970057217E+02 -0.37786273095E+02 -0.10443800272E+03  0.12145220357E+03  0.41800000000E+01 0.  1.
        -11    1    1    2    0    0 -0.54019801934E+01  0.18567359255E+03 -0.14214385260E+03  0.23389899357E+03  0.00000000000E+00 0.  1.
         11    1    1    2    0    0 -0.36763553760E+02  0.45656958210E+02 -0.10042959986E+03  0.11628508609E+03  0.00000000000E+00 0. -1.
</event>
<event>
 7    1  0.2943257E-009  0.9805705E+02  0.7561462E-02  0.1284436E+00
          2   -1    0    0  501    0  0.00000000000E+00  0.00000000000E+00  0.78263308373E+02  0.78263308373E+02  0.00000000000E+00 0. -1.
         -2   -1    0    0    0  501 -0.00000000000E+00 -0.00000000000E+00 -0.28462080617E+03  0.28462080617E+03  0.00000000000E+00 0.  1.
         25    2    1    2    0    0 -0.17150193732E+02  0.20828421551E+02  0.86935140275E+01  0.12826805831E+03  0.12509662388E+03 0.  0.
          5    1    3    3  502    0  0.11971559944E+02 -0.43680709836E+02 -0.22574855945E+02  0.50778136833E+02  0.41800000000E+01 0. -1.
         -5    1    3    3    0  502 -0.29121753676E+02  0.64509131387E+02  0.31268369973E+02  0.77489921475E+02  0.41800000000E+01 0. -1.
        -11    1    1    2    0    0  0.43495399683E+02  0.38046791514E+01 -0.53336548477E+02  0.68928316246E+02  0.00000000000E+00 0. -1.
         11    1    1    2    0    0 -0.26345205951E+02 -0.24633100702E+02 -0.16171446335E+03  0.16568773999E+03  0.00000000000E+00 0.  1.
</event>
<event>
 7    1  0.2943257E-009  0.1198260E+03  0.7561462E-02  0.1243384E+00
         -2   -1    0    0    0  501 -0.00000000000E+00  0.00000000000E+00  0.71470452112E+03  0.71470452112E+03  0.00000000000E+00 0.  1.
          2   -1    0    0  501    0  0.00000000000E+00 -0.00000000000E+00 -0.21226834511E+02  0.21226834511E+02  0.00000000000E+00 0. -1.
         25    2    1    2    0    0  0.40119820503E+02 -0.32835651465E+02  0.46291195927E+03  0.48230951375E+03  0.12508878854E+03 0.  0.
          5    1    3    3  502    0  0.22782603004E+02 -0.80860777606E+02  0.29484585359E+03  0.30660897269E+03  0.41800000000E+01 0.  1.
         -5    1    3    3    0  502  0.17337217499E+02  0.48025126141E+02  0.16806610568E+03  0.17570054106E+03  0.41800000000E+01 0.  1.
        -11    1    1    2    0    0  0.11767198574E+01  0.56634229897E+02  0.10484237308E+03  0.11916687400E+03  0.00000000000E+00 0. -1.
         11    1    1    2    0    0 -0.41296540361E+02 -0.23798578432E+02  0.12572335426E+03  0.13445496788E+03  0.00000000000E+00 0.  1.
</event>
<event>
 7    1  0.2943257E-009  0.1233580E+03  0.7561462E-02  0.1237658E+00
         -1   -1    0    0    0  501 -0.00000000000E+00  0.00000000000E+00  0.27022628893E+02  0.27022628893E+02  0.00000000000E+00 0.  1.
          1   -1    0    0  501    0  0.00000000000E+00 -0.00000000000E+00 -0.10090809815E+04  0.10090809815E+04  0.00000000000E+00 0. -1.
         25    2    1    2    0    0  0.73722147454E+02  0.68787758587E+02 -0.75318153804E+03  0.77012781724E+03  0.12509082649E+03 0.  0.
          5    1    3    3  502    0  0.60573241367E+02  0.76448437819E+02 -0.27727741197E+03  0.29396210096E+03  0.41800000000E+01 0.  1.
         -5    1    3    3    0  502  0.13148906087E+02 -0.76606792320E+01 -0.47590412607E+03  0.47616571627E+03  0.41800000000E+01 0.  1.
        -11    1    1    2    0    0 -0.72901858375E+02 -0.89324485280E+01 -0.14939859841E+03  0.16647645719E+03  0.00000000000E+00 0.  1.
         11    1    1    2    0    0 -0.82028907919E+00 -0.59855310059E+02 -0.79478216176E+02  0.99499335992E+02  0.00000000000E+00 0. -1.
</event>
<event>
 7    1  0.2943257E-009  0.1063923E+03  0.7561462E-02  0.1267400E+00
         -1   -1    0    0    0  501 -0.00000000000E+00  0.00000000000E+00  0.38127025313E+02  0.38127025313E+02  0.00000000000E+00 0.  1.
          1   -1    0    0  501    0  0.00000000000E+00 -0.00000000000E+00 -0.35415028458E+03  0.35415028458E+03  0.00000000000E+00 0. -1.
         25    2    1    2    0    0 -0.23846338082E+02  0.33819337618E+02 -0.18129886258E+03  0.22412399406E+03  0.12509952719E+03 0.  0.
          5    1    3    3  502    0  0.12061345930E+02 -0.43952993970E+02 -0.69536793983E+02  0.83247701842E+02  0.41800000000E+01 0. -1.
         -5    1    3    3    0  502 -0.35907684012E+02  0.77772331588E+02 -0.11176206860E+03  0.14087629222E+03  0.41800000000E+01 0. -1.
        -11    1    1    2    0    0  0.75778449010E+01 -0.54452183586E+02 -0.35343490465E+02  0.65357680107E+02  0.00000000000E+00 0.  1.
         11    1    1    2    0    0  0.16268493181E+02  0.20632845968E+02 -0.99380906223E+02  0.10279563573E+03  0.00000000000E+00 0. -1.
</event>
<event>
 7    1  0.2943257E-009  0.7716026E+02  0.7561462E-02  0.1337309E+00
         -3   -1    0    0    0  501 -0.00000000000E+00  0.00000000000E+00  0.36108782242E+03  0.36108782242E+03  0.00000000000E+00 0.  1.
          3   -1    0    0  501    0  0.00000000000E+00 -0.00000000000E+00 -0.41796401719E+02  0.41796401719E+02  0.00000000000E+00 0. -1.
         25    2    1    2    0    0 -0.53450481600E+02  0.10896203770E+02  0.13418480753E+03  0.19141126556E+03  0.12512804950E+03 0.  0.
          5    1    3    3  502    0 -0.19230101550E+02 -0.10227231628E+02  0.14725801866E+03  0.14891873465E+03  0.41800000000E+01 0. -1.
         -5    1    3    3    0  502 -0.34220380049E+02  0.21123435398E+02 -0.13073211127E+02  0.42492530908E+02  0.41800000000E+01 0. -1.
        -11    1    1    2    0    0 -0.74023737135E+00  0.26090588751E+02  0.10361549367E+03  0.10685240896E+03  0.00000000000E+00 0.  1.
         11    1    1    2    0    0  0.54190718971E+02 -0.36986792521E+02  0.81491119501E+02  0.10462054961E+03  0.00000000000E+00 0. -1.
</event>
<event>
 7    1  0.2943257E-009  0.3937040E+03  0.7561462E-02  0.1045982E+00
         -1   -1    0    0    0  501 -0.00000000000E+00  0.00000000000E+00  0.16658834353E+03  0.16658834353E+03  0.00000000000E+00 0.  1.
          1   -1    0    0  501    0  0.00000000000E+00 -0.00000000000E+00 -0.94763484093E+03  0.94763484093E+03  0.00000000000E+00 0. -1.
         25    2    1    2    0    0  0.33464243291E+03  0.18437765803E+03 -0.40229311856E+03  0.56874094596E+03  0.12508329902E+03 0.  0.
          5    1    3    3  502    0  0.70718155623E+02 -0.54933562913E+01 -0.11321742988E+03  0.13366709889E+03  0.41800000000E+01 0.  1.
         -5    1    3    3    0  502  0.26392427728E+03  0.18987101432E+03 -0.28907568868E+03  0.43507384707E+03  0.41800000000E+01 0.  1.
        -11    1    1    2    0    0 -0.18996633631E+03 -0.15113897438E+03 -0.21277190478E+03  0.32280347267E+03  0.00000000000E+00 0.  1.
         11    1    1    2    0    0 -0.14467609660E+03 -0.33238683646E+02 -0.16598147406E+03  0.22267876582E+03  0.00000000000E+00 0. -1.
</event>
<event>
 7    1  0.2943257E-009  0.1089863E+03  0.7561462E-02  0.1262459E+00
         -2   -1    0    0    0  501 -0.00000000000E+00  0.00000000000E+00  0.15445733212E+02  0.15445733212E+02  0.00000000000E+00 0.  1.
          2   -1    0    0  501    0  0.00000000000E+00 -0.00000000000E+00 -0.77680772789E+03  0.77680772789E+03  0.00000000000E+00 0. -1.
         25    2    1    2    0    0 -0.27430852650E+02 -0.15308801733E+02 -0.42615024058E+03  0.44523968393E+03  0.12509011756E+03 0.  0.
          5    1    3    3  502    0  0.33058614226E+02  0.36191614732E+02 -0.17579888137E+03  0.18255252407E+03  0.41800000000E+01 0. -1.
         -5    1    3    3    0  502 -0.60489466876E+02 -0.51500416465E+02 -0.25035135920E+03  0.26268715986E+03  0.41800000000E+01 0. -1.
        -11    1    1    2    0    0  0.53774272053E+02  0.27268231337E+02 -0.24311257333E+03  0.25047744826E+03  0.00000000000E+00 0.  1.
         11    1    1    2    0    0 -0.26343419403E+02 -0.11959429604E+02 -0.92099180769E+02  0.96536328916E+02  0.00000000000E+00 0. -1.
</event>
<event>
 7    1  0.2943257E-009  0.1670032E+03  0.7561462E-02  0.1181010E+00
          1   -1    0    0  501    0  0.00000000000E+00  0.00000000000E+00  0.65712595929E+03  0.65712595929E+03  0.00000000000E+00 0. -1.
         -1   -1    0    0    0  501 -0.00000000000E+00 -0.00000000000E+00 -0.13138465748E+03  0.13138465748E+03  0.00000000000E+00 0.  1.
         25    2    1    2    0    0 -0.11468195745E+03 -0.71433388923E+02  0.58650200026E+03  0.61472433896E+03  0.12508691454E+03 0.  0.
          5    1    3    3  502    0 -0.10759994012E+03 -0.88247642911E+01  0.46948572789E+03  0.48175714283E+03  0.41800000000E+01 0. -1.
         -5    1    3    3    0  502 -0.70820173320E+01 -0.62608624632E+02  0.11701627237E+03  0.13296719613E+03  0.41800000000E+01 0. -1.
        -11    1    1    2    0    0  0.78863943884E+02 -0.43630384001E+01 -0.29271628092E+02  0.84234113993E+02  0.00000000000E+00 0.  1.
         11    1    1    2    0    0  0.35818013568E+02  0.75796427323E+02 -0.31489070362E+02  0.89552163810E+02  0.00000000000E+00 0. -1.
</event>
<event>
 7    1  0.2943257E-009  0.4755028E+03  0.7561462E-02  0.1020378E+00
          2   -1    0    0  501    0  0.00000000000E+00  0.00000000000E+00  0.11765295585E+04  0.11765295585E+04  0.00000000000E+00 0. -1.
         -2   -1    0    0    0  501 -0.00000000000E+00 -0.00000000000E+00 -0.19299192778E+03  0.19299192778E+03  0.00000000000E+00 0.  1.
         25    2    1    2    0    0 -0.44049156114E+03  0.14517603031E+03  0.49978903721E+03  0.69321370048E+03  0.12508899878E+03 0.  0.
          5    1    3    3  502    0 -0.11714393422E+03  0.99556177708E+02  0.16122258513E+03  0.22281007204E+03  0.41800000000E+01 0.  1.
         -5    1    3    3    0  502 -0.32334762692E+03  0.45619852600E+02  0.33856645208E+03  0.47040362845E+03  0.41800000000E+01 0.  1.
        -11    1    1    2    0    0  0.92571188535E+02  0.26654077501E+01  0.71702090903E+02  0.11712266726E+03  0.00000000000E+00 0.  1.
         11    1    1    2    0    0  0.34792037260E+03 -0.14784143806E+03  0.41204650260E+03  0.55918511853E+03  0.00000000000E+00 0. -1.
</event>
<event>
 7    1  0.2943257E-009  0.5187021E+02  0.7561462E-02  0.1435507E+00
         -2   -1    0    0    0  501 -0.00000000000E+00  0.00000000000E+00  0.15339170700E+03  0.15339170700E+03  0.00000000000E+00 0.  1.
          2   -1    0    0  501    0  0.00000000000E+00 -0.00000000000E+00 -0.10716525148E+03  0.10716525148E+03  0.00000000000E+00 0. -1.
         25    2    1    2    0    0 -0.10252819515E+02 -0.58626119205E+01  0.92198572130E+02  0.15584431224E+03  0.12508949767E+03 0.  0.
          5    1    3    3  502    0 -0.43436123399E+01 -0.34516558559E+02 -0.19639173854E+02  0.40167515888E+02  0.41800000000E+01 0. -1.
         -5    1    3    3    0  502 -0.59092071753E+01  0.28653946638E+02  0.11183774598E+03  0.11567679635E+03  0.41800000000E+01 0. -1.
        -11    1    1    2    0    0  0.14132133123E+02 -0.13413784494E+02 -0.70576397172E+02  0.73216628158E+02  0.00000000000E+00 0. -1.
         11    1    1    2    0    0 -0.38793136074E+01  0.19276396414E+02  0.24604280568E+02  0.31496018083E+02  0.00000000000E+00 0.  1.
</event>
<event>
 7    1  0.2943257E-009  0.1299074E+03  0.7561462E-02  0.1227593E+00
          3   -1    0    0  501    0  0.00000000000E+00  0.00000000000E+00  0.32900138810E+03  0.32900138810E+03  0.00000000000E+00 0. -1.
         -3   -1    0    0    0  501 -0.00000000000E+00 -0.00000000000E+00 -0.69558273409E+02  0.69558273409E+02  0.00000000000E+00 0.  1.
         25    2    1    2    0    0 -0.87280587366E+02 -0.46211176579E+02  0.18623200631E+03  0.24511687478E+03  0.12508616373E+03 0.  0.
          5    1    3    3  502    0 -0.92141070870E+02 -0.64815687728E+02  0.19366133991E+03  0.22408310354E+03  0.41800000000E+01 0.  1.
         -5    1    3    3    0  502  0.48604835035E+01  0.18604511150E+02 -0.74293335992E+01  0.21033771244E+02  0.41800000000E+01 0. -1.
        -11    1    1    2    0    0  0.18422307296E+02  0.54985582523E+02  0.86238533835E+01  0.58627353161E+02  0.00000000000E+00 0.  1.
         11    1    1    2    0    0  0.68858280070E+02 -0.87744059439E+01  0.64587254995E+02  0.94815433563E+02  0.00000000000E+00 0. -1.
</event>
<event>
 7    1  0.2943257E-009  0.1077570E+03  0.7561462E-02  0.1264781E+00
          1   -1    0    0  501    0  0.00000000000E+00  0.00000000000E+00  0.24606355531E+03  0.24606355531E+03  0.00000000000E+00 0. -1.
         -1   -1    0    0    0  501 -0.00000000000E+00 -0.00000000000E+00 -0.55717847083E+02  0.55717847083E+02  0.00000000000E+00 0.  1.
         25    2    1    2    0    0 -0.30282026807E+02 -0.12572248572E+02  0.14192989137E+03  0.19200566239E+03  0.12508803997E+03 0.  0.
          5    1    3    3  502    0 -0.76488669811E+02 -0.91493512601E+01  0.59780402011E+02  0.97598135754E+02  0.41800000000E+01 0.  1.
         -5    1    3    3    0  502  0.46206643004E+02 -0.34228973115E+01  0.82149489363E+02  0.94407526640E+02  0.41800000000E+01 0.  1.
        -11    1    1    2    0    0  0.55580241082E+02 -0.11686579416E+02  0.98168552256E+01  0.57637747906E+02  0.00000000000E+00 0.  1.
         11    1    1    2    0    0 -0.25298214275E+02  0.24258827987E+02  0.38598961630E+02  0.52137992095E+02  0.00000000000E+00 0. -1.
</event>
<event>
 7    1  0.2943257E-009  0.1709761E+03  0.7561462E-02  0.1176834E+00
         -1   -1    0    0    0  501 -0.00000000000E+00  0.00000000000E+00  0.13114290679E+03  0.13114290679E+03  0.00000000000E+00 0.  1.
          1   -1    0    0  501    0  0.00000000000E+00 -0.00000000000E+00 -0.28744683436E+03  0.28744683436E+03  0.00000000000E+00 0. -1.
         25    2    1    2    0    0 -0.97274149181E+01 -0.14715156357E+03 -0.12933058638E+02  0.19381449069E+03  0.12509431455E+03 0.  0.
          5    1    3    3  502    0  0.38642341846E+02 -0.14730075542E+02 -0.30679413822E+02  0.51661441533E+02  0.41800000000E+01 0. -1.
         -5    1    3    3    0  502 -0.48369756764E+02 -0.13242148803E+03  0.17746355184E+02  0.14215304915E+03  0.41800000000E+01 0. -1.
        -11    1    1    2    0    0 -0.21764064240E+02  0.10200603339E+03 -0.13256896131E+03  0.16868145969E+03  0.00000000000E+00 0.  1.
         11    1    1    2    0    0  0.31491479158E+02  0.45145530184E+02 -0.10801907632E+02  0.56093790777E+02  0.00000000000E+00 0. -1.
</event>
<event>
 7    1  0.2943257E-009  0.1447771E+03  0.7561462E-02  0.1207042E+00
         -1   -1    0    0    0  501 -0.00000000000E+00  0.00000000000E+00  0.28015756298E+02  0.28015756298E+02  0.00000000000E+00 0.  1.
          1   -1    0    0  501    0  0.00000000000E+00 -0.00000000000E+00 -0.81175602129E+03  0.81175602129E+03  0.00000000000E+00 0. -1.
         25    2    1    2    0    0 -0.51327392696E+02  0.88287172285E+02 -0.48732238749E+03  0.51338074517E+03  0.12509018400E+03 0.  0.
          5    1    3    3  502    0 -0.53185667687E+02 -0.15302266340E+02 -0.13085350359E+03  0.14213720978E+03  0.41800000000E+01 0.  1.
         -5    1    3    3    0  502  0.18582749909E+01  0.10358943863E+03 -0.35646888390E+03  0.37124353539E+03  0.41800000000E+01 0.  1.
        -11    1    1    2    0    0  0.15958987125E+02 -0.93287632601E+02 -0.16511497203E+03  0.19031612032E+03  0.00000000000E+00 0.  1.
         11    1    1    2    0    0  0.35368405571E+02  0.50004603154E+01 -0.13130290548E+03  0.13607491210E+03  0.00000000000E+00 0. -1.
</event>
<event>
 7    1  0.3027210E-009  0.7878554E+02  0.7561462E-02  0.1332534E+00
         -1   -1    0    0    0  501 -0.00000000000E+00  0.00000000000E+00  0.10925026064E+03  0.10925026064E+03  0.00000000000E+00 0.  1.
          1   -1    0    0  501    0  0.00000000000E+00 -0.00000000000E+00 -0.14349755699E+03  0.14349755699E+03  0.00000000000E+00 0. -1.
         25    2    1    2    0    0 -0.61291226307E+02 -0.10442280044E+02 -0.13903936798E+02  0.14037948189E+03  0.12508966321E+03 0.  0.
          5    1    3    3  502    0 -0.34088039976E+02 -0.12881968838E+02  0.55018747302E+02  0.66124689377E+02  0.41800000000E+01 0. -1.
         -5    1    3    3    0  502 -0.27203186331E+02  0.24396887943E+01 -0.68922684100E+02  0.74254792515E+02  0.41800000000E+01 0. -1.
        -11    1    1    2    0    0  0.65060351262E+02  0.31206412073E+02  0.12596018845E+02  0.73248543682E+02  0.00000000000E+00 0.  1.
         11    1    1    2    0    0 -0.37691249551E+01 -0.20764132029E+02 -0.32939378396E+02  0.39119792062E+02  0.00000000000E+00 0. -1.
</event>
<event>
 7    1  0.2943257E-009  0.3767927E+03  0.7561462E-02  0.1052126E+00
          1   -1    0    0  501    0  0.00000000000E+00  0.00000000000E+00  0.13814072701E+03  0.13814072701E+03  0.00000000000E+00 0. -1.
         -1   -1    0    0    0  501 -0.00000000000E+00 -0.00000000000E+00 -0.11048104539E+04  0.11048104539E+04  0.00000000000E+00 0.  1.
         25    2    1    2    0    0 -0.96919189348E+02 -0.36176171632E+03 -0.50994109292E+03  0.64494358345E+03  0.12508972353E+03 0.  0.
          5    1    3    3  502    0 -0.77177884977E+02 -0.19467760654E+03 -0.37375702214E+03  0.42844787363E+03  0.41800000000E+01 0. -1.
         -5    1    3    3    0  502 -0.19741304372E+02 -0.16708410978E+03 -0.13618407078E+03  0.21649570983E+03  0.41800000000E+01 0. -1.
        -11    1    1    2    0    0  0.43226969925E+02  0.10570225107E+03 -0.20653425948E+03  0.23600410409E+03  0.00000000000E+00 0.  1.
         11    1    1    2    0    0  0.53692219423E+02  0.25605946525E+03 -0.25019437445E+03  0.36200349332E+03  0.00000000000E+00 0. -1.
</event>
<event>
 7    1  0.2943257E-009  0.1469133E+03  0.7561462E-02  0.1204318E+00
         -2   -1    0    0    0  501 -0.00000000000E+00  0.00000000000E+00  0.21193409793E+02  0.21193409793E+02  0.00000000000E+00 0.  1.
          2   -1    0    0  501    0  0.00000000000E+00 -0.00000000000E+00 -0.12485437059E+04  0.12485437059E+04  0.00000000000E+00 0. -1.
         25    2    1    2    0    0  0.36833603926E+02 -0.11508309082E+03 -0.71279566881E+03  0.73370722067E+03  0.12509111892E+03 0.  0.
          5    1    3    3  502    0  0.43072567149E+02 -0.69937181748E+01 -0.75804993523E+02  0.87567274582E+02  0.41800000000E+01 0. -1.
         -5    1    3    3    0  502 -0.62389632232E+01 -0.10808937264E+03 -0.63699067528E+03  0.64613994609E+03  0.41800000000E+01 0. -1.
        -11    1    1    2    0    0 -0.35658893064E+02  0.10670622725E+02 -0.68957084237E+02  0.78361331729E+02  0.00000000000E+00 0.  1.
         11    1    1    2    0    0 -0.11747108620E+01  0.10441246809E+03 -0.44559754309E+03  0.45766856331E+03  0.00000000000E+00 0. -1.
</event>
<event>
 7    1  0.2943257E-009  0.1014943E+03  0.7561462E-02  0.1277185E+00
          1   -1    0    0  501    0  0.00000000000E+00  0.00000000000E+00  0.32446807552E+02  0.32446807552E+02  0.00000000000E+00 0. -1.
         -1   -1    0    0    0  501 -0.00000000000E+00 -0.00000000000E+00 -0.36234645259E+03  0.36234645259E+03  0.00000000000E+00 0.  1.
         25    2    1    2    0    0  0.16457901236E+02 -0.13201984541E+02 -0.24014530749E+03  0.27159246715E+03  0.12509014586E+03 0.  0.
          5    1    3    3  502    0 -0.27104257084E+02 -0.56811905824E+02 -0.97326298445E+02  0.11598324950E+03  0.41800000000E+01 0.  1.
         -5    1    3    3    0  502  0.43562158320E+02  0.43609921283E+02 -0.14281900905E+03  0.15560921765E+03  0.41800000000E+01 0.  1.
        -11    1    1    2    0    0 -0.15772417351E+02  0.44296193482E+02 -0.75600025152E+02  0.89029690042E+02  0.00000000000E+00 0. -1.
         11    1    1    2    0    0 -0.68548388485E+00 -0.31094208941E+02 -0.14154312397E+02  0.34171102957E+02  0.00000000000E+00 0.  1.
</event>
<event>
 7    1  0.2943257E-009  0.1460174E+03  0.7561462E-02  0.1205454E+00
         -4   -1    0    0    0  501 -0.00000000000E+00  0.00000000000E+00  0.21252721267E+02  0.21252721267E+02  0.00000000000E+00 0. -1.
          4   -1    0    0  501    0  0.00000000000E+00 -0.00000000000E+00 -0.11090132425E+04  0.11090132425E+04  0.00000000000E+00 0.  1.
         25    2    1    2    0    0  0.47201447992E+02  0.89411647050E+02 -0.74249732119E+03  0.75971908526E+03  0.12509355388E+03 0.  0.
          5    1    3    3  502    0  0.84038315560E+02  0.31276192659E+02 -0.35761161230E+03  0.36870608398E+03  0.41800000000E+01 0. -1.
         -5    1    3    3    0  502 -0.36836867569E+02  0.58135454391E+02 -0.38488570888E+03  0.39101300128E+03  0.41800000000E+01 0. -1.
        -11    1    1    2    0    0  0.22631752646E+02 -0.45521294460E+02 -0.10826855105E+03  0.11960963015E+03  0.00000000000E+00 0. -1.
         11    1    1    2    0    0 -0.69833200638E+02 -0.43890352590E+02 -0.23699464904E+03  0.25093724840E+03  0.00000000000E+00 0.  1.
</event>
<event>
 7    1  0.2943257E-009  0.9130711E+02  0.7561462E-02  0.1299717E+00
          2   -1    0    0  501    0  0.00000000000E+00  0.00000000000E+00  0.12852729798E+03  0.12852729798E+03  0.00000000000E+00 0. -1.
         -2   -1    0    0    0  501 -0.00000000000E+00 -0.00000000000E+00 -0.91402867305E+02  0.91402867305E+02  0.00000000000E+00 0.  1.
         25    2    1    2    0    0  0.32102182906E+01 -0.30286438756E+02  0.40416265968E+02  0.13490824590E+03  0.12505673266E+03 0.  0.
          5    1    3    3  502    0 -0.29490960089E+02 -0.53096896933E+02 -0.18514874662E+02  0.63633875998E+02  0.41800000000E+01 0.  1.
         -5    1    3    3    0  502  0.32701178379E+02  0.22810458177E+02  0.58931140630E+02  0.71274369906E+02  0.41800000000E+01 0.  1.
        -11    1    1    2    0    0  0.23050063344E+02  0.45707511225E+02 -0.13433952887E+02  0.52924031335E+02  0.00000000000E+00 0.  1.
         11    1    1    2    0    0 -0.26260281634E+02 -0.15421072469E+02  0.10142117591E+02  0.32097888044E+02  0.00000000000E+00 0. -1.
</event>
<event>
 7    1  0.2943257E-009  0.9882893E+02  0.7561462E-02  0.1282778E+00
          1   -1    0    0  501    0  0.00000000000E+00  0.00000000000E+00  0.67223994631E+03  0.67223994631E+03  0.00000000000E+00 0. -1.
         -1   -1    0    0    0  501 -0.00000000000E+00 -0.00000000000E+00 -0.21025689677E+02  0.21025689677E+02  0.00000000000E+00 0.  1.
         25    2    1    2    0    0 -0.88839187445E+01  0.44852878356E+02  0.42913380301E+03  0.44932619462E+03  0.12508998194E+03 0.  0.
          5    1    3    3  502    0  0.29446305940E+02 -0.33329116147E+02  0.17693481085E+03  0.18248647788E+03  0.41800000000E+01 0. -1.
         -5    1    3    3    0  502 -0.38330224684E+02  0.78181994503E+02  0.25219899216E+03  0.26683971675E+03  0.41800000000E+01 0. -1.
        -11    1    1    2    0    0 -0.17051204587E+02 -0.41452096909E+01  0.91866514090E+00  0.17571860655E+02  0.00000000000E+00 0.  1.
         11    1    1    2    0    0  0.25935123331E+02 -0.40707668665E+02  0.22116178848E+03  0.22636758071E+03  0.00000000000E+00 0. -1.
</event>
<event>
 7    1  0.2943257E-009  0.1728993E+03  0.7561462E-02  0.1174858E+00
          1   -1    0    0  501    0  0.00000000000E+00  0.00000000000E+00  0.21657460248E+03  0.21657460248E+03  0.00000000000E+00 0. -1.
         -1   -1    0    0    0  501 -0.00000000000E+00 -0.00000000000E+00 -0.15068359232E+03  0.15068359232E+03  0.00000000000E+00 0.  1.
         25    2    1    2    0    0  0.50958879615E+02 -0.13687589202E+03  0.16741127089E+02  0.19302155336E+03  0.12508092379E+03 0.  0.
          5    1    3    3  502    0  0.20552310504E+02 -0.15514461900E+03  0.14721905456E+02  0.15724648541E+03  0.41800000000E+01 0.  1.
         -5    1    3    3    0  502  0.30406569111E+02  0.18268726985E+02  0.20192216337E+01  0.35775067949E+02  0.41800000000E+01 0.  1.
        -11    1    1    2    0    0 -0.51322200253E+02  0.70784896450E+02  0.61637849004E+02  0.10697520383E+03  0.00000000000E+00 0. -1.
         11    1    1    2    0    0  0.36332063777E+00  0.66090995567E+02 -0.12487965942E+02  0.67261437617E+02  0.00000000000E+00 0.  1.
</event>
<event>
 7    1  0.2943257E-009  0.5660604E+02  0.7561462E-02  0.1412653E+00
          1   -1    0    0  501    0  0.00000000000E+00  0.00000000000E+00  0.47248165712E+02  0.47248165712E+02  0.00000000000E+00 0. -1.
         -1   -1    0    0    0  501 -0.00000000000E+00 -0.00000000000E+00 -0.29587417230E+03  0.29587417230E+03  0.00000000000E+00 0.  1.
         25    2    1    2    0    0  0.35334613558E+02 -0.58310401843E+01 -0.96137711042E+02  0.16176809649E+03  0.12507566355E+03 0.  0.
          5    1    3    3  502    0  0.42961305140E+02  0.13961993151E+02 -0.12076065598E+03  0.12900085049E+03  0.41800000000E+01 0. -1.
         -5    1    3    3    0  502 -0.76266915811E+01 -0.19793033335E+02  0.24622944942E+02  0.32767246005E+02  0.41800000000E+01 0. -1.
        -11    1    1    2    0    0 -0.24225872764E+02  0.17674872852E+02 -0.16047867493E+03  0.16325654396E+03  0.00000000000E+00 0.  1.
         11    1    1    2    0    0 -0.11108740794E+02 -0.11843832668E+02  0.79903793783E+01  0.18097697558E+02  0.00000000000E+00 0. -1.
</event>
<event>
 7    1  0.2943257E-009  0.8592182E+02  0.7561462E-02  0.1313039E+00
          1   -1    0    0  501    0  0.00000000000E+00  0.00000000000E+00  0.17932010050E+03  0.17932010050E+03  0.00000000000E+00 0. -1.
         -1   -1    0    0    0  501 -0.00000000000E+00 -0.00000000000E+00 -0.85334736712E+02  0.85334736712E+02  0.00000000000E+00 0.  1.
         25    2    1    2    0    0 -0.34024109106E+02 -0.32463206385E+02  0.84887295938E+01  0.13391029057E+03  0.12509359545E+03 0.  0.
          5    1    3    3  502    0 -0.25150066591E+02  0.12688928542E+02 -0.51103990255E+02  0.58503204844E+02  0.41800000000E+01 0. -1.
         -5    1    3    3    0  502 -0.88740425153E+01 -0.45152134926E+02  0.59592719849E+02  0.75407085728E+02  0.41800000000E+01 0. -1.
        -11    1    1    2    0    0 -0.24014092289E+02  0.30856206281E+02  0.22662699136E+02  0.45192698821E+02  0.00000000000E+00 0. -1.
         11    1    1    2    0    0  0.58038201395E+02  0.16070001033E+01  0.62833935063E+02  0.85551847823E+02  0.00000000000E+00 0.  1.
</event>
<event>
 7    1  0.2943257E-009  0.6961696E+02  0.7561462E-02  0.1361400E+00
          2   -1    0    0  501    0  0.00000000000E+00  0.00000000000E+00  0.86344193124E+03  0.86344193124E+03  0.00000000000E+00 0. -1.
         -2   -1    0    0    0  501 -0.00000000000E+00 -0.00000000000E+00 -0.14037009490E+02  0.14037009490E+02  0.00000000000E+00 0.  1.
         25    2    1    2    0    0  0.23737925312E+02  0.28791870920E+01  0.49950304947E+03  0.51548425980E+03  0.12509575076E+03 0.  0.
          5    1    3    3  502    0 -0.23530506268E+01 -0.14383545432E+02  0.47572624638E+03  0.47596781101E+03  0.41800000000E+01 0.  1.
         -5    1    3    3    0  502  0.26090975939E+02  0.17262732524E+02  0.23776803088E+02  0.39516448787E+02  0.41800000000E+01 0.  1.
        -11    1    1    2    0    0 -0.49521550993E+02  0.24199669856E+02  0.19460972704E+03  0.20226456410E+03  0.00000000000E+00 0.  1.
         11    1    1    2    0    0  0.25783625681E+02 -0.27078856948E+02  0.15529214524E+03  0.15973011683E+03  0.00000000000E+00 0. -1.
</event>
<event>
 7    1  0.2943257E-009  0.9941146E+02  0.7561462E-02  0.1281538E+00
          4   -1    0    0  501    0  0.00000000000E+00  0.00000000000E+00  0.47920727170E+02  0.47920727170E+02  0.00000000000E+00 0. -1.
         -4   -1    0    0    0  501 -0.00000000000E+00 -0.00000000000E+00 -0.25671703755E+03  0.25671703755E+03  0.00000000000E+00 0.  1.
         25    2    1    2    0    0 -0.14663592300E+02  0.15034163388E+02 -0.13071613478E+03  0.18213898635E+03  0.12508739123E+03 0.  0.
          5    1    3    3  502    0  0.15234425822E+02  0.63802117657E+02 -0.47601561819E+02  0.81155277310E+02  0.41800000000E+01 0. -1.
         -5    1    3    3    0  502 -0.29898018122E+02 -0.48767954269E+02 -0.83114572966E+02  0.10098370904E+03  0.41800000000E+01 0. -1.
        -11    1    1    2    0    0 -0.29368427369E+02 -0.51005324344E+00 -0.69356134465E+02  0.75319572943E+02  0.00000000000E+00 0.  1.
         11    1    1    2    0    0  0.44032019669E+02 -0.14524110145E+02 -0.87240411312E+01  0.47179205433E+02  0.00000000000E+00 0. -1.
</event>
<event>
 7    1  0.2943257E-009  0.9798353E+02  0.7561462E-02  0.1284594E+00
         -2   -1    0    0    0  501 -0.00000000000E+00  0.00000000000E+00  0.59054824320E+02  0.59054824320E+02  0.00000000000E+00 0.  1.
          2   -1    0    0  501    0  0.00000000000E+00 -0.00000000000E+00 -0.23399209798E+03  0.23399209798E+03  0.00000000000E+00 0. -1.
         25    2    1    2    0    0 -0.16971577218E+02  0.10722903822E+01 -0.15068656271E+03  0.19658275331E+03  0.12509658060E+03 0.  0.
          5    1    3    3  502    0 -0.42473784597E+02 -0.51888261232E+02 -0.75774046617E+02  0.10126989964E+03  0.41800000000E+01 0.  1.
         -5    1    3    3    0  502  0.25502207379E+02  0.52960551614E+02 -0.74912516089E+02  0.95312853673E+02  0.41800000000E+01 0.  1.
        -11    1    1    2    0    0 -0.15672269562E+02 -0.24910907474E+02  0.20723160185E+02  0.35994759513E+02  0.00000000000E+00 0.  1.
         11    1    1    2    0    0  0.32643846780E+02  0.23838617092E+02 -0.44973871139E+02  0.60469409479E+02  0.00000000000E+00 0. -1.
</event>
<event>
 6    1  0.2943257E-009  0.2765053E+03  0.7561462E-02  0.1097613E+00
         -1   -1    0    0    0  501 -0.00000000000E+00  0.00000000000E+00  0.18829003465E+03  0.18829003465E+03  0.00000000000E+00 0.  1.
          1   -1    0    0  501    0  0.00000000000E+00 -0.00000000000E+00 -0.47654386468E+03  0.47654386468E+03  0.00000000000E+00 0. -1.
          5    1    1    2  502    0 -0.23525679491E+03 -0.59076156866E+02 -0.14651803285E+02  0.24303888495E+03  0.41800000000E+01 0.  1.
         -5    1    1    2    0  502 -0.27165701491E+02  0.20152272218E+02 -0.44760615165E+02  0.56258994685E+02  0.41800000000E+01 0.  1.
        -11    1    1    2    0    0  0.34449915144E+02 -0.21346040551E+02 -0.57687021763E+01  0.40935657139E+02  0.00000000000E+00 0.  1.
         11    1    1    2    0    0  0.22797258126E+03  0.60269925199E+02 -0.22307270940E+03  0.32460036255E+03  0.00000000000E+00 0. -1.
</event>
<event>
 7    1  0.2943257E-009  0.1492715E+03  0.7561462E-02  0.1201371E+00
          1   -1    0    0  501    0  0.00000000000E+00  0.00000000000E+00  0.25475598140E+03  0.25475598140E+03  0.00000000000E+00 0. -1.
         -1   -1    0    0    0  501 -0.00000000000E+00 -0.00000000000E+00 -0.10407814044E+03  0.10407814044E+03  0.00000000000E+00 0.  1.
         25    2    1    2    0    0  0.96492175949E+02  0.64349311230E+02  0.11937478112E+03  0.20820357058E+03  0.12508722780E+03 0.  0.
          5    1    3    3  502    0  0.54726285734E+02 -0.33350049097E+02  0.46662378498E+02  0.79385402261E+02  0.41800000000E+01 0.  1.
         -5    1    3    3    0  502  0.41765890215E+02  0.97699360327E+02  0.72712402623E+02  0.12881816832E+03  0.41800000000E+01 0.  1.
        -11    1    1    2    0    0 -0.30654891019E+02 -0.52927652348E+02 -0.22159464842E+02  0.65054597136E+02  0.00000000000E+00 0.  1.
         11    1    1    2    0    0 -0.65837284930E+02 -0.11421658882E+02  0.53462524678E+02  0.85575954120E+02  0.00000000000E+00 0. -1.
</event>
<event>
 7    1  0.2943257E-009  0.1295262E+03  0.7561462E-02  0.1228160E+00
         -2   -1    0    0    0  501 -0.00000000000E+00  0.00000000000E+00  0.92283849448E+02  0.92283849448E+02  0.00000000000E+00 0.  1.
          2   -1    0    0  501    0  0.00000000000E+00 -0.00000000000E+00 -0.25233646916E+03  0.25233646916E+03  0.00000000000E+00 0. -1.
         25    2    1    2    0    0 -0.54696425568E+02 -0.50318699317E+02 -0.17352919416E+03  0.22645792697E+03  0.12508853262E+03 0.  0.
          5    1    3    3  502    0 -0.24258529761E+02  0.39802365366E+02 -0.81827237211E+02  0.94264912372E+02  0.41800000000E+01 0.  1.
         -5    1    3    3    0  502 -0.30437895808E+02 -0.90121064684E+02 -0.91701956944E+02  0.13219301460E+03  0.41800000000E+01 0.  1.
        -11    1    1    2    0    0  0.70744619739E+02  0.64416358722E+02  0.74496769840E+01  0.95967526696E+02  0.00000000000E+00 0. -1.
         11    1    1    2    0    0 -0.16048194171E+02 -0.14097659405E+02  0.60268974595E+01  0.22194864943E+02  0.00000000000E+00 0.  1.
</event>
<event>
 7    1  0.2943257E-009  0.1052021E+03  0.7561462E-02  0.1269722E+00
         -2   -1    0    0    0  501 -0.00000000000E+00  0.00000000000E+00  0.42252528117E+02  0.42252528117E+02  0.00000000000E+00 0.  1.
          2   -1    0    0  501    0  0.00000000000E+00 -0.00000000000E+00 -0.40752879701E+03  0.40752879701E+03  0.00000000000E+00 0. -1.
         25    2    1    2    0    0 -0.16029290765E+02  0.12584360350E+02 -0.32186417836E+03  0.34591880233E+03  0.12509182309E+03 0.  0.
          5    1    3    3  502    0  0.31880391317E+02 -0.42455577371E+02 -0.14927843759E+03  0.15849403689E+03  0.41800000000E+01 0. -1.
         -5    1    3    3    0  502 -0.47909682083E+02  0.55039937721E+02 -0.17258574077E+03  0.18742476544E+03  0.41800000000E+01 0. -1.
        -11    1    1    2    0    0 -0.29292583272E+02  0.12960437721E+02  0.54470150991E+01  0.32491512033E+02  0.00000000000E+00 0.  1.
         11    1    1    2    0    0  0.45321874038E+02 -0.25544798071E+02 -0.48859105631E+02  0.71371010767E+02  0.00000000000E+00 0. -1.
</event>
<event>
 7    1  0.2943257E-009  0.9038749E+02  0.7561462E-02  0.1301916E+00
         -1   -1    0    0    0  501 -0.00000000000E+00  0.00000000000E+00  0.30497326315E+03  0.30497326315E+03  0.00000000000E+00 0.  1.
          1   -1    0    0  501    0  0.00000000000E+00 -0.00000000000E+00 -0.83665003171E+02  0.83665003171E+02  0.00000000000E+00 0. -1.
         25    2    1    2    0    0 -0.51493103280E+02 -0.15399120717E+02  0.24402295925E+03  0.27943590985E+03  0.12509416640E+03 0.  0.
          5    1    3    3  502    0  0.14401408090E+02 -0.43956938190E+02  0.34354376971E+02  0.57769443369E+02  0.41800000000E+01 0.  1.
         -5    1    3    3    0  502 -0.65894511370E+02  0.28557817473E+02  0.20966858227E+03  0.22166646648E+03  0.41800000000E+01 0.  1.
        -11    1    1    2    0    0  0.30913825097E+02  0.24929588690E+02 -0.56166046438E+02  0.68787889536E+02  0.00000000000E+00 0. -1.
         11    1    1    2    0    0  0.20579278184E+02 -0.95304679728E+01  0.33451347167E+02  0.40414466935E+02  0.00000000000E+00 0.  1.
</event>
<event>
 7    1  0.2943257E-009  0.1159437E+03  0.7561462E-02  0.1249943E+00
          1   -1    0    0  501    0  0.00000000000E+00  0.00000000000E+00  0.41587346779E+02  0.41587346779E+02  0.00000000000E+00 0. -1.
         -1   -1    0    0    0  501 -0.00000000000E+00 -0.00000000000E+00 -0.33699147396E+03  0.33699147396E+03  0.00000000000E+00 0.  1.
         25    2    1    2    0    0  0.93383340479E+01  0.43534930899E+02 -0.15004115008E+03  0.20035924203E+03  0.12509590105E+03 0.  0.
          5    1    3    3  502    0  0.62750343122E+02  0.21742999216E+01 -0.90416983300E+02  0.11015914130E+03  0.41800000000E+01 0.  1.
         -5    1    3    3    0  502 -0.53412009074E+02  0.41360630978E+02 -0.59624166776E+02  0.90200100732E+02  0.41800000000E+01 0.  1.
        -11    1    1    2    0    0  0.12034268812E+02  0.25936570055E+02 -0.57276937212E+02  0.64017004214E+02  0.00000000000E+00 0.  1.
         11    1    1    2    0    0 -0.21372602860E+02 -0.69471500954E+02 -0.88086039887E+02  0.11420257449E+03  0.00000000000E+00 0. -1.
</event>
<event>
 7    1  0.2943257E-009  0.1178122E+03  0.7561462E-02  0.1246751E+00
          2   -1    0    0  501    0  0.00000000000E+00  0.00000000000E+00  0.81729066618E+03  0.81729066618E+03  0.00000000000E+00 0. -1.
         -2   -1    0    0    0  501 -0.00000000000E+00 -0.00000000000E+00 -0.22138955356E+02  0.22138955356E+02  0.00000000000E+00 0.  1.
         25    2    1    2    0    0 -0.42069725057E+02 -0.61864190305E+02  0.35333636949E+03  0.38221866435E+03  0.12508987792E+03 0.  0.
          5    1    3    3  502    0  0.34818494448E+02 -0.23681610368E+02  0.21673663018E+03  0.22082886017E+03  0.41800000000E+01 0. -1.
         -5    1    3    3    0  502 -0.76888219505E+02 -0.38182579937E+02  0.13659973932E+03  0.16138980417E+03  0.41800000000E+01 0. -1.
        -11    1    1    2    0    0 -0.22491565919E+02  0.10318132212E+02  0.40350172086E+02  0.47333611496E+02  0.00000000000E+00 0.  1.
         11    1    1    2    0    0  0.64561290976E+02  0.51546058093E+02  0.40146516924E+03  0.40987734569E+03  0.00000000000E+00 0. -1.
</event>
<event>
 7    1  0.2943257E-009  0.1170868E+03  0.7561462E-02  0.1247982E+00
         -2   -1    0    0    0  501 -0.00000000000E+00  0.00000000000E+00  0.41148211781E+02  0.41148211781E+02  0.00000000000E+00 0.  1.
          2   -1    0    0  501    0  0.00000000000E+00 -0.00000000000E+00 -0.58051624178E+03  0.58051624178E+03  0.00000000000E+00 0. -1.
         25    2    1    2    0    0  0.53295606688E+02  0.89243455217E+02 -0.21258073557E+03  0.26766320831E+03  0.12509279737E+03 0.  0.
          5    1    3    3  502    0  0.23118118363E+02  0.44297570482E+02 -0.20710644922E+03  0.21308983048E+03  0.41800000000E+01 0.  1.
         -5    1    3    3    0  502  0.30177488325E+02  0.44945884735E+02 -0.54742863537E+01  0.54573377826E+02  0.41800000000E+01 0.  1.
        -11    1    1    2    0    0 -0.54378857599E+02 -0.16281705723E+02 -0.91678111815E+02  0.10782870806E+03  0.00000000000E+00 0.  1.
         11    1    1    2    0    0  0.10832509117E+01 -0.72961749494E+02 -0.23510918261E+03  0.24617253720E+03  0.00000000000E+00 0. -1.
</event>
<event>
 7    1  0.2943257E-009  0.1069108E+03  0.7561462E-02  0.1266400E+00
         -2   -1    0    0    0  501 -0.00000000000E+00  0.00000000000E+00  0.35934064699E+03  0.35934064699E+03  0.00000000000E+00 0.  1.
          2   -1    0    0  501    0  0.00000000000E+00 -0.00000000000E+00 -0.43045120002E+02  0.43045120002E+02  0.00000000000E+00 0. -1.
         25    2    1    2    0    0 -0.10824028183E+02  0.51795194486E+02  0.22392324351E+03  0.26189526226E+03  0.12509039792E+03 0.  0.
          5    1    3    3  502    0  0.20616910221E+02  0.85134707102E+02  0.12390310078E+03  0.15179731922E+03  0.41800000000E+01 0. -1.
         -5    1    3    3    0  502 -0.31440938405E+02 -0.33339512616E+02  0.10002014273E+03  0.11009794304E+03  0.41800000000E+01 0. -1.
        -11    1    1    2    0    0  0.35235543656E+02 -0.38958154487E+02  0.99046247607E+02  0.11211351615E+03  0.00000000000E+00 0.  1.
         11    1    1    2    0    0 -0.24411515472E+02 -0.12837039999E+02 -0.66739641340E+01  0.28376988580E+02  0.00000000000E+00 0. -1.
</event>
<event>
 7    1  0.2943257E-009  0.1168243E+03  0.7561462E-02  0.1248430E+00
          2   -1    0    0  501    0  0.00000000000E+00  0.00000000000E+00  0.42216299221E+03  0.42216299221E+03  0.00000000000E+00 0. -1.
         -2   -1    0    0    0  501 -0.00000000000E+00 -0.00000000000E+00 -0.47443420938E+02  0.47443420938E+02  0.00000000000E+00 0.  1.
         25    2    1    2    0    0  0.60598586805E+02  0.28191700817E+02  0.30951997314E+03  0.34046519844E+03  0.12508787654E+03 0.  0.
          5    1    3    3  502    0  0.86314635365E+02 -0.60896331574E+01  0.13267065139E+03  0.15844959467E+03  0.41800000000E+01 0.  1.
         -5    1    3    3    0  502 -0.25716048561E+02  0.34281333975E+02  0.17684932175E+03  0.18201560377E+03  0.41800000000E+01 0.  1.
        -11    1    1    2    0    0 -0.16611179518E+02  0.28025965853E+02  0.16981117618E+00  0.32579362836E+02  0.00000000000E+00 0.  1.
         11    1    1    2    0    0 -0.43987407287E+02 -0.56217666670E+02  0.65029786955E+02  0.96561851873E+02  0.00000000000E+00 0. -1.
</event>
<event>
 7    1  0.2943257E-009  0.7510201E+02  0.7561462E-02  0.1343555E+00
         -1   -1    0    0    0  501 -0.00000000000E+00  0.00000000000E+00  0.12224399272E+02  0.12224399272E+02  0.00000000000E+00 0.  1.
          1   -1    0    0  501    0  0.00000000000E+00 -0.00000000000E+00 -0.10608281060E+04  0.10608281060E+04  0.00000000000E+00 0. -1.
         25    2    1    2    0    0 -0.37320885900E+01  0.23082335321E+02 -0.71726394609E+03  0.72846644412E+03  0.12509623957E+03 0.  0.
          5    1    3    3  502    0 -0.72476770567E-01  0.44508120053E+02 -0.86994514701E+02  0.97808465849E+02  0.41800000000E+01 0.  1.
         -5    1    3    3    0  502 -0.36596118194E+01 -0.21425784732E+02 -0.63026943139E+03  0.63065797827E+03  0.41800000000E+01 0.  1.
        -11    1    1    2    0    0  0.36181608451E+02 -0.33475676615E+02 -0.26958991860E+03  0.27405921609E+03  0.00000000000E+00 0.  1.
         11    1    1    2    0    0 -0.32449519861E+02  0.10393341294E+02 -0.61749842021E+02  0.70526845046E+02  0.00000000000E+00 0. -1.
</event>
<event>
 7    1  0.2943257E-009  0.9139568E+02  0.7561462E-02  0.1299507E+00
          1   -1    0    0  501    0  0.00000000000E+00  0.00000000000E+00  0.77511684385E+03  0.77511684385E+03  0.00000000000E+00 0. -1.
         -1   -1    0    0    0  501 -0.00000000000E+00 -0.00000000000E+00 -0.22243041048E+02  0.22243041048E+02  0.00000000000E+00 0.  1.
         25    2    1    2    0    0  0.43581233806E+02 -0.58351179791E+02  0.40607909833E+03  0.43110549997E+03  0.12509010303E+03 0.  0.
          5    1    3    3  502    0  0.38548458689E+01  0.12934125802E+02 -0.25750873011E+01  0.14361577961E+02  0.41800000000E+01 0. -1.
         -5    1    3    3    0  502  0.39726387937E+02 -0.71285305592E+02  0.40865418563E+03  0.41674392200E+03  0.41800000000E+01 0. -1.
        -11    1    1    2    0    0 -0.29893346947E+02  0.31311775882E+01  0.23940710644E+02  0.38426216193E+02  0.00000000000E+00 0.  1.
         11    1    1    2    0    0 -0.13687886859E+02  0.55220002202E+02  0.32285399383E+03  0.32782816874E+03  0.00000000000E+00 0. -1.
</event>
<event>
 7    1  0.2943257E-009  0.9321983E+02  0.7561462E-02  0.1295237E+00
          4   -1    0    0  501    0  0.00000000000E+00  0.00000000000E+00  0.13434530010E+03  0.13434530010E+03  0.00000000000E+00 0. -1.
         -4   -1    0    0    0  501 -0.00000000000E+00 -0.00000000000E+00 -0.13232316944E+03  0.13232316944E+03  0.00000000000E+00 0.  1.
         25    2    1    2    0    0  0.46934695431E+02 -0.67459709346E+02  0.39890198067E+02  0.15489394383E+03  0.12508888006E+03 0.  0.
          5    1    3    3  502    0  0.44501127829E+02 -0.30450031895E+02 -0.39630635216E+02  0.67049343532E+02  0.41800000000E+01 0. -1.
         -5    1    3    3    0  502  0.24335676020E+01 -0.37009677452E+02  0.79520833283E+02  0.87844600302E+02  0.41800000000E+01 0. -1.
        -11    1    1    2    0    0 -0.41318137450E+02  0.17689460589E+02 -0.42004099957E+02  0.61517882859E+02  0.00000000000E+00 0.  1.
         11    1    1    2    0    0 -0.56165579811E+01  0.49770248757E+02  0.41360325425E+01  0.50256642846E+02  0.00000000000E+00 0. -1.
</event>
<event>
 7    1  0.2943257E-009  0.1435545E+03  0.7561462E-02  0.1208625E+00
          2   -1    0    0  501    0  0.00000000000E+00  0.00000000000E+00  0.21758775335E+03  0.21758775335E+03  0.00000000000E+00 0. -1.
         -2   -1    0    0    0  501 -0.00000000000E+00 -0.00000000000E+00 -0.11725825936E+03  0.11725825936E+03  0.00000000000E+00 0.  1.
         25    2    1    2    0    0 -0.11566120312E+03 -0.54882408753E+01  0.36805717918E+02  0.17438181102E+03  0.12508685162E+03 0.  0.
          5    1    3    3  502    0  0.12224484098E+02  0.17033903360E+02  0.38962888587E+02  0.44442895520E+02  0.41800000000E+01 0.  1.
         -5    1    3    3    0  502 -0.12788568722E+03 -0.22522144236E+02 -0.21571706685E+01  0.12993891550E+03  0.41800000000E+01 0.  1.
        -11    1    1    2    0    0  0.60269315992E+02  0.38318086547E+02  0.64255775939E+02  0.96070135569E+02  0.00000000000E+00 0. -1.
         11    1    1    2    0    0  0.55391887130E+02 -0.32829845671E+02 -0.73199986637E+00  0.64394066112E+02  0.00000000000E+00 0.  1.
</event>
<event>
 7    1  0.2943257E-009  0.1940035E+03  0.7561462E-02  0.1154899E+00
          1   -1    0    0  501    0  0.00000000000E+00  0.00000000000E+00  0.10819484988E+04  0.10819484988E+04  0.00000000000E+00 0. -1.
         -1   -1    0    0    0  501 -0.00000000000E+00 -0.00000000000E+00 -0.42776216324E+02  0.42776216324E+02  0.00000000000E+00 0.  1.
         25    2    1    2    0    0  0.75243436719E+02 -0.16495158829E+03  0.63773637376E+03  0.67470366887E+03  0.12508699823E+03 0.  0.
          5    1    3    3  502    0  0.34235172184E+02 -0.76585153522E+01  0.27410077284E+03  0.27636824337E+03  0.41800000000E+01 0. -1.
         -5    1    3    3    0  502  0.41008264535E+02 -0.15729307294E+03  0.36363560092E+03  0.39833542550E+03  0.41800000000E+01 0. -1.
        -11    1    1    2    0    0  0.65348905137E+01  0.41373353450E+02  0.17096160909E+03  0.17601798474E+03  0.00000000000E+00 0.  1.
         11    1    1    2    0    0 -0.81778327233E+02  0.12357823484E+03  0.23047429966E+03  0.27400306154E+03  0.00000000000E+00 0. -1.
</event>
<event>
 7    1  0.2943257E-009  0.9206498E+02  0.7561462E-02  0.1297927E+00
          4   -1    0    0  501    0  0.00000000000E+00  0.00000000000E+00  0.47576074344E+03  0.47576074344E+03  0.00000000000E+00 0. -1.
         -4   -1    0    0    0  501 -0.00000000000E+00 -0.00000000000E+00 -0.32125929216E+02  0.32125929216E+02  0.00000000000E+00 0.  1.
         25    2    1    2    0    0 -0.29975597640E+02  0.26292854126E+02  0.33992899242E+03  0.36440263801E+03  0.12509081528E+03 0.  0.
          5    1    3    3  502    0  0.31676425994E+02 -0.27643002963E+02  0.17725342288E+03  0.18221904373E+03  0.41800000000E+01 0.  1.
         -5    1    3    3    0  502 -0.61652023634E+02  0.53935857089E+02  0.16267556954E+03  0.18218359428E+03  0.41800000000E+01 0.  1.
        -11    1    1    2    0    0  0.41419703489E+02 -0.15794072055E+02  0.11567408780E+03  0.12387711305E+03  0.00000000000E+00 0. -1.
         11    1    1    2    0    0 -0.11444105849E+02 -0.10498782071E+02 -0.11968265995E+02  0.19606921599E+02  0.00000000000E+00 0.  1.
</event>
<event>
 7    1  0.2943257E-009  0.1967624E+03  0.7561462E-02  0.1152500E+00
          2   -1    0    0  501    0  0.00000000000E+00  0.00000000000E+00  0.11068619736E+04  0.11068619736E+04  0.00000000000E+00 0. -1.
         -2   -1    0    0    0  501 -0.00000000000E+00 -0.00000000000E+00 -0.35840859220E+02  0.35840859220E+02  0.00000000000E+00 0.  1.
         25    2    1    2    0    0  0.78257649117E+02  0.31733201709E+02  0.35211582508E+03  0.38309313309E+03  0.12507413244E+03 0.  0.
          5    1    3    3  502    0  0.11434910517E+02 -0.45929420969E+02  0.13123060794E+03  0.13956795388E+03  0.41800000000E+01 0. -1.
         -5    1    3    3    0  502  0.66822738600E+02  0.77662622678E+02  0.22088521714E+03  0.24352517920E+03  0.41800000000E+01 0. -1.
        -11    1    1    2    0    0  0.42181308236E+02 -0.97508183930E+02  0.26820384373E+03  0.28847948018E+03  0.00000000000E+00 0.  1.
         11    1    1    2    0    0 -0.12043895735E+03  0.65774982221E+02  0.45070144553E+03  0.47113021951E+03  0.00000000000E+00 0. -1.
</event>
<event>
 7    1  0.2943257E-009  0.9617173E+02  0.7561462E-02  0.1288559E+00
         -2   -1    0    0    0  501 -0.00000000000E+00  0.00000000000E+00  0.54285737458E+02  0.54285737458E+02  0.00000000000E+00 0.  1.
          2   -1    0    0  501    0  0.00000000000E+00 -0.00000000000E+00 -0.23541430902E+03  0.23541430902E+03  0.00000000000E+00 0. -1.
         25    2    1    2    0    0 -0.17725419159E+02 -0.26232695861E+02 -0.10701487849E+03  0.16761074483E+03  0.12505531875E+03 0.  0.
          5    1    3    3  502    0  0.12640622849E+02 -0.72382994089E+02 -0.60711895662E+02  0.95406969631E+02  0.41800000000E+01 0.  1.
         -5    1    3    3    0  502 -0.30366042008E+02  0.46150298229E+02 -0.46302982832E+02  0.72203775199E+02  0.41800000000E+01 0.  1.
        -11    1    1    2    0    0  0.34052401702E+02  0.19831075495E+01 -0.84452749043E+02  0.91081093528E+02  0.00000000000E+00 0. -1.
         11    1    1    2    0    0 -0.16326982543E+02  0.24249588311E+02  0.10339055977E+02  0.31008208118E+02  0.00000000000E+00 0.  1.
</event>
<event>
 7    1  0.2943257E-009  0.1107416E+03  0.7561462E-02  0.1259203E+00
          2   -1    0    0  501    0  0.00000000000E+00  0.00000000000E+00  0.39326809021E+03  0.39326809021E+03  0.00000000000E+00 0.  1.
         -2   -1    0    0    0  501 -0.00000000000E+00 -0.00000000000E+00 -0.80628897161E+02  0.80628897161E+02  0.00000000000E+00 0. -1.
         25    2    1    2    0    0 -0.35854639621E+02 -0.75001248159E+02  0.13645649418E+02  0.15080517731E+03  0.12508099515E+03 0.  0.
          5    1    3    3  502    0 -0.17858529703E+02 -0.79418496717E+02 -0.42222697502E+02  0.91795714977E+02  0.41800000000E+01 0.  1.
         -5    1    3    3    0  502 -0.17996109918E+02  0.44172485573E+01  0.55868346920E+02  0.59009462331E+02  0.41800000000E+01 0.  1.
        -11    1    1    2    0    0  0.59066113761E+02  0.21846601181E+02  0.18035173906E+03  0.19103096492E+03  0.00000000000E+00 0.  1.
         11    1    1    2    0    0 -0.23211474141E+02  0.53154646978E+02  0.11864180458E+03  0.13206084514E+03  0.00000000000E+00 0. -1.
</event>
<event>
 7    1  0.2943257E-009  0.2300434E+03  0.7561462E-02  0.1126609E+00
         -1   -1    0    0    0  501 -0.00000000000E+00  0.00000000000E+00  0.98048787445E+02  0.98048787445E+02  0.00000000000E+00 0.  1.
          1   -1    0    0  501    0  0.00000000000E+00 -0.00000000000E+00 -0.69972443727E+03  0.69972443727E+03  0.00000000000E+00 0. -1.
         25    2    1    2    0    0  0.19536530533E+03  0.79327803118E+02 -0.14075115699E+03  0.28270236545E+03  0.12509690788E+03 0.  0.
          5    1    3    3  502    0  0.13849750666E+03  0.11085921701E+03 -0.84148720873E+02  0.19639196769E+03  0.41800000000E+01 0.  1.
         -5    1    3    3    0  502  0.56867798663E+02 -0.31531413889E+02 -0.56602436122E+02  0.86310397761E+02  0.41800000000E+01 0.  1.
        -11    1    1    2    0    0 -0.13089783122E+03 -0.79232284065E+02 -0.23741485847E+03  0.28244966292E+03  0.00000000000E+00 0. -1.
         11    1    1    2    0    0 -0.64467474104E+02 -0.95519053006E-01 -0.22350963436E+03  0.23262119635E+03  0.00000000000E+00 0.  1.
</event>
<event>
 7    1  0.2943257E-009  0.1052594E+03  0.7561462E-02  0.1269609E+00
          2   -1    0    0  501    0  0.00000000000E+00  0.00000000000E+00  0.10413505385E+03  0.10413505385E+03  0.00000000000E+00 0. -1.
         -2   -1    0    0    0  501 -0.00000000000E+00 -0.00000000000E+00 -0.29603368605E+03  0.29603368605E+03  0.00000000000E+00 0.  1.
         25    2    1    2    0    0  0.39573053683E+02  0.80991816077E+02 -0.21968072928E+03  0.26839149895E+03  0.12509465633E+03 0.  0.
          5    1    3    3  502    0 -0.34697841428E+01  0.71320366652E+02 -0.37229327288E+02  0.80635781832E+02  0.41800000000E+01 0. -1.
         -5    1    3    3    0  502  0.43042837826E+02  0.96714494253E+01 -0.18245140200E+03  0.18775571712E+03  0.41800000000E+01 0. -1.
        -11    1    1    2    0    0 -0.16395406649E+02 -0.63658859148E+02  0.59623493024E+02  0.88748073937E+02  0.00000000000E+00 0.  1.
         11    1    1    2    0    0 -0.23177647034E+02 -0.17332956930E+02 -0.31841395937E+02  0.43029167005E+02  0.00000000000E+00 0. -1.
</event>
<event>
 7    1  0.2943257E-009  0.9518465E+02  0.7561462E-02  0.1290761E+00
          1   -1    0    0  501    0  0.00000000000E+00  0.00000000000E+00  0.30159418672E+03  0.30159418672E+03  0.00000000000E+00 0. -1.
         -1   -1    0    0    0  501 -0.00000000000E+00 -0.00000000000E+00 -0.42717771791E+02  0.42717771791E+02  0.00000000000E+00 0.  1.
         25    2    1    2    0    0  0.20110025197E+02 -0.50393419101E+01  0.79925091519E+02  0.14988172967E+03  0.12508678809E+03 0.  0.
          5    1    3    3  502    0 -0.39273167847E+02 -0.35095025963E+02  0.10983313256E+02  0.53964322753E+02  0.41800000000E+01 0.  1.
         -5    1    3    3    0  502  0.59383193044E+02  0.30055684053E+02  0.68941778263E+02  0.95917406919E+02  0.41800000000E+01 0.  1.
        -11    1    1    2    0    0  0.21140811412E+02  0.17833401551E+02  0.10695426635E+03  0.11047252694E+03  0.00000000000E+00 0.  1.
         11    1    1    2    0    0 -0.41250836609E+02 -0.12794059641E+02  0.71997057064E+02  0.83957701904E+02  0.00000000000E+00 0. -1.
</event>
<event>
 7    1  0.2943257E-009  0.1185075E+03  0.7561462E-02  0.1245580E+00
          1   -1    0    0  501    0  0.00000000000E+00  0.00000000000E+00  0.28472593046E+03  0.28472593046E+03  0.00000000000E+00 0. -1.
         -1   -1    0    0    0  501 -0.00000000000E+00 -0.00000000000E+00 -0.75737773691E+02  0.75737773691E+02  0.00000000000E+00 0.  1.
         25    2    1    2    0    0 -0.38508066925E+02  0.95453206039E+02  0.10918622408E+03  0.19535573187E+03  0.12509214477E+03 0.  0.
          5    1    3    3  502    0 -0.15186872077E+02  0.99345423725E+02  0.19433001243E+02  0.10244641641E+03  0.41800000000E+01 0.  1.
         -5    1    3    3    0  502 -0.23321194848E+02 -0.38922176868E+01  0.89753222841E+02  0.92909315453E+02  0.41800000000E+01 0.  1.
        -11    1    1    2    0    0  0.22822051503E+02 -0.93924935691E+02  0.42341005085E+02  0.10552487996E+03  0.00000000000E+00 0.  1.
         11    1    1    2    0    0  0.15686015422E+02 -0.15282703475E+01  0.57460927600E+02  0.59583092323E+02  0.00000000000E+00 0. -1.
</event>
<event>
 7    1  0.2943257E-009  0.8771088E+02  0.7561462E-02  0.1308492E+00
          2   -1    0    0  501    0  0.00000000000E+00  0.00000000000E+00  0.18973332775E+03  0.18973332775E+03  0.00000000000E+00 0. -1.
         -2   -1    0    0    0  501 -0.00000000000E+00 -0.00000000000E+00 -0.74571719294E+02  0.74571719294E+02  0.00000000000E+00 0.  1.
         25    2    1    2    0    0  0.10435585004E+01 -0.41769892352E+02  0.32645204033E+02  0.13586023729E+03  0.12508589773E+03 0.  0.
          5    1    3    3  502    0  0.31233602303E+02  0.96939896013E+01 -0.33279884661E+02  0.46845858625E+02  0.41800000000E+01 0.  1.
         -5    1    3    3    0  502 -0.30190043803E+02 -0.51463881953E+02  0.65925088694E+02  0.89014378669E+02  0.41800000000E+01 0.  1.
        -11    1    1    2    0    0 -0.35833513602E+02  0.26896211696E+02  0.89079910625E+01  0.45681497408E+02  0.00000000000E+00 0.  1.
         11    1    1    2    0    0  0.34789955102E+02  0.14873680656E+02  0.73608413356E+02  0.82763312337E+02  0.00000000000E+00 0. -1.
</event>
<event>
 7    1  0.2943257E-009  0.1086207E+03  0.7561462E-02  0.1263146E+00
         -1   -1    0    0    0  501 -0.00000000000E+00  0.00000000000E+00  0.91796376114E+02  0.91796376114E+02  0.00000000000E+00 0.  1.
          1   -1    0    0  501    0  0.00000000000E+00 -0.00000000000E+00 -0.15214827176E+03  0.15214827176E+03  0.00000000000E+00 0. -1.
         25    2    1    2    0    0 -0.32440789385E+02  0.29732440345E+02 -0.44387292855E+02  0.13983480185E+03  0.12508843758E+03 0.  0.
          5    1    3    3  502    0 -0.48848315078E+02  0.71122374219E+02 -0.19129884447E+02  0.88475843480E+02  0.41800000000E+01 0.  1.
         -5    1    3    3    0  502  0.16407525693E+02 -0.41389933873E+02 -0.25257408408E+02  0.51358958370E+02  0.41800000000E+01 0.  1.
        -11    1    1    2    0    0 -0.22533582336E+02 -0.20364659394E+02  0.21248228035E+02  0.37067086205E+02  0.00000000000E+00 0.  1.
         11    1    1    2    0    0  0.54974371721E+02 -0.93677809509E+01 -0.37212830826E+02  0.67042759819E+02  0.00000000000E+00 0. -1.
</event>
<event>
 7    1  0.2943257E-009  0.9587467E+02  0.7561462E-02  0.1289218E+00
         -2   -1    0    0    0  501 -0.00000000000E+00  0.00000000000E+00  0.33682682060E+03  0.33682682060E+03  0.00000000000E+00 0.  1.
          2   -1    0    0  501    0  0.00000000000E+00 -0.00000000000E+00 -0.48959260404E+02  0.48959260404E+02  0.00000000000E+00 0. -1.
         25    2    1    2    0    0 -0.39133373635E+02 -0.51396948861E+02  0.15521520522E+03  0.20954900669E+03  0.12508380786E+03 0.  0.
          5    1    3    3  502    0  0.12159940951E+02 -0.98915175716E+01 -0.17948183266E+02  0.24193304164E+02  0.41800000000E+01 0.  1.
         -5    1    3    3    0  502 -0.51293314586E+02 -0.41505431290E+02  0.17316338849E+03  0.18535570253E+03  0.41800000000E+01 0.  1.
        -11    1    1    2    0    0  0.66340954254E+02  0.48231189464E+02  0.12165242645E+03  0.14671974206E+03  0.00000000000E+00 0.  1.
         11    1    1    2    0    0 -0.27207580619E+02  0.31657593974E+01  0.10999928525E+02  0.29517332252E+02  0.00000000000E+00 0. -1.
</event>
<event>
 7    1  0.2943257E-009  0.7387347E+02  0.7561462E-02  0.1347395E+00
         -2   -1    0    0    0  501 -0.00000000000E+00  0.00000000000E+00  0.54202908500E+02  0.54202908500E+02  0.00000000000E+00 0.  1.
          2   -1    0    0  501    0  0.00000000000E+00 -0.00000000000E+00 -0.26288053782E+03  0.26288053782E+03  0.00000000000E+00 0. -1.
         25    2    1    2    0    0  0.12359716839E+02 -0.34732725507E+02 -0.88186332185E+02  0.15742869718E+03  0.12509132940E+03 0.  0.
          5    1    3    3  502    0  0.46112825943E+01  0.17264107576E+01  0.31421231077E+02  0.32078194832E+02  0.41800000000E+01 0.  1.
         -5    1    3    3    0  502  0.77484342448E+01 -0.36459136265E+02 -0.11960756326E+03  0.12535050235E+03  0.41800000000E+01 0.  1.
        -11    1    1    2    0    0 -0.21957135160E+00  0.68189444321E+02 -0.89090564474E+02  0.11219169848E+03  0.00000000000E+00 0. -1.
         11    1    1    2    0    0 -0.12140145487E+02 -0.33456718814E+02 -0.31400732660E+02  0.47463050659E+02  0.00000000000E+00 0.  1.
</event>
<event>
 7    1  0.2943257E-009  0.1353011E+03  0.7561462E-02  0.1219795E+00
         -2   -1    0    0    0  501 -0.00000000000E+00  0.00000000000E+00  0.24235897530E+02  0.24235897530E+02  0.00000000000E+00 0.  1.
          2   -1    0    0  501    0  0.00000000000E+00 -0.00000000000E+00 -0.11362322952E+04  0.11362322952E+04  0.00000000000E+00 0. -1.
         25    2    1    2    0    0  0.11147875826E+03  0.54232928307E+01 -0.78184907033E+03  0.79961993512E+03  0.12508855348E+03 0.  0.
          5    1    3    3  502    0  0.81078281445E+02 -0.50208879365E+02 -0.58598040426E+03  0.59370457794E+03  0.41800000000E+01 0.  1.
         -5    1    3    3    0  502  0.30400476818E+02  0.55632172195E+02 -0.19586866607E+03  0.20591535718E+03  0.41800000000E+01 0.  1.
        -11    1    1    2    0    0 -0.87415173288E+02 -0.42642031764E+01 -0.32451183605E+03  0.33610642315E+03  0.00000000000E+00 0. -1.
         11    1    1    2    0    0 -0.24063584975E+02 -0.11590896543E+01 -0.56354913008E+01  0.24741834468E+02  0.00000000000E+00 0.  1.
</event>
<event>
 7    1  0.2943257E-009  0.1701899E+03  0.7561462E-02  0.1177650E+00
          2   -1    0    0  501    0  0.00000000000E+00  0.00000000000E+00  0.77079111257E+03  0.77079111257E+03  0.00000000000E+00 0. -1.
         -2   -1    0    0    0  501 -0.00000000000E+00 -0.00000000000E+00 -0.41697306968E+02  0.41697306968E+02  0.00000000000E+00 0.  1.
         25    2    1    2    0    0 -0.10550108679E+03 -0.89867048546E+02  0.29110068757E+03  0.34582395445E+03  0.12509209185E+03 0.  0.
          5    1    3    3  502    0 -0.70069126999E+02  0.12182530728E+02  0.70865134500E+02  0.10048600052E+03  0.41800000000E+01 0. -1.
         -5    1    3    3    0  502 -0.35431959790E+02 -0.10204957927E+03  0.22023555307E+03  0.24533795393E+03  0.41800000000E+01 0. -1.
        -11    1    1    2    0    0  0.10117267299E+03  0.10469006879E+03  0.39820363884E+03  0.42398355893E+03  0.00000000000E+00 0.  1.
         11    1    1    2    0    0  0.43284138024E+01 -0.14823020240E+02  0.39789479192E+02  0.42680906146E+02  0.00000000000E+00 0. -1.
</event>
<event>
 7    1  0.2943257E-009  0.2115610E+03  0.7561462E-02  0.1140336E+00
         -2   -1    0    0    0  501 -0.00000000000E+00  0.00000000000E+00  0.12997321917E+03  0.12997321917E+03  0.00000000000E+00 0.  1.
          2   -1    0    0  501    0  0.00000000000E+00 -0.00000000000E+00 -0.46071020896E+03  0.46071020896E+03  0.00000000000E+00 0. -1.
         25    2    1    2    0    0 -0.16415521898E+03 -0.11374497590E+03 -0.28679210605E+03  0.37119314658E+03  0.12509909876E+03 0.  0.
          5    1    3    3  502    0  0.87801303529E+01  0.66633709579E+01  0.36454365587E+01  0.12339076515E+02  0.41800000000E+01 0.  1.
         -5    1    3    3    0  502 -0.17293534933E+03 -0.12040834686E+03 -0.29043754261E+03  0.35885407006E+03  0.41800000000E+01 0.  1.
        -11    1    1    2    0    0  0.11747860529E+03  0.91245724749E+02 -0.66547566797E+02  0.16295884030E+03  0.00000000000E+00 0.  1.
         11    1    1    2    0    0  0.46676613693E+02  0.22499251155E+02  0.22602683062E+02  0.56531441251E+02  0.00000000000E+00 0. -1.
</event>
<event>
 7    1  0.2943257E-009  0.2235550E+03  0.7561462E-02  0.1131260E+00
          1   -1    0    0  501    0  0.00000000000E+00  0.00000000000E+00  0.30649574935E+03  0.30649574935E+03  0.00000000000E+00 0. -1.
         -1   -1    0    0    0  501 -0.00000000000E+00 -0.00000000000E+00 -0.19368230305E+03  0.19368230305E+03  0.00000000000E+00 0.  1.
         25    2    1    2    0    0  0.13733292274E+03 -0.16087364431E+03  0.11283363489E+03  0.27040692105E+03  0.12509121746E+03 0.  0.
          5    1    3    3  502    0  0.97512485777E+02 -0.67494626718E+02  0.11972840705E+03  0.16857216073E+03  0.41800000000E+01 0.  1.
         -5    1    3    3    0  502  0.39820436960E+02 -0.93379017593E+02 -0.68947721570E+01  0.10183476032E+03  0.41800000000E+01 0.  1.
        -11    1    1    2    0    0 -0.24288908901E+01  0.55784228106E+02 -0.15826457519E+02  0.58036681279E+02  0.00000000000E+00 0.  1.
         11    1    1    2    0    0 -0.13490403185E+03  0.10508941621E+03  0.15806268931E+02  0.17173445008E+03  0.00000000000E+00 0. -1.
</event>
<event>
 7    1  0.2943257E-009  0.9733336E+02  0.7561462E-02  0.1286006E+00
         -1   -1    0    0    0  501 -0.00000000000E+00  0.00000000000E+00  0.16172961029E+03  0.16172961029E+03  0.00000000000E+00 0.  1.
          1   -1    0    0  501    0  0.00000000000E+00 -0.00000000000E+00 -0.11481475512E+03  0.11481475512E+03  0.00000000000E+00 0. -1.
         25    2    1    2    0    0  0.56758845718E+02  0.46927074159E+02  0.62517694122E+02  0.15804178531E+03  0.12508008223E+03 0.  0.
          5    1    3    3  502    0  0.42949268750E+01  0.13710941991E+02 -0.37425063470E+02  0.40305633637E+02  0.41800000000E+01 0. -1.
         -5    1    3    3    0  502  0.52463918843E+02  0.33216132168E+02  0.99942757592E+02  0.11773615168E+03  0.41800000000E+01 0. -1.
        -11    1    1    2    0    0 -0.36512344259E+00  0.25596265998E+02 -0.30407077086E+01  0.25778829523E+02  0.00000000000E+00 0.  1.
         11    1    1    2    0    0 -0.56393722276E+02 -0.72523340157E+02 -0.12562131238E+02  0.92723750576E+02  0.00000000000E+00 0. -1.
</event>
<event>
 7    1  0.2943257E-009  0.1254791E+03  0.7561462E-02  0.1234322E+00
         -4   -1    0    0    0  501 -0.00000000000E+00  0.00000000000E+00  0.17741534789E+02  0.17741534789E+02  0.00000000000E+00 0.  1.
          4   -1    0    0  501    0  0.00000000000E+00 -0.00000000000E+00 -0.96831338497E+03  0.96831338497E+03  0.00000000000E+00 0. -1.
         25    2    1    2    0    0 -0.62578271987E+02 -0.23532447134E+02 -0.41315308767E+03  0.43681959900E+03  0.12508425972E+03 0.  0.
          5    1    3    3  502    0  0.29824809535E+02  0.19252528488E+02 -0.15955151795E+03  0.16350638641E+03  0.41800000000E+01 0. -1.
         -5    1    3    3    0  502 -0.92403081522E+02 -0.42784975622E+02 -0.25360156972E+03  0.27331321259E+03  0.41800000000E+01 0. -1.
        -11    1    1    2    0    0  0.18091792545E+02 -0.35226412457E+02 -0.19220278283E+03  0.19623996234E+03  0.00000000000E+00 0.  1.
         11    1    1    2    0    0  0.44486479442E+02  0.58758859591E+02 -0.34521597968E+03  0.35299535841E+03  0.00000000000E+00 0. -1.
</event>
<event>
 7    1  0.2943257E-009  0.1031008E+03  0.7561462E-02  0.1273907E+00
         -1   -1    0    0    0  501 -0.00000000000E+00  0.00000000000E+00  0.16189116177E+02  0.16189116177E+02  0.00000000000E+00 0.  1.
          1   -1    0    0  501    0  0.00000000000E+00 -0.00000000000E+00 -0.73779281428E+03  0.73779281428E+03  0.00000000000E+00 0. -1.
         25    2    1    2    0    0  0.60911654678E+01  0.10439101208E+02 -0.45151599902E+03  0.46867960062E+03  0.12509114092E+03 0.  0.
          5    1    3    3  502    0 -0.14703280381E+02 -0.52092510891E+02 -0.27293722237E+03  0.27828405613E+03  0.41800000000E+01 0. -1.
         -5    1    3    3    0  502  0.20794445849E+02  0.62531612098E+02 -0.17857877666E+03  0.19039554449E+03  0.41800000000E+01 0. -1.
        -11    1    1    2    0    0 -0.26101248044E+02 -0.41445235140E+02 -0.20204442004E+03  0.20789644137E+03  0.00000000000E+00 0.  1.
         11    1    1    2    0    0  0.20010082576E+02  0.31006133933E+02 -0.68043279037E+02  0.77405888460E+02  0.00000000000E+00 0. -1.
</event>
<event>
 7    1  0.2943257E-009  0.7768716E+02  0.7561462E-02  0.1335746E+00
         -1   -1    0    0    0  501 -0.00000000000E+00  0.00000000000E+00  0.38686508046E+02  0.38686508046E+02  0.00000000000E+00 0.  1.
          1   -1    0    0  501    0  0.00000000000E+00 -0.00000000000E+00 -0.29979397639E+03  0.29979397639E+03  0.00000000000E+00 0. -1.
         25    2    1    2    0    0  0.80676541697E+01  0.34899856865E+02 -0.16904676459E+03  0.21332295184E+03  0.12508711409E+03 0.  0.
          5    1    3    3  502    0  0.44999917138E+02 -0.12748590761E+01 -0.15222520772E+03  0.15879736797E+03  0.41800000000E+01 0.  1.
         -5    1    3    3    0  502 -0.36932262968E+02  0.36174715941E+02 -0.16821556870E+02  0.54525583875E+02  0.41800000000E+01 0.  1.
        -11    1    1    2    0    0 -0.26954898412E+02 -0.14944443545E+02 -0.18730982241E+01  0.30877361257E+02  0.00000000000E+00 0.  1.
         11    1    1    2    0    0  0.18887244242E+02 -0.19955413320E+02 -0.90187605529E+02  0.94280171334E+02  0.00000000000E+00 0. -1.
</event>
<event>
 7    1  0.2943257E-009  0.1274666E+03  0.7561462E-02  0.1231264E+00
         -4   -1    0    0    0  501 -0.00000000000E+00  0.00000000000E+00  0.99417153358E+02  0.99417153358E+02  0.00000000000E+00 0.  1.
          4   -1    0    0  501    0  0.00000000000E+00 -0.00000000000E+00 -0.18456297279E+03  0.18456297279E+03  0.00000000000E+00 0. -1.
         25    2    1    2    0    0  0.76722227101E+02 -0.22171713098E+02 -0.58571871327E+02  0.15953425987E+03  0.12507050399E+03 0.  0.
          5    1    3    3  502    0  0.36529931379E+01 -0.63536510049E+02 -0.18528075719E+02  0.66415317946E+02  0.41800000000E+01 0. -1.
         -5    1    3    3    0  502  0.73069233963E+02  0.41364796951E+02 -0.40043795608E+02  0.93118941926E+02  0.41800000000E+01 0. -1.
        -11    1    1    2    0    0 -0.36546890417E+02  0.47242859562E+02  0.14829236729E+02  0.61542418222E+02  0.00000000000E+00 0. -1.
         11    1    1    2    0    0 -0.40175336684E+02 -0.25071146463E+02 -0.41403184835E+02  0.62903448054E+02  0.00000000000E+00 0.  1.
</event>
<event>
 7    1  0.2943257E-009  0.9549333E+02  0.7561462E-02  0.1290069E+00
          2   -1    0    0  501    0  0.00000000000E+00  0.00000000000E+00  0.30966440338E+03  0.30966440338E+03  0.00000000000E+00 0. -1.
         -2   -1    0    0    0  501 -0.00000000000E+00 -0.00000000000E+00 -0.62782707056E+02  0.62782707056E+02  0.00000000000E+00 0.  1.
         25    2    1    2    0    0 -0.30550153117E+02 -0.67548988897E+02  0.69163909701E+02  0.16102086385E+03  0.12509154421E+03 0.  0.
          5    1    3    3  502    0 -0.18090179271E+01 -0.23327177798E+02  0.97948493765E+02  0.10079092023E+03  0.41800000000E+01 0.  1.
         -5    1    3    3    0  502 -0.28741135190E+02 -0.44221811098E+02 -0.28784584064E+02  0.60229943621E+02  0.41800000000E+01 0.  1.
        -11    1    1    2    0    0  0.53684810041E+02  0.13257655925E+02  0.79451025668E+02  0.96800256970E+02  0.00000000000E+00 0. -1.
         11    1    1    2    0    0 -0.23134656924E+02  0.54291332971E+02  0.98266760957E+02  0.11462598962E+03  0.00000000000E+00 0.  1.
</event>
<event>
 7    1  0.2943257E-009  0.9494003E+02  0.7561462E-02  0.1291311E+00
         -2   -1    0    0    0  501 -0.00000000000E+00  0.00000000000E+00  0.69092539719E+02  0.69092539719E+02  0.00000000000E+00 0.  1.
          2   -1    0    0  501    0  0.00000000000E+00 -0.00000000000E+00 -0.21307513542E+03  0.21307513542E+03  0.00000000000E+00 0. -1.
         25    2    1    2    0    0 -0.23673447845E+02  0.12871758123E+01 -0.13699418890E+03  0.18702161198E+03  0.12509031377E+03 0.  0.
          5    1    3    3  502    0 -0.57786641596E+02 -0.42162698281E+02 -0.71268316377E+02  0.10106252714E+03  0.41800000000E+01 0.  1.
         -5    1    3    3    0  502  0.34113193752E+02  0.43449874093E+02 -0.65725872527E+02  0.85959084838E+02  0.41800000000E+01 0.  1.
        -11    1    1    2    0    0  0.27394998241E+02  0.24511464909E+02 -0.39179921084E+02  0.53724892339E+02  0.00000000000E+00 0. -1.
         11    1    1    2    0    0 -0.37215503968E+01 -0.25798640721E+02  0.32191514285E+02  0.41421170823E+02  0.00000000000E+00 0.  1.
</event>
<event>
 7    1  0.2943257E-009  0.1785985E+03  0.7561462E-02  0.1169166E+00
         -2   -1    0    0    0  501 -0.00000000000E+00  0.00000000000E+00  0.44948827015E+03  0.44948827015E+03  0.00000000000E+00 0.  1.
          2   -1    0    0  501    0  0.00000000000E+00 -0.00000000000E+00 -0.10203362168E+03  0.10203362168E+03  0.00000000000E+00 0. -1.
         25    2    1    2    0    0 -0.73391864069E+02  0.15059021484E+03  0.27935476568E+03  0.34892719469E+03  0.12508926238E+03 0.  0.
          5    1    3    3  502    0 -0.71419253805E+02  0.10227754620E+03  0.91122160071E+02  0.15453843123E+03  0.41800000000E+01 0. -1.
         -5    1    3    3    0  502 -0.19726102637E+01  0.48312668642E+02  0.18823260561E+03  0.19438876345E+03  0.41800000000E+01 0. -1.
        -11    1    1    2    0    0  0.28655110328E+02 -0.20621645488E+01  0.32623883887E+02  0.43470514954E+02  0.00000000000E+00 0.  1.
         11    1    1    2    0    0  0.44736753741E+02 -0.14852805030E+03  0.35475998894E+02  0.15912418219E+03  0.00000000000E+00 0. -1.
</event>
<event>
 7    1  0.2943257E-009  0.9611160E+02  0.7561462E-02  0.1288692E+00
          2   -1    0    0  501    0  0.00000000000E+00  0.00000000000E+00  0.19359945689E+03  0.19359945689E+03  0.00000000000E+00 0. -1.
         -2   -1    0    0    0  501 -0.00000000000E+00 -0.00000000000E+00 -0.10281685738E+03  0.10281685738E+03  0.00000000000E+00 0.  1.
         25    2    1    2    0    0  0.18305450304E+02  0.27142896130E+02  0.13794254619E+03  0.18907104152E+03  0.12509151199E+03 0.  0.
          5    1    3    3  502    0 -0.33546079520E+02  0.34773450028E+02  0.83390866405E+01  0.49209196742E+02  0.41800000000E+01 0. -1.
         -5    1    3    3    0  502  0.51851529823E+02 -0.76305538975E+01  0.12960345955E+03  0.13986184478E+03  0.41800000000E+01 0. -1.
        -11    1    1    2    0    0  0.66155503719E+01  0.28988832411E+02 -0.32804272573E+02  0.44274577472E+02  0.00000000000E+00 0. -1.
         11    1    1    2    0    0 -0.24921000676E+02 -0.56131728541E+02 -0.14355674102E+02  0.63070695276E+02  0.00000000000E+00 0.  1.
</event>
<event>
 7    1  0.2943257E-009  0.1881585E+03  0.7561462E-02  0.1160133E+00
         -1   -1    0    0    0  501 -0.00000000000E+00  0.00000000000E+00  0.33251924419E+03  0.33251924419E+03  0.00000000000E+00 0.  1.
          1   -1    0    0  501    0  0.00000000000E+00 -0.00000000000E+00 -0.22721624087E+03  0.22721624087E+03  0.00000000000E+00 0. -1.
         25    2    1    2    0    0 -0.17972033813E+02  0.17619814302E+03  0.23650539449E+03  0.32086063521E+03  0.12509183027E+03 0.  0.
          5    1    3    3  502    0 -0.45090352489E+02  0.15777311868E+03  0.13012639905E+03  0.20946562724E+03  0.41800000000E+01 0. -1.
         -5    1    3    3    0  502  0.27118318676E+02  0.18425024344E+02  0.10637899544E+03  0.11139500797E+03  0.41800000000E+01 0. -1.
        -11    1    1    2    0    0  0.23926472766E+02 -0.10571431461E+03 -0.24936677080E+02  0.11121973870E+03  0.00000000000E+00 0.  1.
         11    1    1    2    0    0 -0.59544389532E+01 -0.70483828411E+02 -0.10626571409E+03  0.12765511115E+03  0.00000000000E+00 0. -1.
</event>
<event>
 7    1  0.2943257E-009  0.8176965E+02  0.7561462E-02  0.1324103E+00
          1   -1    0    0  501    0  0.00000000000E+00  0.00000000000E+00  0.76189150976E+03  0.76189150976E+03  0.00000000000E+00 0. -1.
         -1   -1    0    0    0  501 -0.00000000000E+00 -0.00000000000E+00 -0.29088798410E+02  0.29088798410E+02  0.00000000000E+00 0.  1.
         25    2    1    2    0    0  0.47021148684E+02 -0.13212018155E+02  0.62946775023E+03  0.64363212261E+03  0.12508842803E+03 0.  0.
          5    1    3    3  502    0 -0.20737618994E+02 -0.13901994729E+02  0.46519260958E+03  0.46588083316E+03  0.41800000000E+01 0. -1.
         -5    1    3    3    0  502  0.67758767678E+02  0.68997657336E+00  0.16427514065E+03  0.17775128945E+03  0.41800000000E+01 0. -1.
        -11    1    1    2    0    0 -0.15251900844E+02 -0.19485519608E+02 -0.88293066672E+01  0.26272849293E+02  0.00000000000E+00 0.  1.
         11    1    1    2    0    0 -0.31769247840E+02  0.32697537764E+02  0.11216426779E+03  0.12107533627E+03  0.00000000000E+00 0. -1.
</event>
<event>
 7    1  0.2943257E-009  0.1086061E+03  0.7561462E-02  0.1263173E+00
         -2   -1    0    0    0  501 -0.00000000000E+00  0.00000000000E+00  0.46336801532E+02  0.46336801532E+02  0.00000000000E+00 0.  1.
          2   -1    0    0  501    0  0.00000000000E+00 -0.00000000000E+00 -0.29055471103E+03  0.29055471103E+03  0.00000000000E+00 0. -1.
         25    2    1    2    0    0  0.29659576633E+02 -0.33763759588E+02 -0.14258753828E+03  0.19493151817E+03  0.12508960290E+03 0.  0.
          5    1    3    3  502    0 -0.13102280730E+02  0.42832092909E+02 -0.44613615978E+02  0.63356965473E+02  0.41800000000E+01 0.  1.
         -5    1    3    3    0  502  0.42761857363E+02 -0.76595852497E+02 -0.97973922303E+02  0.13157455269E+03  0.41800000000E+01 0.  1.
        -11    1    1    2    0    0  0.89655077022E+01  0.43626578991E+02 -0.90026310170E+02  0.10044100381E+03  0.00000000000E+00 0. -1.
         11    1    1    2    0    0 -0.38625084336E+02 -0.98628194030E+01 -0.11604061042E+02  0.41518990585E+02  0.00000000000E+00 0.  1.
</event>
<event>
 7    1  0.2943257E-009  0.1225362E+03  0.7561462E-02  0.1238971E+00
         -2   -1    0    0    0  501 -0.00000000000E+00  0.00000000000E+00  0.16516439788E+02  0.16516439788E+02  0.00000000000E+00 0. -1.
          2   -1    0    0  501    0  0.00000000000E+00 -0.00000000000E+00 -0.10113757180E+04  0.10113757180E+04  0.00000000000E+00 0.  1.
         25    2    1    2    0    0 -0.52512724911E+02 -0.26033626792E+02 -0.39757321716E+03  0.42088925519E+03  0.12509183079E+03 0.  0.
          5    1    3    3  502    0  0.28885972578E+02  0.26921052233E+02 -0.14235778605E+03  0.14779159013E+03  0.41800000000E+01 0. -1.
         -5    1    3    3    0  502 -0.81398697488E+02 -0.52954679024E+02 -0.25521543111E+03  0.27309766506E+03  0.41800000000E+01 0. -1.
        -11    1    1    2    0    0  0.21653331232E+02 -0.34206227086E+02 -0.22698681556E+03  0.23056874715E+03  0.00000000000E+00 0.  1.
         11    1    1    2    0    0  0.30859393678E+02  0.60239853878E+02 -0.37029924545E+03  0.37643415540E+03  0.00000000000E+00 0. -1.
</event>
<event>
 7    1  0.2943257E-009  0.8618917E+02  0.7561462E-02  0.1312352E+00
          1   -1    0    0  501    0  0.00000000000E+00  0.00000000000E+00  0.27518886637E+03  0.27518886637E+03  0.00000000000E+00 0. -1.
         -1   -1    0    0    0  501 -0.00000000000E+00 -0.00000000000E+00 -0.11754840398E+03  0.11754840398E+03  0.00000000000E+00 0.  1.
         25    2    1    2    0    0 -0.12326610562E+02 -0.84406401669E+02  0.20800582145E+03  0.25728108590E+03  0.12510295535E+03 0.  0.
          5    1    3    3  502    0 -0.15142194524E+02 -0.61632287170E+02  0.22141998235E+03  0.23037383935E+03  0.41800000000E+01 0.  1.
         -5    1    3    3    0  502  0.28155839626E+01 -0.22774114499E+02 -0.13414160898E+02  0.26907246549E+02  0.41800000000E+01 0.  1.
        -11    1    1    2    0    0  0.18752627575E+01  0.29422260565E+02 -0.70150130006E+02  0.76093539588E+02  0.00000000000E+00 0.  1.
         11    1    1    2    0    0  0.10451347804E+02  0.54984141104E+02  0.19784770948E+02  0.59362644865E+02  0.00000000000E+00 0. -1.
</event>
<event>
 7    1  0.2943257E-009  0.1375754E+03  0.7561462E-02  0.1216629E+00
          2   -1    0    0  501    0  0.00000000000E+00  0.00000000000E+00  0.45880312680E+03  0.45880312680E+03  0.00000000000E+00 0. -1.
         -2   -1    0    0    0  501 -0.00000000000E+00 -0.00000000000E+00 -0.49453184021E+02  0.49453184021E+02  0.00000000000E+00 0.  1.
         25    2    1    2    0    0 -0.97527141913E+02  0.36412454904E+02  0.24589758140E+03  0.29487462988E+03  0.12509203223E+03 0.  0.
          5    1    3    3  502    0 -0.54060692537E+01 -0.40989255069E+02  0.50951649309E+02  0.65748669821E+02  0.41800000000E+01 0. -1.
         -5    1    3    3    0  502 -0.92121072659E+02  0.77401709973E+02  0.19494593210E+03  0.22912596006E+03  0.41800000000E+01 0. -1.
        -11    1    1    2    0    0  0.36953314867E+02 -0.37459055338E+02  0.17660408543E+02  0.55503318246E+02  0.00000000000E+00 0.  1.
         11    1    1    2    0    0  0.60573827047E+02  0.10466004338E+01  0.14579195283E+03  0.15787836269E+03  0.00000000000E+00 0. -1.
</event>
<event>
 7    1  0.2943257E-009  0.1086344E+03  0.7561462E-02  0.1263120E+00
         -3   -1    0    0    0  501 -0.00000000000E+00  0.00000000000E+00  0.59989009543E+03  0.59989009543E+03  0.00000000000E+00 0.  1.
          3   -1    0    0  501    0  0.00000000000E+00 -0.00000000000E+00 -0.24987573548E+02  0.24987573548E+02  0.00000000000E+00 0. -1.
         25    2    1    2    0    0  0.97033009893E+01  0.46813414708E+02  0.26188501262E+03  0.29413685941E+03  0.12508829834E+03 0.  0.
          5    1    3    3  502    0 -0.45187559335E+02  0.18675715571E+02  0.38554172827E+02  0.62406686445E+02  0.41800000000E+01 0.  1.
         -5    1    3    3    0  502  0.54890860324E+02  0.28137699137E+02  0.22333083980E+03  0.23173017297E+03  0.41800000000E+01 0.  1.
        -11    1    1    2    0    0 -0.51845930167E+02 -0.35173109177E+02  0.16931205223E+03  0.18053176760E+03  0.00000000000E+00 0. -1.
         11    1    1    2    0    0  0.42142629177E+02 -0.11640305531E+02  0.14370545703E+03  0.15020904196E+03  0.00000000000E+00 0.  1.
</event>
<event>
 7    1  0.2943257E-009  0.2177030E+03  0.7561462E-02  0.1135607E+00
         -2   -1    0    0    0  501 -0.00000000000E+00  0.00000000000E+00  0.42070270198E+02  0.42070270198E+02  0.00000000000E+00 0.  1.
          2   -1    0    0  501    0  0.00000000000E+00 -0.00000000000E+00 -0.13077990170E+04  0.13077990170E+04  0.00000000000E+00 0. -1.
         25    2    1    2    0    0  0.13936689936E+03 -0.15353821585E+03 -0.62426206552E+03  0.66958718158E+03  0.12508697344E+03 0.  0.
          5    1    3    3  502    0  0.55965495659E+02 -0.79531865067E+02 -0.46530315669E+03  0.47537559286E+03  0.41800000000E+01 0. -1.
         -5    1    3    3    0  502  0.83401403699E+02 -0.74006350779E+02 -0.15895890883E+03  0.19421158872E+03  0.41800000000E+01 0. -1.
        -11    1    1    2    0    0 -0.80653200789E+02  0.23816846838E+02 -0.24234596002E+03  0.25652240707E+03  0.00000000000E+00 0.  1.
         11    1    1    2    0    0 -0.58713698569E+02  0.12972136901E+03 -0.39912072129E+03  0.42375969858E+03  0.00000000000E+00 0. -1.
</event>
<event>
 7    1  0.2943257E-009  0.1115321E+03  0.7561462E-02  0.1257759E+00
         -1   -1    0    0    0  501 -0.00000000000E+00  0.00000000000E+00  0.81419023112E+02  0.81419023112E+02  0.00000000000E+00 0.  1.
          1   -1    0    0  501    0  0.00000000000E+00 -0.00000000000E+00 -0.25773995641E+03  0.25773995641E+03  0.00000000000E+00 0. -1.
         25    2    1    2    0    0 -0.15945691190E+02 -0.35091607672E+02 -0.19736656697E+03  0.23682684581E+03  0.12509079559E+03 0.  0.
          5    1    3    3  502    0 -0.34930698118E+02  0.40005881545E+02 -0.77219155994E+02  0.93813083744E+02  0.41800000000E+01 0. -1.
         -5    1    3    3    0  502  0.18985006928E+02 -0.75097489217E+02 -0.12014741098E+03  0.14301376206E+03  0.41800000000E+01 0. -1.
        -11    1    1    2    0    0  0.41146385124E+02 -0.83598846080E+01 -0.10158334644E+02  0.43198431015E+02  0.00000000000E+00 0. -1.
         11    1    1    2    0    0 -0.25200693935E+02  0.43451492280E+02  0.31203968317E+02  0.59133702699E+02  0.00000000000E+00 0.  1.
</event>
<event>
 7    1  0.2943257E-009  0.8378071E+02  0.7561462E-02  0.1318652E+00
         -1   -1    0    0    0  501 -0.00000000000E+00  0.00000000000E+00  0.52094299314E+02  0.52094299314E+02  0.00000000000E+00 0.  1.
          1   -1    0    0  501    0  0.00000000000E+00 -0.00000000000E+00 -0.24043238199E+03  0.24043238199E+03  0.00000000000E+00 0. -1.
         25    2    1    2    0    0 -0.89660737657E+01 -0.25686592427E+02 -0.12805354631E+03  0.18107613720E+03  0.12510261880E+03 0.  0.
          5    1    3    3  502    0  0.10134224174E+02 -0.47810473980E+02  0.62352330547E+00  0.49055123108E+02  0.41800000000E+01 0. -1.
         -5    1    3    3    0  502 -0.19100297940E+02  0.22123881553E+02 -0.12867706962E+03  0.13202101409E+03  0.41800000000E+01 0. -1.
        -11    1    1    2    0    0 -0.45037460270E+01 -0.30691313005E+02 -0.38699618078E+02  0.49597387649E+02  0.00000000000E+00 0. -1.
         11    1    1    2    0    0  0.13469819793E+02  0.56377905432E+02 -0.21584918287E+02  0.61853156456E+02  0.00000000000E+00 0.  1.
</event>
<event>
 7    1  0.2943257E-009  0.9793235E+02  0.7561462E-02  0.1284705E+00
          1   -1    0    0  501    0  0.00000000000E+00  0.00000000000E+00  0.56237907916E+03  0.56237907916E+03  0.00000000000E+00 0.  1.
         -1   -1    0    0    0  501 -0.00000000000E+00 -0.00000000000E+00 -0.20996511982E+02  0.20996511982E+02  0.00000000000E+00 0. -1.
         25    2    1    2    0    0  0.66527188404E+02  0.46014972261E+01  0.42182615241E+03  0.44501092234E+03  0.12510146908E+03 0.  0.
          5    1    3    3  502    0  0.20749114269E+02 -0.50572030274E+02  0.28762637678E+03  0.29280447573E+03  0.41800000000E+01 0.  1.
         -5    1    3    3    0  502  0.45778074136E+02  0.55173527500E+02  0.13419977563E+03  0.15220644661E+03  0.41800000000E+01 0.  1.
        -11    1    1    2    0    0 -0.35802791198E+02 -0.11752889313E+02  0.72581275641E+02  0.81780265581E+02  0.00000000000E+00 0.  1.
         11    1    1    2    0    0 -0.30724397206E+02  0.71513920872E+01  0.46975139127E+02  0.56584403226E+02  0.00000000000E+00 0. -1.
</event>
<event>
 7    1  0.2943257E-009  0.1484891E+03  0.7561462E-02  0.1202342E+00
          1   -1    0    0  501    0  0.00000000000E+00  0.00000000000E+00  0.16598542169E+03  0.16598542169E+03  0.00000000000E+00 0. -1.
         -1   -1    0    0    0  501 -0.00000000000E+00 -0.00000000000E+00 -0.15738404426E+03  0.15738404426E+03  0.00000000000E+00 0.  1.
         25    2    1    2    0    0  0.60878192147E+02  0.99539347668E+02  0.28236971382E+02  0.17337055127E+03  0.12508311430E+03 0.  0.
          5    1    3    3  502    0  0.93854764698E+02  0.98808323628E+02  0.13522101675E+02  0.13701139116E+03  0.41800000000E+01 0. -1.
         -5    1    3    3    0  502 -0.32976572551E+02  0.73102403965E+00  0.14714869707E+02  0.36359160109E+02  0.41800000000E+01 0. -1.
        -11    1    1    2    0    0 -0.70103275306E+02 -0.90454057853E+02  0.12724374052E+02  0.11514475883E+03  0.00000000000E+00 0. -1.
         11    1    1    2    0    0  0.92250831589E+01 -0.90852898152E+01 -0.32359968005E+02  0.34854155844E+02  0.00000000000E+00 0.  1.
</event>
<event>
 6    1  0.2943257E-009  0.1890714E+03  0.7561462E-02  0.1159302E+00
         -2   -1    0    0    0  501 -0.00000000000E+00  0.00000000000E+00  0.23664734746E+03  0.23664734746E+03  0.00000000000E+00 0.  1.
          2   -1    0    0  501    0  0.00000000000E+00 -0.00000000000E+00 -0.19391189676E+03  0.19391189676E+03  0.00000000000E+00 0. -1.
          5    1    1    2  502    0  0.57811783696E+02  0.46707706166E+02 -0.36132550695E+02  0.82745669187E+02  0.41800000000E+01 0.  1.
         -5    1    1    2    0  502  0.10926378417E+03  0.24205479700E+02  0.90924454921E+02  0.14425397285E+03  0.41800000000E+01 0.  1.
        -11    1    1    2    0    0 -0.14257149448E+03 -0.32629339384E+02  0.20446404679E+02  0.14767992514E+03  0.00000000000E+00 0.  1.
         11    1    1    2    0    0 -0.24504073390E+02 -0.38283846482E+02 -0.32502858206E+02  0.55879677037E+02  0.00000000000E+00 0. -1.
</event>
<event>
 7    1  0.2943257E-009  0.1216334E+03  0.7561462E-02  0.1240427E+00
          2   -1    0    0  501    0  0.00000000000E+00  0.00000000000E+00  0.32197168329E+03  0.32197168329E+03  0.00000000000E+00 0. -1.
         -2   -1    0    0    0  501 -0.00000000000E+00 -0.00000000000E+00 -0.66784748199E+02  0.66784748199E+02  0.00000000000E+00 0.  1.
         25    2    1    2    0    0 -0.63443346987E+02 -0.51334496342E+02  0.21094281399E+03  0.25846428193E+03  0.12508647197E+03 0.  0.
          5    1    3    3  502    0 -0.27118380997E+02  0.26754786322E+02  0.14481623893E+03  0.14980133724E+03  0.41800000000E+01 0. -1.
         -5    1    3    3    0  502 -0.36324965990E+02 -0.78089282664E+02  0.66126575055E+02  0.10866294469E+03  0.41800000000E+01 0. -1.
        -11    1    1    2    0    0  0.23409896708E+02 -0.23924767337E+02  0.27720677915E+02  0.43460944997E+02  0.00000000000E+00 0. -1.
         11    1    1    2    0    0  0.40033450279E+02  0.75259263679E+02  0.16523443187E+02  0.86831204561E+02  0.00000000000E+00 0.  1.
</event>
<event>
 7    1  0.2943257E-009  0.1031619E+03  0.7561462E-02  0.1273784E+00
         -1   -1    0    0    0  501 -0.00000000000E+00  0.00000000000E+00  0.18864649929E+03  0.18864649929E+03  0.00000000000E+00 0.  1.
          1   -1    0    0  501    0  0.00000000000E+00 -0.00000000000E+00 -0.88681016320E+02  0.88681016320E+02  0.00000000000E+00 0. -1.
         25    2    1    2    0    0  0.21928450828E+02  0.28431531033E+02  0.11957351024E+03  0.17673765761E+03  0.12509662807E+03 0.  0.
          5    1    3    3  502    0  0.53747643403E+01  0.77654205019E+02  0.68332125029E+02  0.10366202468E+03  0.41800000000E+01 0.  1.
         -5    1    3    3    0  502  0.16553686487E+02 -0.49222673986E+02  0.51241385209E+02  0.73075632935E+02  0.41800000000E+01 0.  1.
        -11    1    1    2    0    0  0.23101257740E+02 -0.15795981383E+00 -0.37879069220E+02  0.44367972069E+02  0.00000000000E+00 0. -1.
         11    1    1    2    0    0 -0.45029708568E+02 -0.28273571219E+02  0.18271041947E+02  0.56221885926E+02  0.00000000000E+00 0.  1.
</event>
<event>
 7    1  0.2943257E-009  0.2336978E+03  0.7561462E-02  0.1124064E+00
          2   -1    0    0  501    0  0.00000000000E+00  0.00000000000E+00  0.60235650194E+03  0.60235650194E+03  0.00000000000E+00 0. -1.
         -2   -1    0    0    0  501 -0.00000000000E+00 -0.00000000000E+00 -0.11100341857E+03  0.11100341857E+03  0.00000000000E+00 0.  1.
         25    2    1    2    0    0  0.91862040834E+02 -0.20939912189E+03  0.32321808782E+03  0.41519985333E+03  0.12503743089E+03 0.  0.
          5    1    3    3  502    0  0.12508352559E+02 -0.11276135085E+03  0.23838197133E+03  0.26403601608E+03  0.41800000000E+01 0. -1.
         -5    1    3    3    0  502  0.79353688275E+02 -0.96637771039E+02  0.84836116482E+02  0.15116383726E+03  0.41800000000E+01 0. -1.
        -11    1    1    2    0    0 -0.19738665561E+02  0.51822036133E+02  0.95128215881E+02  0.11011137908E+03  0.00000000000E+00 0. -1.
         11    1    1    2    0    0 -0.72123375273E+02  0.15757708575E+03  0.73006779666E+02  0.18804868809E+03  0.00000000000E+00 0.  1.
</event>
<event>
 7    1  0.2943257E-009  0.1273369E+03  0.7561462E-02  0.1231462E+00
          2   -1    0    0  501    0  0.00000000000E+00  0.00000000000E+00  0.24524993191E+03  0.24524993191E+03  0.00000000000E+00 0. -1.
         -2   -1    0    0    0  501 -0.00000000000E+00 -0.00000000000E+00 -0.10123530906E+03  0.10123530906E+03  0.00000000000E+00 0.  1.
         25    2    1    2    0    0  0.57259726232E+02 -0.60681391528E+02  0.16337649396E+03  0.22203042206E+03  0.12507886318E+03 0.  0.
          5    1    3    3  502    0  0.93961959717E+02 -0.38666095329E+02  0.84604001006E+02  0.13228464079E+03  0.41800000000E+01 0.  1.
         -5    1    3    3    0  502 -0.36702233485E+02 -0.22015296200E+02  0.78772492953E+02  0.89745781269E+02  0.41800000000E+01 0.  1.
        -11    1    1    2    0    0 -0.39720695840E+00  0.52534079128E+02 -0.37123380314E+02  0.64328318874E+02  0.00000000000E+00 0.  1.
         11    1    1    2    0    0 -0.56862519273E+02  0.81473124002E+01  0.17761509202E+02  0.60126500036E+02  0.00000000000E+00 0. -1.
</event>
<event>
 7    1  0.3023487E-009  0.2717584E+03  0.7561462E-02  0.1100277E+00
         -2   -1    0    0    0  501 -0.00000000000E+00  0.00000000000E+00  0.10919564177E+03  0.10919564177E+03  0.00000000000E+00 0.  1.
          2   -1    0    0  501    0  0.00000000000E+00 -0.00000000000E+00 -0.77839394492E+03  0.77839394492E+03  0.00000000000E+00 0. -1.
         25    2    1    2    0    0  0.23295344225E+03 -0.12696561326E+03 -0.26339246153E+03  0.39422171871E+03  0.12509037335E+03 0.  0.
          5    1    3    3  502    0  0.19132337374E+03 -0.68797603714E+02 -0.12589656845E+03  0.23917600625E+03  0.41800000000E+01 0.  1.
         -5    1    3    3    0  502  0.41630068504E+02 -0.58168009543E+02 -0.13749589308E+03  0.15504571246E+03  0.41800000000E+01 0.  1.
        -11    1    1    2    0    0 -0.14073221512E+03  0.53351328756E+02 -0.29654473922E+03  0.33255180501E+03  0.00000000000E+00 0. -1.
         11    1    1    2    0    0 -0.92221227122E+02  0.73614284502E+02 -0.10926110240E+03  0.16081606298E+03  0.00000000000E+00 0.  1.
</event>
<event>
 7    1  0.2943257E-009  0.1054676E+03  0.7561462E-02  0.1269201E+00
          1   -1    0    0  501    0  0.00000000000E+00  0.00000000000E+00  0.24863993393E+03  0.24863993393E+03  0.00000000000E+00 0. -1.
         -1   -1    0    0    0  501 -0.00000000000E+00 -0.00000000000E+00 -0.85571252304E+02  0.85571252304E+02  0.00000000000E+00 0.  1.
         25    2    1    2    0    0  0.40857367709E+02 -0.22815821766E+02  0.18754728883E+03  0.23024127022E+03  0.12508865154E+03 0.  0.
          5    1    3    3  502    0  0.79656938466E+02 -0.22671782576E+02  0.77590984133E+02  0.11356527105E+03  0.41800000000E+01 0.  1.
         -5    1    3    3    0  502 -0.38799570758E+02 -0.14403919063E+00  0.10995630470E+03  0.11667599916E+03  0.41800000000E+01 0.  1.
        -11    1    1    2    0    0 -0.30715133215E+02 -0.25311464219E+02 -0.35762886191E+02  0.53507697185E+02  0.00000000000E+00 0.  1.
         11    1    1    2    0    0 -0.10142234494E+02  0.48127285985E+02  0.11284278983E+02  0.50462218827E+02  0.00000000000E+00 0. -1.
</event>
<event>
 7    1  0.3188712E-009  0.2701047E+03  0.7561462E-02  0.1101220E+00
         -1   -1    0    0    0  501 -0.00000000000E+00  0.00000000000E+00  0.63136129252E+02  0.63136129252E+02  0.00000000000E+00 0.  1.
          1   -1    0    0  501    0  0.00000000000E+00 -0.00000000000E+00 -0.12083816179E+04  0.12083816179E+04  0.00000000000E+00 0. -1.
         25    2    1    2    0    0  0.25030295741E+03 -0.66800253219E+01 -0.68065136684E+03  0.73595381554E+03  0.12508214181E+03 0.  0.
          5    1    3    3  502    0  0.48716444765E+02 -0.52394373249E+02 -0.21008611920E+03  0.22197322410E+03  0.41800000000E+01 0.  1.
         -5    1    3    3    0  502  0.20158651264E+03  0.45714347927E+02 -0.47056524764E+03  0.51398059143E+03  0.41800000000E+01 0.  1.
        -11    1    1    2    0    0 -0.15758357162E+03 -0.32902363359E+02 -0.33224674122E+03  0.36919242220E+03  0.00000000000E+00 0. -1.
         11    1    1    2    0    0 -0.92719385792E+02  0.39582388681E+02 -0.13234738058E+03  0.16637150941E+03  0.00000000000E+00 0.  1.
</event>
<event>
 7    1  0.3679595E-009  0.1451690E+03  0.7561462E-02  0.1206538E+00
          1   -1    0    0  501    0  0.00000000000E+00  0.00000000000E+00  0.18340271522E+04  0.18340271522E+04  0.00000000000E+00 0. -1.
         -1   -1    0    0    0  501 -0.00000000000E+00 -0.00000000000E+00 -0.18814003485E+02  0.18814003485E+02  0.00000000000E+00 0.  1.
         25    2    1    2    0    0 -0.21686727424E+02 -0.12658234352E+03  0.13465503918E+04  0.13584325813E+04  0.12509083260E+03 0.  0.
          5    1    3    3  502    0  0.25380136172E+02 -0.98774454920E+02  0.51150999524E+03  0.52159418314E+03  0.41800000000E+01 0.  1.
         -5    1    3    3    0  502 -0.47066863596E+02 -0.27807888595E+02  0.83504039661E+03  0.83683839819E+03  0.41800000000E+01 0.  1.
        -11    1    1    2    0    0  0.16464738796E+02  0.16755986076E+02  0.15610354852E+02  0.28205210008E+02  0.00000000000E+00 0.  1.
         11    1    1    2    0    0  0.52219886275E+01  0.10982635744E+03  0.45305240197E+03  0.46620336430E+03  0.00000000000E+00 0. -1.
</event>
<event>
 7    1  0.2943257E-009  0.6013949E+02  0.7561462E-02  0.1397247E+00
         -3   -1    0    0    0  501 -0.00000000000E+00  0.00000000000E+00  0.65989730546E+03  0.65989730546E+03  0.00000000000E+00 0.  1.
          3   -1    0    0  501    0  0.00000000000E+00 -0.00000000000E+00 -0.24766776368E+02  0.24766776368E+02  0.00000000000E+00 0. -1.
         25    2    1    2    0    0 -0.27290423614E+02  0.35738960744E+02  0.48439561347E+03  0.50230175298E+03  0.12508357271E+03 0.  0.
          5    1    3    3  502    0 -0.18676744176E+02  0.89088531720E+01  0.46983500048E+03  0.47030903511E+03  0.41800000000E+01 0.  1.
         -5    1    3    3    0  502 -0.86136794382E+01  0.26830107572E+02  0.14560612995E+02  0.31992717868E+02  0.41800000000E+01 0.  1.
        -11    1    1    2    0    0 -0.86712275396E+01 -0.33550448737E+02  0.14078276336E+03  0.14498485872E+03  0.00000000000E+00 0.  1.
         11    1    1    2    0    0  0.35961651154E+02 -0.21885120076E+01  0.99521522576E+01  0.37377470126E+02  0.00000000000E+00 0. -1.
</event>
<event>
 7    1  0.2943257E-009  0.2541970E+03  0.7561462E-02  0.1110681E+00
         -2   -1    0    0    0  501 -0.00000000000E+00  0.00000000000E+00  0.19593575005E+03  0.19593575005E+03  0.00000000000E+00 0.  1.
          2   -1    0    0  501    0  0.00000000000E+00 -0.00000000000E+00 -0.56201971430E+03  0.56201971430E+03  0.00000000000E+00 0. -1.
         25    2    1    2    0    0  0.19759373105E+03 -0.12416366444E+03  0.52892158576E+02  0.27000977305E+03  0.12509116271E+03 0.  0.
          5    1    3    3  502    0  0.20869176896E+03 -0.13076167898E+03  0.36936933387E+02  0.24906360748E+03  0.41800000000E+01 0.  1.
         -5    1    3    3    0  502 -0.11098037914E+02  0.65980145421E+01  0.15955225189E+02  0.20946165574E+02  0.41800000000E+01 0.  1.
        -11    1    1    2    0    0 -0.12002568391E+03  0.24975830271E+02 -0.17929049826E+03  0.21719815759E+03  0.00000000000E+00 0.  1.
         11    1    1    2    0    0 -0.77568047139E+02  0.99187834168E+02 -0.23968562457E+03  0.27074753371E+03  0.00000000000E+00 0. -1.
</event>
<event>
 7    1  0.2943257E-009  0.1732857E+03  0.7561462E-02  0.1174464E+00
          2   -1    0    0  501    0  0.00000000000E+00  0.00000000000E+00  0.44881605453E+02  0.44881605453E+02  0.00000000000E+00 0. -1.
         -2   -1    0    0    0  501 -0.00000000000E+00 -0.00000000000E+00 -0.75016779124E+03  0.75016779124E+03  0.00000000000E+00 0.  1.
         25    2    1    2    0    0 -0.11505440329E+03 -0.85728864886E+02 -0.29662292109E+03  0.35244898590E+03  0.12509267106E+03 0.  0.
          5    1    3    3  502    0 -0.45661060128E+01 -0.74354100690E+02 -0.82766872276E+02  0.11143253187E+03  0.41800000000E+01 0. -1.
         -5    1    3    3    0  502 -0.11048829728E+03 -0.11374764197E+02 -0.21385604881E+03  0.24101645402E+03  0.41800000000E+01 0. -1.
        -11    1    1    2    0    0  0.94043811480E+02  0.26116885865E+02 -0.17326897477E+03  0.19886796580E+03  0.00000000000E+00 0.  1.
         11    1    1    2    0    0  0.21010591812E+02  0.59611979022E+02 -0.23539428993E+03  0.24373244499E+03  0.00000000000E+00 0. -1.
</event>
<event>
 7    1  0.2943257E-009  0.1400472E+03  0.7561462E-02  0.1213266E+00
          1   -1    0    0  501    0  0.00000000000E+00  0.00000000000E+00  0.14989662361E+03  0.14989662361E+03  0.00000000000E+00 0. -1.
         -1   -1    0    0    0  501 -0.00000000000E+00 -0.00000000000E+00 -0.15852124910E+03  0.15852124910E+03  0.00000000000E+00 0.  1.
         25    2    1    2    0    0  0.65347041756E+02 -0.85645499510E+02 -0.12457482145E+02  0.16555676165E+03  0.12509382484E+03 0.  0.
          5    1    3    3  502    0  0.72687279181E+02 -0.20956483302E+02 -0.49533774806E+02  0.90518959305E+02  0.41800000000E+01 0.  1.
         -5    1    3    3    0  502 -0.73402374245E+01 -0.64689016208E+02  0.37076292661E+02  0.75037802346E+02  0.41800000000E+01 0.  1.
        -11    1    1    2    0    0 -0.38650833043E+02  0.10110671378E+03 -0.10679111685E+02  0.10876809225E+03  0.00000000000E+00 0.  1.
         11    1    1    2    0    0 -0.26696208713E+02 -0.15461214267E+02  0.14511968338E+02  0.34093018806E+02  0.00000000000E+00 0. -1.
</event>
<event>
 7    1  0.2943257E-009  0.1228441E+03  0.7561462E-02  0.1238478E+00
          2   -1    0    0  501    0  0.00000000000E+00  0.00000000000E+00  0.71167222540E+03  0.71167222540E+03  0.00000000000E+00 0.  1.
         -2   -1    0    0    0  501 -0.00000000000E+00 -0.00000000000E+00 -0.21365245664E+02  0.21365245664E+02  0.00000000000E+00 0. -1.
         25    2    1    2    0    0 -0.55392167036E+02 -0.15727384346E+02  0.41345859044E+03  0.43578741827E+03  0.12508806947E+03 0.  0.
          5    1    3    3  502    0 -0.86303099033E+02 -0.42636802314E+02  0.29899889114E+03  0.31413998650E+03  0.41800000000E+01 0.  1.
         -5    1    3    3    0  502  0.30910931997E+02  0.26909417967E+02  0.11445969930E+03  0.12164743177E+03  0.41800000000E+01 0.  1.
        -11    1    1    2    0    0  0.79447012132E+02  0.83915450149E-01  0.19813705224E+03  0.21347160525E+03  0.00000000000E+00 0.  1.
         11    1    1    2    0    0 -0.24054845097E+02  0.15643468896E+02  0.78711337056E+02  0.83778447544E+02  0.00000000000E+00 0. -1.
</event>
<event>
 7    1  0.2943257E-009  0.1302991E+03  0.7561462E-02  0.1227013E+00
         -2   -1    0    0    0  501 -0.00000000000E+00  0.00000000000E+00  0.39120409658E+02  0.39120409658E+02  0.00000000000E+00 0.  1.
          2   -1    0    0  501    0  0.00000000000E+00 -0.00000000000E+00 -0.92761420772E+03  0.92761420772E+03  0.00000000000E+00 0. -1.
         25    2    1    2    0    0  0.10496759866E+03 -0.33138339072E-01 -0.17286398436E+03  0.23779659325E+03  0.12508822809E+03 0.  0.
          5    1    3    3  502    0  0.31366712794E+02  0.29795081322E+02 -0.14833908656E+03  0.15457546553E+03  0.41800000000E+01 0. -1.
         -5    1    3    3    0  502  0.73600885862E+02 -0.29828219661E+02 -0.24524897806E+02  0.83221127727E+02  0.41800000000E+01 0. -1.
        -11    1    1    2    0    0 -0.70675581732E+02 -0.42888553617E+02 -0.38510976197E+03  0.39388322464E+03  0.00000000000E+00 0.  1.
         11    1    1    2    0    0 -0.34292016924E+02  0.42921691956E+02 -0.33052005173E+03  0.33505479948E+03  0.00000000000E+00 0. -1.
</event>
<event>
 7    1  0.2943257E-009  0.1201014E+03  0.7561462E-02  0.1242930E+00
          2   -1    0    0  501    0  0.00000000000E+00  0.00000000000E+00  0.38338704940E+03  0.38338704940E+03  0.00000000000E+00 0. -1.
         -2   -1    0    0    0  501 -0.00000000000E+00 -0.00000000000E+00 -0.45473118258E+02  0.45473118258E+02  0.00000000000E+00 0.  1.
         25    2    1    2    0    0  0.99275210232E+01 -0.65252575549E+02  0.12386539933E+03  0.18800569552E+03  0.12508816934E+03 0.  0.
          5    1    3    3  502    0  0.60417359314E+02 -0.45295961226E+02  0.10694945510E+03  0.13098717401E+03  0.41800000000E+01 0. -1.
         -5    1    3    3    0  502 -0.50489838291E+02 -0.19956614324E+02  0.16915944231E+02  0.57018521510E+02  0.41800000000E+01 0. -1.
        -11    1    1    2    0    0 -0.63145126991E+01  0.87428321184E+02  0.17722281004E+03  0.19771572728E+03  0.00000000000E+00 0. -1.
         11    1    1    2    0    0 -0.36130083242E+01 -0.22175745634E+02  0.36825721769E+02  0.43138744852E+02  0.00000000000E+00 0.  1.
</event>
<event>
 7    1  0.2943257E-009  0.1065235E+03  0.7561462E-02  0.1267147E+00
          2   -1    0    0  501    0  0.00000000000E+00  0.00000000000E+00  0.38269543212E+03  0.38269543212E+03  0.00000000000E+00 0. -1.
         -2   -1    0    0    0  501 -0.00000000000E+00 -0.00000000000E+00 -0.39356009884E+02  0.39356009884E+02  0.00000000000E+00 0.  1.
         25    2    1    2    0    0 -0.36809931075E+02 -0.46081298892E+02  0.19660525721E+03  0.24037638341E+03  0.12509484963E+03 0.  0.
          5    1    3    3  502    0 -0.69396543876E+02 -0.40349343929E+02  0.61486642800E+02  0.10120291251E+03  0.41800000000E+01 0. -1.
         -5    1    3    3    0  502  0.32586612801E+02 -0.57319549626E+01  0.13511861441E+03  0.13917347090E+03  0.41800000000E+01 0. -1.
        -11    1    1    2    0    0 -0.23475528105E+02  0.68731285337E-01  0.10419433956E+02  0.25684036827E+02  0.00000000000E+00 0.  1.
         11    1    1    2    0    0  0.60285459180E+02  0.46012567606E+02  0.13631473107E+03  0.15599102177E+03  0.00000000000E+00 0. -1.
</event>
<event>
 7    1  0.3078072E-009  0.1008813E+03  0.7561462E-02  0.1278454E+00
         -2   -1    0    0    0  501 -0.00000000000E+00  0.00000000000E+00  0.39902057375E+02  0.39902057375E+02  0.00000000000E+00 0.  1.
          2   -1    0    0  501    0  0.00000000000E+00 -0.00000000000E+00 -0.33707801911E+03  0.33707801911E+03  0.00000000000E+00 0. -1.
         25    2    1    2    0    0 -0.88107739689E+01 -0.24978902584E+02 -0.11867177450E+03  0.17444827495E+03  0.12509050826E+03 0.  0.
          5    1    3    3  502    0  0.42315823885E+02 -0.33483317032E+02 -0.10880551742E+03  0.12152314385E+03  0.41800000000E+01 0.  1.
         -5    1    3    3    0  502 -0.51126597854E+02  0.85044144480E+01 -0.98662570803E+01  0.52925131100E+02  0.41800000000E+01 0.  1.
        -11    1    1    2    0    0  0.49891520810E+02  0.21778239763E+02 -0.98657362386E+02  0.11267977072E+03  0.00000000000E+00 0.  1.
         11    1    1    2    0    0 -0.41080746841E+02  0.32006628214E+01 -0.79846824858E+02  0.89852030825E+02  0.00000000000E+00 0. -1.
</event>
<event>
 7    1  0.2943257E-009  0.1056988E+03  0.7561462E-02  0.1268749E+00
          2   -1    0    0  501    0  0.00000000000E+00  0.00000000000E+00  0.44168371281E+02  0.44168371281E+02  0.00000000000E+00 0. -1.
         -2   -1    0    0    0  501 -0.00000000000E+00 -0.00000000000E+00 -0.30583873236E+03  0.30583873236E+03  0.00000000000E+00 0.  1.
         25    2    1    2    0    0 -0.43770549708E+02  0.27407699804E+01 -0.14102986264E+03  0.19355476580E+03  0.12510256739E+03 0.  0.
          5    1    3    3  502    0 -0.55929518435E+02 -0.51227655802E+02 -0.68866104275E+02  0.10252997839E+03  0.41800000000E+01 0. -1.
         -5    1    3    3    0  502  0.12158968728E+02  0.53968425782E+02 -0.72163758364E+02  0.91024787410E+02  0.41800000000E+01 0. -1.
        -11    1    1    2    0    0  0.36944166371E+02 -0.32635806446E+02 -0.23543767610E+02  0.54628529950E+02  0.00000000000E+00 0. -1.
         11    1    1    2    0    0  0.68263833371E+01  0.29895036466E+02 -0.97096730830E+02  0.10182380789E+03  0.00000000000E+00 0.  1.
</event>
<event>
 7    1  0.2943257E-009  0.1743085E+03  0.7561462E-02  0.1173428E+00
         -2   -1    0    0    0  501 -0.00000000000E+00  0.00000000000E+00  0.21634102456E+02  0.21634102456E+02  0.00000000000E+00 0.  1.
          2   -1    0    0  501    0  0.00000000000E+00 -0.00000000000E+00 -0.16857687272E+04  0.16857687272E+04  0.00000000000E+00 0. -1.
         25    2    1    2    0    0  0.79373882880E+01  0.13735505930E+03 -0.12045487682E+04  0.12188171981E+04  0.12509281815E+03 0.  0.
          5    1    3    3  502    0 -0.13663848879E+02  0.15514029498E+03 -0.10737374573E+04  0.10849814798E+04  0.41800000000E+01 0. -1.
         -5    1    3    3    0  502  0.21601237167E+02 -0.17785235672E+02 -0.13081131082E+03  0.13383571830E+03  0.41800000000E+01 0. -1.
        -11    1    1    2    0    0  0.15257782750E+02 -0.14031787889E+03 -0.37027753497E+03  0.39626677879E+03  0.00000000000E+00 0.  1.
         11    1    1    2    0    0 -0.23195171038E+02  0.29628195859E+01 -0.89308321657E+02  0.92318852769E+02  0.00000000000E+00 0. -1.
</event>
<event>
 7    1  0.2943257E-009  0.1022814E+03  0.7561462E-02  0.1275570E+00
          2   -1    0    0  501    0  0.00000000000E+00  0.00000000000E+00  0.20330745695E+03  0.20330745695E+03  0.00000000000E+00 0. -1.
         -2   -1    0    0    0  501 -0.00000000000E+00 -0.00000000000E+00 -0.93962186212E+02  0.93962186212E+02  0.00000000000E+00 0.  1.
         25    2    1    2    0    0  0.64540618998E+02 -0.33627568387E+02  0.10385132118E+03  0.17812173912E+03  0.12508378064E+03 0.  0.
          5    1    3    3  502    0  0.93579878785E+02 -0.22145951402E+02  0.10984498552E+03  0.14605146395E+03  0.41800000000E+01 0.  1.
         -5    1    3    3    0  502 -0.29039259786E+02 -0.11481616986E+02 -0.59936643387E+01  0.32070275174E+02  0.41800000000E+01 0.  1.
        -11    1    1    2    0    0 -0.20832522405E+02  0.24484606814E+02  0.47820037215E+02  0.57621575124E+02  0.00000000000E+00 0. -1.
         11    1    1    2    0    0 -0.43708096594E+02  0.91429615730E+01 -0.42326087656E+02  0.61526328920E+02  0.00000000000E+00 0.  1.
</event>
<event>
 7    1  0.2943257E-009  0.1203259E+03  0.7561462E-02  0.1242560E+00
         -1   -1    0    0    0  501 -0.00000000000E+00  0.00000000000E+00  0.11142833590E+04  0.11142833590E+04  0.00000000000E+00 0. -1.
          1   -1    0    0  501    0  0.00000000000E+00 -0.00000000000E+00 -0.17368782285E+02  0.17368782285E+02  0.00000000000E+00 0.  1.
         25    2    1    2    0    0  0.61852050412E+02  0.71017893116E+01  0.84772127599E+03  0.85915975650E+03  0.12509202158E+03 0.  0.
          5    1    3    3  502    0  0.18774070906E+02 -0.57671307076E+02  0.42408399115E+03  0.42841936155E+03  0.41800000000E+01 0. -1.
         -5    1    3    3    0  502  0.43077979506E+02  0.64773096387E+02  0.42363728484E+03  0.43074039495E+03  0.41800000000E+01 0. -1.
        -11    1    1    2    0    0 -0.81440439424E+02 -0.10268783232E+01  0.23148836579E+03  0.24539858017E+03  0.00000000000E+00 0. -1.
         11    1    1    2    0    0  0.19588389012E+02 -0.60749109884E+01  0.17704934927E+02  0.27093804613E+02  0.00000000000E+00 0.  1.
</event>
<event>
 7    1  0.2943257E-009  0.1441330E+03  0.7561462E-02  0.1207873E+00
          2   -1    0    0  501    0  0.00000000000E+00  0.00000000000E+00  0.92244795602E+03  0.92244795602E+03  0.00000000000E+00 0. -1.
         -2   -1    0    0    0  501 -0.00000000000E+00 -0.00000000000E+00 -0.28333475218E+02  0.28333475218E+02  0.00000000000E+00 0.  1.
         25    2    1    2    0    0 -0.11534280623E+03  0.23878944826E+02  0.56104704841E+03  0.58676649741E+03  0.12508782912E+03 0.  0.
          5    1    3    3  502    0 -0.25250942117E+02 -0.28480950449E+02  0.34226967510E+03  0.34440496150E+03  0.41800000000E+01 0.  1.
         -5    1    3    3    0  502 -0.90091864110E+02  0.52359895275E+02  0.21877737331E+03  0.24236153591E+03  0.41800000000E+01 0.  1.
        -11    1    1    2    0    0  0.94949825086E+02  0.20241128623E+02  0.24287101356E+03  0.26155592481E+03  0.00000000000E+00 0. -1.
         11    1    1    2    0    0  0.20392981141E+02 -0.44120073449E+02  0.90196418826E+02  0.10245900902E+03  0.00000000000E+00 0.  1.
</event>
<event>
 7    1  0.2943257E-009  0.1085198E+03  0.7561462E-02  0.1263336E+00
          3   -1    0    0  501    0  0.00000000000E+00  0.00000000000E+00  0.32543804196E+03  0.32543804196E+03  0.00000000000E+00 0. -1.
         -3   -1    0    0    0  501 -0.00000000000E+00 -0.00000000000E+00 -0.40986818232E+02  0.40986818232E+02  0.00000000000E+00 0.  1.
         25    2    1    2    0    0 -0.66604805421E+01 -0.11560268629E+02  0.10100417699E+03  0.16133503407E+03  0.12509655326E+03 0.  0.
          5    1    3    3  502    0  0.18464415882E+02  0.53057322853E+02  0.46517532466E+02  0.73057288403E+02  0.41800000000E+01 0.  1.
         -5    1    3    3    0  502 -0.25124896424E+02 -0.64617591481E+02  0.54486644525E+02  0.88277745671E+02  0.41800000000E+01 0.  1.
        -11    1    1    2    0    0 -0.40269924239E+02  0.17569948140E+02  0.78209732264E+02  0.89705808600E+02  0.00000000000E+00 0.  1.
         11    1    1    2    0    0  0.46930404782E+02 -0.60096795113E+01  0.10523731447E+03  0.11538401752E+03  0.00000000000E+00 0. -1.
</event>
<event>
 7    1  0.2943257E-009  0.1565743E+03  0.7561462E-02  0.1192620E+00
          3   -1    0    0  501    0  0.00000000000E+00  0.00000000000E+00  0.38226463632E+03  0.38226463632E+03  0.00000000000E+00 0. -1.
         -3   -1    0    0    0  501 -0.00000000000E+00 -0.00000000000E+00 -0.72216076656E+02  0.72216076656E+02  0.00000000000E+00 0.  1.
         25    2    1    2    0    0 -0.92110801197E+02 -0.81226344252E+02  0.20970363336E+03  0.27332616337E+03  0.12509779790E+03 0.  0.
          5    1    3    3  502    0 -0.56210435626E+02  0.23829795699E+02  0.99684242114E+02  0.11696962325E+03  0.41800000000E+01 0.  1.
         -5    1    3    3    0  502 -0.35900365571E+02 -0.10505613995E+03  0.11001939124E+03  0.15635654012E+03  0.41800000000E+01 0.  1.
        -11    1    1    2    0    0 -0.11388542964E+01  0.38094436782E+02  0.83175816137E+00  0.38120531535E+02  0.00000000000E+00 0.  1.
         11    1    1    2    0    0  0.93249655494E+02  0.43131907470E+02  0.99513168146E+02  0.14303401807E+03  0.00000000000E+00 0. -1.
</event>
<event>
 7    1  0.2943257E-009  0.9832989E+02  0.7561462E-02  0.1283848E+00
         -2   -1    0    0    0  501 -0.00000000000E+00  0.00000000000E+00  0.33905347523E+02  0.33905347523E+02  0.00000000000E+00 0.  1.
          2   -1    0    0  501    0  0.00000000000E+00 -0.00000000000E+00 -0.37306531425E+03  0.37306531425E+03  0.00000000000E+00 0. -1.
         25    2    1    2    0    0  0.23749216443E+02 -0.19821154382E+02 -0.19860375836E+03  0.23674359831E+03  0.12508866880E+03 0.  0.
          5    1    3    3  502    0  0.46740389831E+02 -0.63688304274E+02 -0.11894053646E+03  0.14284672820E+03  0.41800000000E+01 0.  1.
         -5    1    3    3    0  502 -0.22991173388E+02  0.43867149892E+02 -0.79663221904E+02  0.93896870116E+02  0.41800000000E+01 0.  1.
        -11    1    1    2    0    0 -0.36471419029E+02  0.33246896980E+02 -0.14327128023E+03  0.15153276973E+03  0.00000000000E+00 0. -1.
         11    1    1    2    0    0  0.12722202586E+02 -0.13425742598E+02  0.27150718612E+01  0.18694293733E+02  0.00000000000E+00 0.  1.
</event>
<event>
 7    1  0.2943257E-009  0.1300087E+03  0.7561462E-02  0.1227443E+00
         -4   -1    0    0    0  501 -0.00000000000E+00  0.00000000000E+00  0.18996118381E+03  0.18996118381E+03  0.00000000000E+00 0.  1.
          4   -1    0    0  501    0  0.00000000000E+00 -0.00000000000E+00 -0.14038956457E+03  0.14038956457E+03  0.00000000000E+00 0. -1.
         25    2    1    2    0    0  0.10751307567E+03  0.43568931825E+02  0.64593427164E+02  0.18241901993E+03  0.12508826778E+03 0.  0.
          5    1    3    3  502    0 -0.10299212142E+01  0.27899387407E+02  0.66936949920E+02  0.72646157641E+02  0.41800000000E+01 0. -1.
         -5    1    3    3    0  502  0.10854299689E+03  0.15669544418E+02 -0.23435227560E+01  0.10977286229E+03  0.41800000000E+01 0. -1.
        -11    1    1    2    0    0 -0.50918159081E+02 -0.49944979772E+00  0.34289381286E+02  0.61389494568E+02  0.00000000000E+00 0.  1.
         11    1    1    2    0    0 -0.56594916592E+02 -0.43069482027E+02 -0.49311189207E+02  0.86542233892E+02  0.00000000000E+00 0. -1.
</event>
<event>
 7    1  0.2943257E-009  0.1283362E+03  0.7561462E-02  0.1229946E+00
         -2   -1    0    0    0  501 -0.00000000000E+00  0.00000000000E+00  0.33777628563E+02  0.33777628563E+02  0.00000000000E+00 0.  1.
          2   -1    0    0  501    0  0.00000000000E+00 -0.00000000000E+00 -0.60074474015E+03  0.60074474015E+03  0.00000000000E+00 0. -1.
         25    2    1    2    0    0 -0.75786362811E+02 -0.50698115667E+02 -0.29633784035E+03  0.33433083775E+03  0.12508845562E+03 0.  0.
          5    1    3    3  502    0 -0.88858118598E+02 -0.68044283961E+02 -0.15474983878E+03  0.19102558683E+03  0.41800000000E+01 0.  1.
         -5    1    3    3    0  502  0.13071755787E+02  0.17346168295E+02 -0.14158800157E+03  0.14330525092E+03  0.41800000000E+01 0.  1.
        -11    1    1    2    0    0  0.31561117689E+02  0.68079002138E+02 -0.11373233115E+03  0.13625673499E+03  0.00000000000E+00 0.  1.
         11    1    1    2    0    0  0.44225245122E+02 -0.17380886472E+02 -0.15689694009E+03  0.16393479597E+03  0.00000000000E+00 0. -1.
</event>
<event>
 7    1  0.2943257E-009  0.2546002E+03  0.7561462E-02  0.1110432E+00
          2   -1    0    0  501    0  0.00000000000E+00  0.00000000000E+00  0.11848601916E+04  0.11848601916E+04  0.00000000000E+00 0. -1.
         -2   -1    0    0    0  501 -0.00000000000E+00 -0.00000000000E+00 -0.69371332271E+02  0.69371332271E+02  0.00000000000E+00 0.  1.
         25    2    1    2    0    0  0.18530427453E+03 -0.16715127708E+03  0.37452581065E+03  0.46711334282E+03  0.12509224039E+03 0.  0.
          5    1    3    3  502    0  0.14001501392E+03 -0.16092699909E+03  0.22230516612E+03  0.30812134370E+03  0.41800000000E+01 0. -1.
         -5    1    3    3    0  502  0.45289260613E+02 -0.62242779960E+01  0.15222064453E+03  0.15899199912E+03  0.41800000000E+01 0. -1.
        -11    1    1    2    0    0 -0.94729343132E+02  0.94804102377E+02  0.26152909887E+03  0.29386890927E+03  0.00000000000E+00 0.  1.
         11    1    1    2    0    0 -0.90574931403E+02  0.72347174708E+02  0.47943394981E+03  0.49324927179E+03  0.00000000000E+00 0. -1.
</event>
<event>
 7    1  0.2943257E-009  0.1019304E+03  0.7561462E-02  0.1276288E+00
          1   -1    0    0  501    0  0.00000000000E+00  0.00000000000E+00  0.47230373499E+03  0.47230373499E+03  0.00000000000E+00 0. -1.
         -1   -1    0    0    0  501 -0.00000000000E+00 -0.00000000000E+00 -0.29511176443E+02  0.29511176443E+02  0.00000000000E+00 0.  1.
         25    2    1    2    0    0 -0.41312135795E+02  0.10845551758E+02  0.21829711799E+03  0.25519751379E+03  0.12509124975E+03 0.  0.
          5    1    3    3  502    0 -0.42238960352E+02 -0.39418137313E+02  0.41271875154E+02  0.71124956236E+02  0.41800000000E+01 0.  1.
         -5    1    3    3    0  502  0.92682455707E+00  0.50263689072E+02  0.17702524284E+03  0.18407255756E+03  0.41800000000E+01 0.  1.
        -11    1    1    2    0    0 -0.26356215716E+02  0.26477488381E+01  0.10817760382E+03  0.11137349168E+03  0.00000000000E+00 0.  1.
         11    1    1    2    0    0  0.67668351511E+02 -0.13493300596E+02  0.11631783673E+03  0.13524390596E+03  0.00000000000E+00 0. -1.
</event>
<event>
 7    1  0.2943257E-009  0.3603270E+03  0.7561462E-02  0.1058454E+00
          2   -1    0    0  501    0  0.00000000000E+00  0.00000000000E+00  0.94201448924E+03  0.94201448924E+03  0.00000000000E+00 0. -1.
         -2   -1    0    0    0  501 -0.00000000000E+00 -0.00000000000E+00 -0.18167981136E+03  0.18167981136E+03  0.00000000000E+00 0.  1.
         25    2    1    2    0    0 -0.10150088892E+03  0.33907531561E+03  0.13370068963E+03  0.39849440297E+03  0.12508962658E+03 0.  0.
          5    1    3    3  502    0 -0.92914629755E+02  0.14970758461E+03  0.10913751149E+03  0.20730161149E+03  0.41800000000E+01 0. -1.
         -5    1    3    3    0  502 -0.85862591692E+01  0.18936773100E+03  0.24563178138E+02  0.19119279148E+03  0.41800000000E+01 0. -1.
        -11    1    1    2    0    0  0.50548106274E+02 -0.21076639175E+03  0.46219587924E+03  0.51049252073E+03  0.00000000000E+00 0. -1.
         11    1    1    2    0    0  0.50952782650E+02 -0.12830892387E+03  0.16443810901E+03  0.21470737691E+03  0.00000000000E+00 0.  1.
</event>
<event>
 7    1  0.3114608E-009  0.1389380E+03  0.7561462E-02  0.1214765E+00
          1   -1    0    0  501    0  0.00000000000E+00  0.00000000000E+00  0.38368026550E+03  0.38368026550E+03  0.00000000000E+00 0. -1.
         -1   -1    0    0    0  501 -0.00000000000E+00 -0.00000000000E+00 -0.67479862020E+02  0.67479862020E+02  0.00000000000E+00 0.  1.
         25    2    1    2    0    0 -0.62676125514E+02 -0.88404237585E+02  0.23558387150E+03  0.28790977282E+03  0.12509464753E+03 0.  0.
          5    1    3    3  502    0 -0.68184090182E+02 -0.95410404197E+01  0.47231157392E+02  0.83596388887E+02  0.41800000000E+01 0. -1.
         -5    1    3    3    0  502  0.55079646680E+01 -0.78863197165E+02  0.18835271411E+03  0.20431338394E+03  0.41800000000E+01 0. -1.
        -11    1    1    2    0    0  0.51568213889E+02  0.12551976153E+02  0.66860189619E+02  0.85364616469E+02  0.00000000000E+00 0. -1.
         11    1    1    2    0    0  0.11107911626E+02  0.75852261431E+02  0.13756342361E+02  0.77885738233E+02  0.00000000000E+00 0.  1.
</event>
<event>
 7    1  0.2943257E-009  0.1328772E+03  0.7561462E-02  0.1223248E+00
         -1   -1    0    0    0  501 -0.00000000000E+00  0.00000000000E+00  0.51435414303E+03  0.51435414303E+03  0.00000000000E+00 0.  1.
          1   -1    0    0  501    0  0.00000000000E+00 -0.00000000000E+00 -0.37955488049E+02  0.37955488049E+02  0.00000000000E+00 0. -1.
         25    2    1    2    0    0 -0.76881100245E+02  0.36209701188E+02  0.30606813626E+03  0.34139006536E+03  0.12509047389E+03 0.  0.
          5    1    3    3  502    0 -0.29630316611E+02  0.75454356132E+02  0.22767435249E+03  0.24171139548E+03  0.41800000000E+01 0.  1.
         -5    1    3    3    0  502 -0.47250783634E+02 -0.39244654943E+02  0.78393783767E+02  0.99678669880E+02  0.41800000000E+01 0.  1.
        -11    1    1    2    0    0  0.69352835512E+02  0.15250777109E+02  0.82555907900E+02  0.10889389297E+03  0.00000000000E+00 0.  1.
         11    1    1    2    0    0  0.75282647326E+01 -0.51460478298E+02  0.87774610829E+02  0.10202567276E+03  0.00000000000E+00 0. -1.
</event>
<event>
 7    1  0.2943257E-009  0.8764069E+02  0.7561462E-02  0.1308668E+00
          1   -1    0    0  501    0  0.00000000000E+00  0.00000000000E+00  0.53182348869E+03  0.53182348869E+03  0.00000000000E+00 0. -1.
         -1   -1    0    0    0  501 -0.00000000000E+00 -0.00000000000E+00 -0.25312092195E+02  0.25312092195E+02  0.00000000000E+00 0.  1.
         25    2    1    2    0    0  0.35320188976E+02 -0.11465480732E+02  0.33435893875E+03  0.35891757957E+03  0.12508779319E+03 0.  0.
          5    1    3    3  502    0 -0.12162985441E+02 -0.47906551228E+02  0.58921663376E+02  0.77020845753E+02  0.41800000000E+01 0.  1.
         -5    1    3    3    0  502  0.47483174417E+02  0.36441070497E+02  0.27543727537E+03  0.28189673381E+03  0.41800000000E+01 0.  1.
        -11    1    1    2    0    0 -0.28861538672E+02  0.32622452945E+02  0.17056672637E+03  0.17604039592E+03  0.00000000000E+00 0. -1.
         11    1    1    2    0    0 -0.64586503036E+01 -0.21156972213E+02  0.15857313720E+01  0.22177605393E+02  0.00000000000E+00 0.  1.
</event>
<event>
 6    1  0.2943257E-009  0.1114531E+03  0.7561462E-02  0.1257902E+00
          3   -1    0    0  501    0  0.00000000000E+00  0.00000000000E+00  0.24491931185E+02  0.24491931185E+02  0.00000000000E+00 0. -1.
         -3   -1    0    0    0  501 -0.00000000000E+00 -0.00000000000E+00 -0.52349347552E+03  0.52349347552E+03  0.00000000000E+00 0.  1.
          5    1    1    2  502    0 -0.36663945400E+02  0.49128582511E+02 -0.10146134554E+03  0.11861593296E+03  0.41800000000E+01 0. -1.
         -5    1    1    2    0  502  0.95760751791E+01 -0.65071124126E+02 -0.15461947730E+03  0.16807917055E+03  0.41800000000E+01 0. -1.
        -11    1    1    2    0    0  0.35403292558E+02 -0.31502276076E+02 -0.13601375312E+03  0.14403307800E+03  0.00000000000E+00 0. -1.
         11    1    1    2    0    0 -0.83154223367E+01  0.47444817691E+02 -0.10690696837E+03  0.11725722520E+03  0.00000000000E+00 0.  1.
</event>
<event>
 7    1  0.2943257E-009  0.1009741E+03  0.7561462E-02  0.1278261E+00
         -1   -1    0    0    0  501 -0.00000000000E+00  0.00000000000E+00  0.12984363674E+02  0.12984363674E+02  0.00000000000E+00 0. -1.
          1   -1    0    0  501    0  0.00000000000E+00 -0.00000000000E+00 -0.18896950610E+04  0.18896950610E+04  0.00000000000E+00 0.  1.
         25    2    1    2    0    0  0.52102899791E+02 -0.17307049731E+01 -0.16187175444E+04  0.16243805465E+04  0.12509182163E+03 0.  0.
          5    1    3    3  502    0  0.71395007602E+02  0.14561567984E+02 -0.49309889814E+03  0.49847094411E+03  0.41800000000E+01 0. -1.
         -5    1    3    3    0  502 -0.19292107812E+02 -0.16292272958E+02 -0.11256186463E+04  0.11259096024E+04  0.41800000000E+01 0. -1.
        -11    1    1    2    0    0 -0.50213925515E+02 -0.38387289100E+02 -0.17582096165E+03  0.18683691507E+03  0.00000000000E+00 0.  1.
         11    1    1    2    0    0 -0.18889742752E+01  0.40117994073E+02 -0.82172191303E+02  0.91461963109E+02  0.00000000000E+00 0. -1.
</event>
<event>
 7    1  0.2943257E-009  0.1017549E+03  0.7561462E-02  0.1276648E+00
          2   -1    0    0  501    0  0.00000000000E+00  0.00000000000E+00  0.22826449242E+02  0.22826449242E+02  0.00000000000E+00 0. -1.
         -2   -1    0    0    0  501 -0.00000000000E+00 -0.00000000000E+00 -0.63755442039E+03  0.63755442039E+03  0.00000000000E+00 0.  1.
         25    2    1    2    0    0  0.25587448867E+02 -0.34517580844E+02 -0.27508972921E+03  0.30523220082E+03  0.12508459687E+03 0.  0.
          5    1    3    3  502    0  0.53378403931E+02 -0.45785448680E+02 -0.26359280616E+03  0.27284464660E+03  0.41800000000E+01 0. -1.
         -5    1    3    3    0  502 -0.27790955063E+02  0.11267867836E+02 -0.11496923050E+02  0.32387554222E+02  0.41800000000E+01 0. -1.
        -11    1    1    2    0    0 -0.86671764319E+00  0.64170846148E+02 -0.18708870508E+03  0.19778986896E+03  0.00000000000E+00 0.  1.
         11    1    1    2    0    0 -0.24720731224E+02 -0.29653265304E+02 -0.15254953685E+03  0.15735879985E+03  0.00000000000E+00 0. -1.
</event>
<event>
 7    1  0.2943257E-009  0.1136010E+03  0.7561462E-02  0.1254043E+00
          2   -1    0    0  501    0  0.00000000000E+00  0.00000000000E+00  0.75212980443E+03  0.75212980443E+03  0.00000000000E+00 0. -1.
         -2   -1    0    0    0  501 -0.00000000000E+00 -0.00000000000E+00 -0.29448681902E+02  0.29448681902E+02  0.00000000000E+00 0.  1.
         25    2    1    2    0    0  0.97994589912E+02  0.12336383353E+02  0.32648770915E+03  0.36331126841E+03  0.12508288259E+03 0.  0.
          5    1    3    3  502    0  0.19988762623E+02  0.98758770459E+00  0.25798629193E+03  0.25879514135E+03  0.41800000000E+01 0.  1.
         -5    1    3    3    0  502  0.78005827289E+02  0.11348795648E+02  0.68501417221E+02  0.10451612706E+03  0.41800000000E+01 0.  1.
        -11    1    1    2    0    0 -0.39606368412E+02  0.34843597609E+02  0.10437435489E+03  0.11694762362E+03  0.00000000000E+00 0.  1.
         11    1    1    2    0    0 -0.58388221500E+02 -0.47179980962E+02  0.29181905849E+03  0.30131959430E+03  0.00000000000E+00 0. -1.
</event>
<event>
 7    1  0.2943257E-009  0.9474607E+02  0.7561462E-02  0.1291749E+00
          2   -1    0    0  501    0  0.00000000000E+00  0.00000000000E+00  0.30412519218E+03  0.30412519218E+03  0.00000000000E+00 0. -1.
         -2   -1    0    0    0  501 -0.00000000000E+00 -0.00000000000E+00 -0.57533324549E+02  0.57533324549E+02  0.00000000000E+00 0.  1.
         25    2    1    2    0    0  0.14416926614E+01 -0.57259326227E+02  0.72746326243E+02  0.15562875265E+03  0.12509025442E+03 0.  0.
          5    1    3    3  502    0 -0.17771278918E+02 -0.83175136003E+02  0.85514707643E+02  0.12068205843E+03  0.41800000000E+01 0.  1.
         -5    1    3    3    0  502  0.19212971579E+02  0.25915809776E+02 -0.12768381400E+02  0.34946694219E+02  0.41800000000E+01 0.  1.
        -11    1    1    2    0    0 -0.22180034351E+02  0.24635813313E+02  0.16234985655E+03  0.16569958703E+03  0.00000000000E+00 0. -1.
         11    1    1    2    0    0  0.20738341690E+02  0.32623512914E+02  0.11495684841E+02  0.40330177050E+02  0.00000000000E+00 0.  1.
</event>
<event>
 7    1  0.2943257E-009  0.1032748E+03  0.7561462E-02  0.1273556E+00
         -2   -1    0    0    0  501 -0.00000000000E+00  0.00000000000E+00  0.68620771809E+03  0.68620771809E+03  0.00000000000E+00 0.  1.
          2   -1    0    0  501    0  0.00000000000E+00 -0.00000000000E+00 -0.26505875143E+02  0.26505875143E+02  0.00000000000E+00 0. -1.
         25    2    1    2    0    0 -0.53218588196E+01 -0.66631724153E+02  0.48460155192E+03  0.50492956621E+03  0.12508834426E+03 0.  0.
          5    1    3    3  502    0  0.30601278742E+02 -0.64402044285E+02  0.12872355232E+03  0.14721170772E+03  0.41800000000E+01 0.  1.
         -5    1    3    3    0  502 -0.35923137561E+02 -0.22296798684E+01  0.35587799960E+03  0.35771785849E+03  0.41800000000E+01 0.  1.
        -11    1    1    2    0    0  0.24805821824E+02 -0.44367730379E+01  0.10234267023E+02  0.27198418572E+02  0.00000000000E+00 0. -1.
         11    1    1    2    0    0 -0.19483963004E+02  0.71068497191E+02  0.16486602401E+03  0.18058560845E+03  0.00000000000E+00 0.  1.
</event>
<event>
 7    1  0.2943257E-009  0.1105494E+03  0.7561462E-02  0.1259556E+00
         -1   -1    0    0    0  501 -0.00000000000E+00  0.00000000000E+00  0.66221611006E+02  0.66221611006E+02  0.00000000000E+00 0.  1.
          1   -1    0    0  501    0  0.00000000000E+00 -0.00000000000E+00 -0.25753526350E+03  0.25753526350E+03  0.00000000000E+00 0. -1.
         25    2    1    2    0    0 -0.22142031693E+02  0.28415147771E+02 -0.18522482410E+03  0.22639399046E+03  0.12509321829E+03 0.  0.
          5    1    3    3  502    0  0.41380021103E+02 -0.23476909749E+02 -0.75469447854E+02  0.89311709183E+02  0.41800000000E+01 0. -1.
         -5    1    3    3    0  502 -0.63522052796E+02  0.51892057520E+02 -0.10975537625E+03  0.13708228128E+03  0.41800000000E+01 0. -1.
        -11    1    1    2    0    0  0.17679872557E+02 -0.58336919783E+02 -0.19877296448E+02  0.64116152547E+02  0.00000000000E+00 0. -1.
         11    1    1    2    0    0  0.44621591355E+01  0.29921772012E+02  0.13788468050E+02  0.33246731503E+02  0.00000000000E+00 0.  1.
</event>
<event>
 7    1  0.2943257E-009  0.1166046E+03  0.7561462E-02  0.1248806E+00
         -2   -1    0    0    0  501 -0.00000000000E+00  0.00000000000E+00  0.52472394689E+03  0.52472394689E+03  0.00000000000E+00 0.  1.
          2   -1    0    0  501    0  0.00000000000E+00 -0.00000000000E+00 -0.43744855296E+02  0.43744855296E+02  0.00000000000E+00 0. -1.
         25    2    1    2    0    0  0.38420724155E+02 -0.62591389063E+02  0.11711011095E+03  0.18643147024E+03  0.12509228985E+03 0.  0.
          5    1    3    3  502    0 -0.31989395458E+02 -0.46338194258E+02  0.10282352964E+02  0.57391191409E+02  0.41800000000E+01 0.  1.
         -5    1    3    3    0  502  0.70410119614E+02 -0.16253194805E+02  0.10682775799E+03  0.12904027884E+03  0.41800000000E+01 0.  1.
        -11    1    1    2    0    0  0.16213715984E+02  0.43609512767E+02  0.81856908963E+02  0.94155338323E+02  0.00000000000E+00 0. -1.
         11    1    1    2    0    0 -0.54634440140E+02  0.18981876296E+02  0.28201207168E+03  0.28788199362E+03  0.00000000000E+00 0.  1.
</event>
<event>
 7    1  0.2943257E-009  0.1415409E+03  0.7561462E-02  0.1211270E+00
         -1   -1    0    0    0  501 -0.00000000000E+00  0.00000000000E+00  0.79506903829E+03  0.79506903829E+03  0.00000000000E+00 0.  1.
          1   -1    0    0  501    0  0.00000000000E+00 -0.00000000000E+00 -0.39340063712E+02  0.39340063712E+02  0.00000000000E+00 0. -1.
         25    2    1    2    0    0  0.57834909860E+02 -0.11403309665E+03  0.25262575105E+03  0.30954164939E+03  0.12509132138E+03 0.  0.
          5    1    3    3  502    0  0.25160386563E+02 -0.71355795434E+01  0.16590283770E+03  0.16800352825E+03  0.41800000000E+01 0.  1.
         -5    1    3    3    0  502  0.32674523297E+02 -0.10689751710E+03  0.86722913346E+02  0.14153812114E+03  0.41800000000E+01 0.  1.
        -11    1    1    2    0    0 -0.28130250794E+01  0.79985932994E+02  0.21065396980E+03  0.22534586213E+03  0.00000000000E+00 0.  1.
         11    1    1    2    0    0 -0.55021884780E+02  0.34047163654E+02  0.29244925373E+03  0.29952159049E+03  0.00000000000E+00 0. -1.
</event>
<event>
 7    1  0.2943257E-009  0.9601417E+02  0.7561462E-02  0.1288908E+00
         -1   -1    0    0    0  501 -0.00000000000E+00  0.00000000000E+00  0.20044375506E+02  0.20044375506E+02  0.00000000000E+00 0.  1.
          1   -1    0    0  501    0  0.00000000000E+00 -0.00000000000E+00 -0.74854699924E+03  0.74854699924E+03  0.00000000000E+00 0. -1.
         25    2    1    2    0    0 -0.28039972269E+02 -0.18099718291E+02 -0.55193617935E+03  0.56691794645E+03  0.12509425280E+03 0.  0.
          5    1    3    3  502    0 -0.26930530571E+02 -0.62139976289E+02 -0.18010467373E+03  0.19246245355E+03  0.41800000000E+01 0. -1.
         -5    1    3    3    0  502 -0.11094416989E+01  0.44040257998E+02 -0.37183150563E+03  0.37445549290E+03  0.41800000000E+01 0. -1.
        -11    1    1    2    0    0  0.52793318152E+02  0.90295550162E+01 -0.53088429395E+02  0.75412523104E+02  0.00000000000E+00 0.  1.
         11    1    1    2    0    0 -0.24753345882E+02  0.90701632748E+01 -0.12347801499E+03  0.12626090519E+03  0.00000000000E+00 0. -1.
</event>
<event>
 7    1  0.2943257E-009  0.8586967E+02  0.7561462E-02  0.1313174E+00
          1   -1    0    0  501    0  0.00000000000E+00  0.00000000000E+00  0.12991727841E+03  0.12991727841E+03  0.00000000000E+00 0. -1.
         -1   -1    0    0    0  501 -0.00000000000E+00 -0.00000000000E+00 -0.10524215487E+03  0.10524215487E+03  0.00000000000E+00 0.  1.
         25    2    1    2    0    0  0.15074952050E+02 -0.31338802866E+02  0.40608825495E+02  0.13604753507E+03  0.12510187987E+03 0.  0.
          5    1    3    3  502    0  0.40299653332E+02 -0.24971045678E+02  0.77359237990E+02  0.90826974426E+02  0.41800000000E+01 0. -1.
         -5    1    3    3    0  502 -0.25224701282E+02 -0.63677571882E+01 -0.36750412496E+02  0.45220560644E+02  0.41800000000E+01 0. -1.
        -11    1    1    2    0    0  0.48420041406E+01  0.61479513460E+02 -0.11149553848E+02  0.62669674727E+02  0.00000000000E+00 0.  1.
         11    1    1    2    0    0 -0.19916956191E+02 -0.30140710594E+02 -0.47841481024E+01  0.36442223479E+02  0.00000000000E+00 0. -1.
</event>
<event>
 7    1  0.2943257E-009  0.1009646E+03  0.7561462E-02  0.1278280E+00
         -1   -1    0    0    0  501 -0.00000000000E+00  0.00000000000E+00  0.27013114207E+02  0.27013114207E+02  0.00000000000E+00 0.  1.
          1   -1    0    0  501    0  0.00000000000E+00 -0.00000000000E+00 -0.46010357580E+03  0.46010357580E+03  0.00000000000E+00 0. -1.
         25    2    1    2    0    0  0.31758440850E+02 -0.74676905316E+01 -0.25405572031E+03  0.28505490996E+03  0.12509047807E+03 0.  0.
          5    1    3    3  502    0  0.56135827870E+02 -0.50300759197E+02 -0.11594882355E+03  0.13835822935E+03  0.41800000000E+01 0.  1.
         -5    1    3    3    0  502 -0.24377387020E+02  0.42833068665E+02 -0.13810689676E+03  0.14669668061E+03  0.41800000000E+01 0.  1.
        -11    1    1    2    0    0 -0.43621475023E+02 -0.19298684004E+02 -0.16043485700E+03  0.16737567215E+03  0.00000000000E+00 0. -1.
         11    1    1    2    0    0  0.11863034173E+02  0.26766374536E+02 -0.18599884284E+02  0.34686107896E+02  0.00000000000E+00 0.  1.
</event>
<event>
 7    1  0.2943257E-009  0.1142287E+03  0.7561462E-02  0.1252933E+00
          1   -1    0    0  501    0  0.00000000000E+00  0.00000000000E+00  0.80506139104E+02  0.80506139104E+02  0.00000000000E+00 0. -1.
         -1   -1    0    0    0  501 -0.00000000000E+00 -0.00000000000E+00 -0.26223651378E+03  0.26223651378E+03  0.00000000000E+00 0.  1.
         25    2    1    2    0    0  0.16575849358E+02  0.65594384063E+02 -0.18186265990E+02  0.14337486361E+03  0.12509288246E+03 0.  0.
          5    1    3    3  502    0 -0.77088206220E-01 -0.27677430741E+02 -0.37294158393E+02  0.46630170118E+02  0.41800000000E+01 0. -1.
         -5    1    3    3    0  502  0.16652937565E+02  0.93271814804E+02  0.19107892403E+02  0.96744693490E+02  0.41800000000E+01 0. -1.
        -11    1    1    2    0    0  0.59354481698E+01  0.18052913843E+02 -0.66217689330E+01  0.20124240781E+02  0.00000000000E+00 0. -1.
         11    1    1    2    0    0 -0.22511297528E+02 -0.83647297906E+02 -0.15692233975E+03  0.17924354850E+03  0.00000000000E+00 0.  1.
</event>
<event>
 7    1  0.2943257E-009  0.9485442E+02  0.7561462E-02  0.1291504E+00
         -1   -1    0    0    0  501 -0.00000000000E+00  0.00000000000E+00  0.23142462088E+03  0.23142462088E+03  0.00000000000E+00 0.  1.
          1   -1    0    0  501    0  0.00000000000E+00 -0.00000000000E+00 -0.60067154910E+02  0.60067154910E+02  0.00000000000E+00 0. -1.
         25    2    1    2    0    0 -0.35498888263E+02 -0.63948412274E+01  0.61860082921E+02  0.14413492045E+03  0.12508853013E+03 0.  0.
          5    1    3    3  502    0 -0.60427092903E+02 -0.20817230317E+02 -0.11626736955E+02  0.65095653058E+02  0.41800000000E+01 0.  1.
         -5    1    3    3    0  502  0.24928204641E+02  0.14422389090E+02  0.73486819877E+02  0.79039267388E+02  0.41800000000E+01 0.  1.
        -11    1    1    2    0    0 -0.18256959177E+02 -0.27500227710E+02  0.23922774461E+02  0.40766140612E+02  0.00000000000E+00 0.  1.
         11    1    1    2    0    0  0.53755847440E+02  0.33895068937E+02  0.85574608585E+02  0.10659071473E+03  0.00000000000E+00 0. -1.
</event>
<event>
 7    1  0.2943257E-009  0.7067415E+02  0.7561462E-02  0.1357815E+00
          2   -1    0    0  501    0  0.00000000000E+00  0.00000000000E+00  0.38488714255E+03  0.38488714255E+03  0.00000000000E+00 0. -1.
         -2   -1    0    0    0  501 -0.00000000000E+00 -0.00000000000E+00 -0.32667825822E+02  0.32667825822E+02  0.00000000000E+00 0.  1.
         25    2    1    2    0    0 -0.86924545094E+01  0.26677788257E+01  0.14621660040E+03  0.19263968516E+03  0.12509227896E+03 0.  0.
          5    1    3    3  502    0  0.17633127984E+02 -0.28063078063E+02 -0.69858155207E+01  0.34128251806E+02  0.41800000000E+01 0. -1.
         -5    1    3    3    0  502 -0.26325582494E+02  0.30730856888E+02  0.15320241592E+03  0.15851143335E+03  0.41800000000E+01 0. -1.
        -11    1    1    2    0    0 -0.18758264879E+02 -0.25431367347E+02  0.17448119450E+03  0.17731980763E+03  0.00000000000E+00 0. -1.
         11    1    1    2    0    0  0.27450719388E+02  0.22763588522E+02  0.31521521831E+02  0.47595475582E+02  0.00000000000E+00 0.  1.
</event>
<event>
 7    1  0.2943257E-009  0.1250783E+03  0.7561462E-02  0.1234947E+00
          2   -1    0    0  501    0  0.00000000000E+00  0.00000000000E+00  0.89009998961E+02  0.89009998961E+02  0.00000000000E+00 0.  1.
         -2   -1    0    0    0  501 -0.00000000000E+00 -0.00000000000E+00 -0.23600735847E+03  0.23600735847E+03  0.00000000000E+00 0. -1.
         25    2    1    2    0    0  0.89188438347E+02  0.11552145252E+02 -0.42788201772E+02  0.15989475477E+03  0.12508985890E+03 0.  0.
          5    1    3    3  502    0 -0.10049242773E+02  0.20220299002E+02  0.29033021976E+02  0.37016706189E+02  0.41800000000E+01 0.  1.
         -5    1    3    3    0  502  0.99237681120E+02 -0.86681537506E+01 -0.71821223748E+02  0.12287804859E+03  0.41800000000E+01 0.  1.
        -11    1    1    2    0    0 -0.74790708830E+02  0.32201341749E+02 -0.74069242699E+02  0.11007647002E+03  0.00000000000E+00 0.  1.
         11    1    1    2    0    0 -0.14397729518E+02 -0.43753487001E+02 -0.30139915040E+02  0.55046132640E+02  0.00000000000E+00 0. -1.
</event>
<event>
 7    1  0.2943257E-009  0.1657177E+03  0.7561462E-02  0.1182389E+00
          2   -1    0    0  501    0  0.00000000000E+00  0.00000000000E+00  0.15642143342E+04  0.15642143342E+04  0.00000000000E+00 0. -1.
         -2   -1    0    0    0  501 -0.00000000000E+00 -0.00000000000E+00 -0.22333366955E+02  0.22333366955E+02  0.00000000000E+00 0.  1.
         25    2    1    2    0    0  0.63726101129E+02 -0.13743195713E+03  0.79590559799E+03  0.81979371579E+03  0.12508979465E+03 0.  0.
          5    1    3    3  502    0  0.79774507621E+02 -0.13570085933E+03  0.78308559858E+03  0.79876105463E+03  0.41800000000E+01 0.  1.
         -5    1    3    3    0  502 -0.16048406492E+02 -0.17310978009E+01  0.12819999413E+02  0.21032661160E+02  0.41800000000E+01 0.  1.
        -11    1    1    2    0    0  0.12636561981E+01  0.40920278457E+02  0.72143922674E+02  0.82950657591E+02  0.00000000000E+00 0.  1.
         11    1    1    2    0    0 -0.64989757327E+02  0.96511678674E+02  0.67383144661E+03  0.68380332781E+03  0.00000000000E+00 0. -1.
</event>
<event>
 7    1  0.2943257E-009  0.1868347E+03  0.7561462E-02  0.1161348E+00
          2   -1    0    0  501    0  0.00000000000E+00  0.00000000000E+00  0.21843754691E+04  0.21843754691E+04  0.00000000000E+00 0. -1.
         -2   -1    0    0    0  501 -0.00000000000E+00 -0.00000000000E+00 -0.19203320246E+02  0.19203320246E+02  0.00000000000E+00 0.  1.
         25    2    1    2    0    0  0.11503000320E+03 -0.12254178279E+03  0.13452643693E+04  0.13614812789E+04  0.12508660729E+03 0.  0.
          5    1    3    3  502    0  0.29831385923E+02 -0.87772992470E+02  0.35452531675E+03  0.36646921072E+03  0.41800000000E+01 0.  1.
         -5    1    3    3    0  502  0.85198617276E+02 -0.34768790322E+02  0.99073905253E+03  0.99501206816E+03  0.41800000000E+01 0.  1.
        -11    1    1    2    0    0 -0.39800797864E+02  0.10388489178E+03  0.55707353785E+03  0.56807314742E+03  0.00000000000E+00 0.  1.
         11    1    1    2    0    0 -0.75229205335E+02  0.18656891011E+02  0.26283424174E+03  0.27402436305E+03  0.00000000000E+00 0. -1.
</event>
<event>
 7    1  0.2943257E-009  0.2201366E+03  0.7561462E-02  0.1133781E+00
          1   -1    0    0  501    0  0.00000000000E+00  0.00000000000E+00  0.23783435272E+03  0.23783435272E+03  0.00000000000E+00 0. -1.
         -1   -1    0    0    0  501 -0.00000000000E+00 -0.00000000000E+00 -0.23076606038E+03  0.23076606038E+03  0.00000000000E+00 0.  1.
         25    2    1    2    0    0  0.19157397663E+03 -0.60219754440E+02  0.54784951616E+02  0.24285880262E+03  0.12510795234E+03 0.  0.
          5    1    3    3  502    0  0.94170050749E+02 -0.93703342494E+02  0.22243016953E+02  0.13476104428E+03  0.41800000000E+01 0.  1.
         -5    1    3    3    0  502  0.97403925879E+02  0.33483588054E+02  0.32541934663E+02  0.10809775834E+03  0.41800000000E+01 0.  1.
        -11    1    1    2    0    0 -0.30926244350E+02  0.25113039977E+02 -0.46587995470E+02  0.61298765798E+02  0.00000000000E+00 0.  1.
         11    1    1    2    0    0 -0.16064773228E+03  0.35106714462E+02 -0.11286638106E+01  0.16444284469E+03  0.00000000000E+00 0. -1.
</event>
<event>
 7    1  0.2943257E-009  0.1351034E+03  0.7561462E-02  0.1220074E+00
         -2   -1    0    0    0  501 -0.00000000000E+00  0.00000000000E+00  0.36203823948E+02  0.36203823948E+02  0.00000000000E+00 0.  1.
          2   -1    0    0  501    0  0.00000000000E+00 -0.00000000000E+00 -0.60905927497E+03  0.60905927497E+03  0.00000000000E+00 0. -1.
         25    2    1    2    0    0  0.60246952731E+02 -0.66855169858E+02 -0.42130338663E+03  0.44860165786E+03  0.12509034658E+03 0.  0.
          5    1    3    3  502    0 -0.26484271812E+02 -0.60728090892E+02 -0.20321383720E+03  0.21378178993E+03  0.41800000000E+01 0.  1.
         -5    1    3    3    0  502  0.86731224543E+02 -0.61270789656E+01 -0.21808954943E+03  0.23481986794E+03  0.41800000000E+01 0.  1.
        -11    1    1    2    0    0 -0.72365923966E+02  0.30638113346E+02 -0.64730424225E+02  0.10181133906E+03  0.00000000000E+00 0.  1.
         11    1    1    2    0    0  0.12118971235E+02  0.36217056511E+02 -0.86821640170E+02  0.94850101992E+02  0.00000000000E+00 0. -1.
</event>
<event>
 7    1  0.2943257E-009  0.1304510E+03  0.7561462E-02  0.1226788E+00
          2   -1    0    0  501    0  0.00000000000E+00  0.00000000000E+00  0.39794479291E+03  0.39794479291E+03  0.00000000000E+00 0.  1.
         -2   -1    0    0    0  501 -0.00000000000E+00 -0.00000000000E+00 -0.65909076667E+02  0.65909076667E+02  0.00000000000E+00 0. -1.
         25    2    1    2    0    0  0.82024592508E+02 -0.74347984093E+02  0.21625322589E+03  0.27325541225E+03  0.12508959230E+03 0.  0.
          5    1    3    3  502    0 -0.21937029001E+02 -0.73073276348E+01  0.10246772618E+03  0.10512724474E+03  0.41800000000E+01 0.  1.
         -5    1    3    3    0  502  0.10396162151E+03 -0.67040656458E+02  0.11378549971E+03  0.16812816751E+03  0.41800000000E+01 0.  1.
        -11    1    1    2    0    0 -0.74882686984E+02  0.54722464458E+02  0.13394501440E+03  0.16292093730E+03  0.00000000000E+00 0.  1.
         11    1    1    2    0    0 -0.71419055244E+01  0.19625519634E+02 -0.18162524047E+02  0.27677520033E+02  0.00000000000E+00 0. -1.
</event>
<event>
 7    1  0.2943257E-009  0.4188557E+03  0.7561462E-02  0.1037439E+00
          3   -1    0    0  501    0  0.00000000000E+00  0.00000000000E+00  0.17462487902E+04  0.17462487902E+04  0.00000000000E+00 0. -1.
         -3   -1    0    0    0  501 -0.00000000000E+00 -0.00000000000E+00 -0.11015827977E+03  0.11015827977E+03  0.00000000000E+00 0.  1.
         25    2    1    2    0    0 -0.16598012393E+03  0.38289003009E+03  0.65826343033E+03  0.78937477765E+03  0.12509044407E+03 0.  0.
          5    1    3    3  502    0 -0.12036739016E+03  0.25093967989E+03  0.53505013268E+03  0.60312117227E+03  0.41800000000E+01 0.  1.
         -5    1    3    3    0  502 -0.45612733774E+02  0.13195035020E+03  0.12321329765E+03  0.18625360538E+03  0.41800000000E+01 0.  1.
        -11    1    1    2    0    0  0.45976405646E+02 -0.16091766013E+03  0.29637723921E+03  0.34036420367E+03  0.00000000000E+00 0.  1.
         11    1    1    2    0    0  0.12000371828E+03 -0.22197236996E+03  0.68144984087E+03  0.72666808864E+03  0.00000000000E+00 0. -1.
</event>
<event>
 7    1  0.2943257E-009  0.1089038E+03  0.7561462E-02  0.1262614E+00
         -1   -1    0    0    0  501 -0.00000000000E+00  0.00000000000E+00  0.45218673594E+03  0.45218673594E+03  0.00000000000E+00 0.  1.
          1   -1    0    0  501    0  0.00000000000E+00 -0.00000000000E+00 -0.67777325024E+02  0.67777325024E+02  0.00000000000E+00 0. -1.
         25    2    1    2    0    0 -0.68916118570E+02  0.21713881820E+02  0.37493191876E+03  0.40179838345E+03  0.12508826155E+03 0.  0.
          5    1    3    3  502    0 -0.37911498712E+02  0.64947092570E+02  0.12261980245E+03  0.14390446456E+03  0.41800000000E+01 0.  1.
         -5    1    3    3    0  502 -0.31004619859E+02 -0.43233210750E+02  0.25231211631E+03  0.25789391889E+03  0.41800000000E+01 0.  1.
        -11    1    1    2    0    0  0.14103920303E+00 -0.20334162046E+02 -0.31944946117E+02  0.37867896965E+02  0.00000000000E+00 0. -1.
         11    1    1    2    0    0  0.68775079367E+02 -0.13797197743E+01  0.41422438280E+02  0.80297780552E+02  0.00000000000E+00 0.  1.
</event>
<event>
 7    1  0.2943257E-009  0.1430239E+03  0.7561462E-02  0.1209317E+00
          1   -1    0    0  501    0  0.00000000000E+00  0.00000000000E+00  0.20137420847E+03  0.20137420847E+03  0.00000000000E+00 0. -1.
         -1   -1    0    0    0  501 -0.00000000000E+00 -0.00000000000E+00 -0.14666819919E+03  0.14666819919E+03  0.00000000000E+00 0.  1.
         25    2    1    2    0    0  0.10693246807E+03  0.77600897863E+02  0.45140571980E+02  0.18746524923E+03  0.12509634828E+03 0.  0.
          5    1    3    3  502    0  0.73589045988E+02  0.71970473345E+02 -0.28019555819E+02  0.10675984559E+03  0.41800000000E+01 0. -1.
         -5    1    3    3    0  502  0.33343422083E+02  0.56304245180E+01  0.73160127799E+02  0.80705403636E+02  0.41800000000E+01 0. -1.
        -11    1    1    2    0    0 -0.50081000429E+02 -0.77300039497E+02  0.34688913717E+02  0.98421153443E+02  0.00000000000E+00 0.  1.
         11    1    1    2    0    0 -0.56851467642E+02 -0.30085836547E+00 -0.25123476414E+02  0.62156004987E+02  0.00000000000E+00 0. -1.
</event>
<event>
 7    1  0.2943257E-009  0.3145776E+03  0.7561462E-02  0.1078172E+00
          1   -1    0    0  501    0  0.00000000000E+00  0.00000000000E+00  0.41432082787E+03  0.41432082787E+03  0.00000000000E+00 0. -1.
         -1   -1    0    0    0  501 -0.00000000000E+00 -0.00000000000E+00 -0.31050467096E+03  0.31050467096E+03  0.00000000000E+00 0.  1.
         25    2    1    2    0    0 -0.83706462110E+02 -0.29519195415E+03  0.20368774773E+03  0.38894906895E+03  0.12509043958E+03 0.  0.
          5    1    3    3  502    0  0.18492179794E+02 -0.98422820313E+02  0.22863921756E+02  0.10280682657E+03  0.41800000000E+01 0.  1.
         -5    1    3    3    0  502 -0.10219864190E+03 -0.19676913383E+03  0.18082382597E+03  0.28614224238E+03  0.41800000000E+01 0.  1.
        -11    1    1    2    0    0  0.13553419605E+02  0.31481687708E+02 -0.46592911548E+02  0.57841950610E+02  0.00000000000E+00 0.  1.
         11    1    1    2    0    0  0.70153042505E+02  0.26371026644E+03 -0.53278679272E+02  0.27803447927E+03  0.00000000000E+00 0. -1.
</event>
<event>
 7    1  0.2943257E-009  0.2103747E+03  0.7561462E-02  0.1141270E+00
          3   -1    0    0  501    0  0.00000000000E+00  0.00000000000E+00  0.71407286238E+02  0.71407286238E+02  0.00000000000E+00 0. -1.
         -3   -1    0    0    0  501 -0.00000000000E+00 -0.00000000000E+00 -0.80858587745E+03  0.80858587745E+03  0.00000000000E+00 0.  1.
         25    2    1    2    0    0  0.56741986326E+02 -0.18239093508E+03 -0.20204071261E+03  0.30488367710E+03  0.12508997081E+03 0.  0.
          5    1    3    3  502    0 -0.13762570806E+01  0.14048832681E+02  0.29864005011E+01  0.15021809851E+02  0.41800000000E+01 0. -1.
         -5    1    3    3    0  502  0.58118243407E+02 -0.19643976776E+03 -0.20502711312E+03  0.28986186725E+03  0.41800000000E+01 0. -1.
        -11    1    1    2    0    0 -0.67343273968E+02  0.11795053264E+03 -0.43367256106E+03  0.45444398436E+03  0.00000000000E+00 0.  1.
         11    1    1    2    0    0  0.10601287642E+02  0.64440402436E+02 -0.10146531753E+03  0.12066550223E+03  0.00000000000E+00 0. -1.
</event>
<event>
 7    1  0.2943257E-009  0.7371662E+02  0.7561462E-02  0.1347892E+00
          2   -1    0    0  501    0  0.00000000000E+00  0.00000000000E+00  0.13703618476E+03  0.13703618476E+03  0.00000000000E+00 0. -1.
         -2   -1    0    0    0  501 -0.00000000000E+00 -0.00000000000E+00 -0.99968005019E+02  0.99968005019E+02  0.00000000000E+00 0.  1.
         25    2    1    2    0    0  0.11881550043E+02  0.14601926030E+01  0.68089284671E+02  0.14292363067E+03  0.12509080750E+03 0.  0.
          5    1    3    3  502    0  0.30030790591E+02  0.50332165532E+02  0.22001424046E+01  0.58800410690E+02  0.41800000000E+01 0. -1.
         -5    1    3    3    0  502 -0.18149240548E+02 -0.48871972929E+02  0.65889142267E+02  0.84123219976E+02  0.41800000000E+01 0. -1.
        -11    1    1    2    0    0  0.10576151380E+02 -0.76799801626E+01 -0.57407832137E+02  0.58876958684E+02  0.00000000000E+00 0.  1.
         11    1    1    2    0    0 -0.22457701423E+02  0.62197875597E+01  0.26386727207E+02  0.35203600429E+02  0.00000000000E+00 0. -1.
</event>
<event>
 7    1  0.2943257E-009  0.1289026E+03  0.7561462E-02  0.1229093E+00
          1   -1    0    0  501    0  0.00000000000E+00  0.00000000000E+00  0.86605018704E+03  0.86605018704E+03  0.00000000000E+00 0. -1.
         -1   -1    0    0    0  501 -0.00000000000E+00 -0.00000000000E+00 -0.29352571987E+02  0.29352571987E+02  0.00000000000E+00 0.  1.
         25    2    1    2    0    0  0.53729596229E+02  0.90473848581E+02  0.40481439849E+03  0.43657439807E+03  0.12510044382E+03 0.  0.
          5    1    3    3  502    0  0.21603621042E+02 -0.20883827807E+02  0.24574348930E+02  0.39041282398E+02  0.41800000000E+01 0.  1.
         -5    1    3    3    0  502  0.32125975187E+02  0.11135767639E+03  0.38024004956E+03  0.39753311568E+03  0.41800000000E+01 0.  1.
        -11    1    1    2    0    0 -0.35997519694E+02 -0.25423507867E+02  0.35051920617E+02  0.56309975273E+02  0.00000000000E+00 0.  1.
         11    1    1    2    0    0 -0.17732076535E+02 -0.65050340714E+02  0.39683129595E+03  0.40251838568E+03  0.00000000000E+00 0. -1.
</event>
<event>
 7    1  0.2943257E-009  0.1247306E+03  0.7561462E-02  0.1235491E+00
          1   -1    0    0  501    0  0.00000000000E+00  0.00000000000E+00  0.81502810451E+03  0.81502810451E+03  0.00000000000E+00 0. -1.
         -1   -1    0    0    0  501 -0.00000000000E+00 -0.00000000000E+00 -0.25188370449E+02  0.25188370449E+02  0.00000000000E+00 0.  1.
         25    2    1    2    0    0 -0.56207980649E+02 -0.68018168583E+02  0.33847614771E+03  0.37148286208E+03  0.12509039093E+03 0.  0.
          5    1    3    3  502    0 -0.66878873060E+02  0.76931442152E+01  0.22257514516E+03  0.23257071134E+03  0.41800000000E+01 0.  1.
         -5    1    3    3    0  502  0.10670892411E+02 -0.75711312798E+02  0.11590100255E+03  0.13891215074E+03  0.41800000000E+01 0.  1.
        -11    1    1    2    0    0  0.22468562926E+02 -0.67075413652E+01  0.23914314018E+02  0.33492116177E+02  0.00000000000E+00 0.  1.
         11    1    1    2    0    0  0.33739417723E+02  0.74725709948E+02  0.42744927233E+03  0.43524149670E+03  0.00000000000E+00 0. -1.
</event>
<event>
 7    1  0.2943257E-009  0.1663843E+03  0.7561462E-02  0.1181672E+00
          2   -1    0    0  501    0  0.00000000000E+00  0.00000000000E+00  0.57749568027E+02  0.57749568027E+02  0.00000000000E+00 0. -1.
         -2   -1    0    0    0  501 -0.00000000000E+00 -0.00000000000E+00 -0.62153995637E+03  0.62153995637E+03  0.00000000000E+00 0.  1.
         25    2    1    2    0    0  0.12762988242E+03 -0.21668965865E+01 -0.13658591451E+03  0.22493711203E+03  0.12508760930E+03 0.  0.
          5    1    3    3  502    0  0.88424579165E+02 -0.61247899053E+02 -0.84765719161E+02  0.13701427255E+03  0.41800000000E+01 0. -1.
         -5    1    3    3    0  502  0.39205303258E+02  0.59081002466E+02 -0.51820195345E+02  0.87922839476E+02  0.41800000000E+01 0. -1.
        -11    1    1    2    0    0 -0.55473418329E+02  0.43895668684E+02 -0.21630115694E+03  0.22757486761E+03  0.00000000000E+00 0.  1.
         11    1    1    2    0    0 -0.72156464094E+02 -0.41728772098E+02 -0.21090331690E+03  0.22677754477E+03  0.00000000000E+00 0. -1.
</event>
<event>
 7    1  0.2943257E-009  0.9828101E+02  0.7561462E-02  0.1283953E+00
         -3   -1    0    0    0  501 -0.00000000000E+00  0.00000000000E+00  0.77844799392E+03  0.77844799392E+03  0.00000000000E+00 0.  1.
          3   -1    0    0  501    0  0.00000000000E+00 -0.00000000000E+00 -0.17598172408E+02  0.17598172408E+02  0.00000000000E+00 0. -1.
         25    2    1    2    0    0 -0.45266465847E+02 -0.18106586189E+02  0.54302923094E+03  0.55937536618E+03  0.12507259189E+03 0.  0.
          5    1    3    3  502    0 -0.15541315925E+02 -0.55409372392E+02  0.45940107329E+03  0.46301031262E+03  0.41800000000E+01 0. -1.
         -5    1    3    3    0  502 -0.29725149922E+02  0.37302786204E+02  0.83628157648E+02  0.96365053562E+02  0.41800000000E+01 0. -1.
        -11    1    1    2    0    0 -0.16326865308E+02  0.24087204964E+02  0.91335484030E+02  0.95858909950E+02  0.00000000000E+00 0.  1.
         11    1    1    2    0    0  0.61593331155E+02 -0.59806187749E+01  0.12648510654E+03  0.14081189020E+03  0.00000000000E+00 0. -1.
</event>
<event>
 7    1  0.2943257E-009  0.1063438E+03  0.7561462E-02  0.1267494E+00
          2   -1    0    0  501    0  0.00000000000E+00  0.00000000000E+00  0.50033884561E+03  0.50033884561E+03  0.00000000000E+00 0. -1.
         -2   -1    0    0    0  501 -0.00000000000E+00 -0.00000000000E+00 -0.25808810117E+02  0.25808810117E+02  0.00000000000E+00 0.  1.
         25    2    1    2    0    0  0.23643609433E+02 -0.20221493696E+02  0.23593110892E+03  0.26884698765E+03  0.12508911039E+03 0.  0.
          5    1    3    3  502    0  0.54107912149E+02 -0.54758686404E+02  0.10705535408E+03  0.13192611997E+03  0.41800000000E+01 0. -1.
         -5    1    3    3    0  502 -0.30464302716E+02  0.34537192708E+02  0.12887575484E+03  0.13692086768E+03  0.41800000000E+01 0. -1.
        -11    1    1    2    0    0  0.29568867412E+02 -0.57739261709E+01  0.13161031117E+03  0.13501455533E+03  0.00000000000E+00 0.  1.
         11    1    1    2    0    0 -0.53212476845E+02  0.25995419867E+02  0.10698861540E+03  0.12228611275E+03  0.00000000000E+00 0. -1.
</event>
<event>
 7    1  0.2943257E-009  0.9529299E+02  0.7561462E-02  0.1290518E+00
         -2   -1    0    0    0  501 -0.00000000000E+00  0.00000000000E+00  0.18674964244E+02  0.18674964244E+02  0.00000000000E+00 0.  1.
          2   -1    0    0  501    0  0.00000000000E+00 -0.00000000000E+00 -0.72428663908E+03  0.72428663908E+03  0.00000000000E+00 0. -1.
         25    2    1    2    0    0 -0.17492048522E+01 -0.12064927126E+02 -0.52717290997E+03  0.54195419419E+03  0.12511774217E+03 0.  0.
          5    1    3    3  502    0  0.60875134173E+02 -0.68616477845E+01 -0.29960047752E+03  0.30582802798E+03  0.41800000000E+01 0. -1.
         -5    1    3    3    0  502 -0.62624339025E+02 -0.52032793413E+01 -0.22757243245E+03  0.23612616621E+03  0.41800000000E+01 0. -1.
        -11    1    1    2    0    0  0.24748817230E+02  0.28641718633E+02 -0.25922308679E+02  0.45878296479E+02  0.00000000000E+00 0.  1.
         11    1    1    2    0    0 -0.22999612378E+02 -0.16576791507E+02 -0.15251645619E+03  0.15512911266E+03  0.00000000000E+00 0. -1.
</event>
<event>
 7    1  0.2943257E-009  0.2035501E+03  0.7561462E-02  0.1146778E+00
          2   -1    0    0  501    0  0.00000000000E+00  0.00000000000E+00  0.12528147984E+04  0.12528147984E+04  0.00000000000E+00 0. -1.
         -2   -1    0    0    0  501 -0.00000000000E+00 -0.00000000000E+00 -0.38289545385E+02  0.38289545385E+02  0.00000000000E+00 0.  1.
         25    2    1    2    0    0  0.42821834350E+02 -0.17471462913E+03  0.45238879119E+03  0.50265461886E+03  0.12508851401E+03 0.  0.
          5    1    3    3  502    0 -0.10029396126E+02 -0.15449778583E+03  0.26582451538E+03  0.30765288881E+03  0.41800000000E+01 0.  1.
         -5    1    3    3    0  502  0.52851230476E+02 -0.20216843299E+02  0.18656427581E+03  0.19500173005E+03  0.41800000000E+01 0.  1.
        -11    1    1    2    0    0  0.84528009272E+01  0.12073350141E+03  0.56272198310E+03  0.57559018274E+03  0.00000000000E+00 0.  1.
         11    1    1    2    0    0 -0.51274635277E+02  0.53981127719E+02  0.19941447874E+03  0.21285954219E+03  0.00000000000E+00 0. -1.
</event>
<event>
 7    1  0.2943257E-009  0.9991146E+02  0.7561462E-02  0.1280482E+00
         -2   -1    0    0    0  501 -0.00000000000E+00  0.00000000000E+00  0.63474369160E+02  0.63474369160E+02  0.00000000000E+00 0.  1.
          2   -1    0    0  501    0  0.00000000000E+00 -0.00000000000E+00 -0.21827604127E+03  0.21827604127E+03  0.00000000000E+00 0. -1.
         25    2    1    2    0    0 -0.35641308437E+02  0.20539296589E+02 -0.11554143410E+03  0.17518459504E+03  0.12509058227E+03 0.  0.
          5    1    3    3  502    0  0.96161839124E+00 -0.40773223212E+02 -0.90577437969E+02  0.99423966477E+02  0.41800000000E+01 0.  1.
         -5    1    3    3    0  502 -0.36602926828E+02  0.61312519801E+02 -0.24963996136E+02  0.75760628560E+02  0.41800000000E+01 0.  1.
        -11    1    1    2    0    0  0.60166347230E+02 -0.12197348825E+02 -0.23026090483E+01  0.61433432802E+02  0.00000000000E+00 0.  1.
         11    1    1    2    0    0 -0.24525038793E+02 -0.83419477641E+01 -0.36957628961E+02  0.45132382595E+02  0.00000000000E+00 0. -1.
</event>
<event>
 7    1  0.2943257E-009  0.1535487E+03  0.7561462E-02  0.1196179E+00
         -2   -1    0    0    0  501 -0.00000000000E+00  0.00000000000E+00  0.42467744844E+03  0.42467744844E+03  0.00000000000E+00 0.  1.
          2   -1    0    0  501    0  0.00000000000E+00 -0.00000000000E+00 -0.76895420541E+02  0.76895420541E+02  0.00000000000E+00 0. -1.
         25    2    1    2    0    0 -0.11045183491E+03  0.19151640321E+02  0.31178633210E+03  0.35414600378E+03  0.12506910866E+03 0.  0.
          5    1    3    3  502    0 -0.71301380094E+02 -0.49927320569E+02  0.14096975001E+03  0.16573040445E+03  0.41800000000E+01 0.  1.
         -5    1    3    3    0  502 -0.39150454815E+02  0.69078960890E+02  0.17081658209E+03  0.18841559932E+03  0.41800000000E+01 0.  1.
        -11    1    1    2    0    0  0.18097649867E+02 -0.41627717616E+02 -0.10737917235E+01  0.45404238054E+02  0.00000000000E+00 0.  1.
         11    1    1    2    0    0  0.92354185042E+02  0.22476077295E+02  0.37069487516E+02  0.10202262715E+03  0.00000000000E+00 0. -1.
</event>
<event>
 7    1  0.2943257E-009  0.6007250E+02  0.7561462E-02  0.1397528E+00
         -2   -1    0    0    0  501 -0.00000000000E+00  0.00000000000E+00  0.10839108308E+03  0.10839108308E+03  0.00000000000E+00 0.  1.
          2   -1    0    0  501    0  0.00000000000E+00 -0.00000000000E+00 -0.11177232223E+03  0.11177232223E+03  0.00000000000E+00 0. -1.
         25    2    1    2    0    0 -0.12970756116E+02  0.77389376797E+01 -0.11247231193E+02  0.12650117258E+03  0.12509162555E+03 0.  0.
          5    1    3    3  502    0 -0.21845177688E+02  0.11786389781E+02 -0.66048229147E+02  0.70682188320E+02  0.41800000000E+01 0.  1.
         -5    1    3    3    0  502  0.88744215721E+01 -0.40474521017E+01  0.54800997954E+02  0.55818984257E+02  0.41800000000E+01 0.  1.
        -11    1    1    2    0    0 -0.30469202467E+02 -0.23153205757E+02 -0.16326744886E+02  0.41605358241E+02  0.00000000000E+00 0. -1.
         11    1    1    2    0    0  0.43439958583E+02  0.15414268077E+02  0.24192736930E+02  0.52056874495E+02  0.00000000000E+00 0.  1.
</event>
<event>
 7    1  0.2943257E-009  0.1409276E+03  0.7561462E-02  0.1212086E+00
         -1   -1    0    0    0  501 -0.00000000000E+00  0.00000000000E+00  0.67396875889E+02  0.67396875889E+02  0.00000000000E+00 0.  1.
          1   -1    0    0  501    0  0.00000000000E+00 -0.00000000000E+00 -0.32182946789E+03  0.32182946789E+03  0.00000000000E+00 0. -1.
         25    2    1    2    0    0  0.53429588860E+02 -0.82683493076E+02 -0.13206198646E+03  0.20683042220E+03  0.12508866570E+03 0.  0.
          5    1    3    3  502    0  0.78687975896E+02 -0.22195632638E+02 -0.33647460123E+02  0.88510268509E+02  0.41800000000E+01 0. -1.
         -5    1    3    3    0  502 -0.25258387036E+02 -0.60487860437E+02 -0.98414526334E+02  0.11832015369E+03  0.41800000000E+01 0. -1.
        -11    1    1    2    0    0  0.25837673271E+02  0.13801931779E+02 -0.36098070144E+02  0.46488163536E+02  0.00000000000E+00 0. -1.
         11    1    1    2    0    0 -0.79267262130E+02  0.68881561296E+02 -0.86272535402E+02  0.13590775805E+03  0.00000000000E+00 0.  1.
</event>
<event>
 7    1  0.2943257E-009  0.1211821E+03  0.7561462E-02  0.1241160E+00
          1   -1    0    0  501    0  0.00000000000E+00  0.00000000000E+00  0.10011508564E+03  0.10011508564E+03  0.00000000000E+00 0. -1.
         -1   -1    0    0    0  501 -0.00000000000E+00 -0.00000000000E+00 -0.19989148660E+03  0.19989148660E+03  0.00000000000E+00 0.  1.
         25    2    1    2    0    0  0.41024458913E+02  0.23183743052E+02  0.17022727982E+02  0.13474974950E+03  0.12508888660E+03 0.  0.
          5    1    3    3  502    0  0.31500041400E+02 -0.48768093573E+02 -0.59411230532E+01  0.58509391572E+02  0.41800000000E+01 0. -1.
         -5    1    3    3    0  502  0.95244175128E+01  0.71951836625E+02  0.22963851035E+02  0.76240357928E+02  0.41800000000E+01 0. -1.
        -11    1    1    2    0    0 -0.30393291427E+01  0.38714310147E+02 -0.18433238391E+02  0.42986272337E+02  0.00000000000E+00 0. -1.
         11    1    1    2    0    0 -0.37985129770E+02 -0.61898053199E+02 -0.98365890544E+02  0.12227055040E+03  0.00000000000E+00 0.  1.
</event>
<event>
 7    1  0.2943257E-009  0.1091463E+03  0.7561462E-02  0.1262159E+00
          1   -1    0    0  501    0  0.00000000000E+00  0.00000000000E+00  0.46396888704E+03  0.46396888704E+03  0.00000000000E+00 0.  1.
         -1   -1    0    0    0  501 -0.00000000000E+00 -0.00000000000E+00 -0.91534507282E+02  0.91534507282E+02  0.00000000000E+00 0. -1.
         25    2    1    2    0    0 -0.95558844667E+02 -0.22518107262E+02  0.38919696935E+03  0.42042882270E+03  0.12509019169E+03 0.  0.
          5    1    3    3  502    0 -0.64734215978E+02 -0.41584378472E+02  0.37235534227E+03  0.38024433273E+03  0.41800000000E+01 0. -1.
         -5    1    3    3    0  502 -0.30824628689E+02  0.19066271209E+02  0.16841627072E+02  0.40184489969E+02  0.41800000000E+01 0. -1.
        -11    1    1    2    0    0  0.53680548547E+02  0.31052651542E+02 -0.51016342444E+02  0.80302774899E+02  0.00000000000E+00 0. -1.
         11    1    1    2    0    0  0.41878296120E+02 -0.85345442801E+01  0.34253752858E+02  0.54771796728E+02  0.00000000000E+00 0.  1.
</event>
<event>
 7    1  0.2943257E-009  0.8327469E+02  0.7561462E-02  0.1320007E+00
          1   -1    0    0  501    0  0.00000000000E+00  0.00000000000E+00  0.23666489027E+03  0.23666489027E+03  0.00000000000E+00 0. -1.
         -1   -1    0    0    0  501 -0.00000000000E+00 -0.00000000000E+00 -0.75052840795E+02  0.75052840795E+02  0.00000000000E+00 0.  1.
         25    2    1    2    0    0 -0.22535349888E+02  0.49519094794E+02  0.24725499198E+02  0.13863342462E+03  0.12509153995E+03 0.  0.
          5    1    3    3  502    0  0.19039877609E+02 -0.57589515341E+01  0.58222043792E+02  0.61668154224E+02  0.41800000000E+01 0.  1.
         -5    1    3    3    0  502 -0.41575227497E+02  0.55278046328E+02 -0.33496544593E+02  0.76965270395E+02  0.41800000000E+01 0.  1.
        -11    1    1    2    0    0  0.29942282202E+01 -0.56198485298E+02  0.14118700196E+03  0.15199014664E+03  0.00000000000E+00 0. -1.
         11    1    1    2    0    0  0.19541121668E+02  0.66793905041E+01 -0.43004516802E+01  0.21094159812E+02  0.00000000000E+00 0.  1.
</event>
<event>
 7    1  0.2943257E-009  0.1226434E+03  0.7561462E-02  0.1238799E+00
          1   -1    0    0  501    0  0.00000000000E+00  0.00000000000E+00  0.50195893000E+02  0.50195893000E+02  0.00000000000E+00 0. -1.
         -1   -1    0    0    0  501 -0.00000000000E+00 -0.00000000000E+00 -0.38875451687E+03  0.38875451687E+03  0.00000000000E+00 0.  1.
         25    2    1    2    0    0 -0.73922404513E+02  0.32236574133E+02 -0.13001053717E+03  0.19762233580E+03  0.12509248272E+03 0.  0.
          5    1    3    3  502    0  0.11698602353E+02  0.37865775907E+02  0.22451438203E+01  0.39914751069E+02  0.41800000000E+01 0. -1.
         -5    1    3    3    0  502 -0.85621006866E+02 -0.56292017750E+01 -0.13225568099E+03  0.15770758473E+03  0.41800000000E+01 0. -1.
        -11    1    1    2    0    0  0.93975938574E+02 -0.20145124509E+02 -0.18278486128E+03  0.20651297437E+03  0.00000000000E+00 0. -1.
         11    1    1    2    0    0 -0.20053534061E+02 -0.12091449623E+02 -0.25763225427E+02  0.34815099695E+02  0.00000000000E+00 0.  1.
</event>
<event>
 7    1  0.2943257E-009  0.1783740E+03  0.7561462E-02  0.1169386E+00
          1   -1    0    0  501    0  0.00000000000E+00  0.00000000000E+00  0.22292611070E+03  0.22292611070E+03  0.00000000000E+00 0. -1.
         -1   -1    0    0    0  501 -0.00000000000E+00 -0.00000000000E+00 -0.17624261819E+03  0.17624261819E+03  0.00000000000E+00 0.  1.
         25    2    1    2    0    0 -0.14345633258E+03 -0.82154995484E+02  0.20410243446E+02  0.20831226131E+03  0.12509299554E+03 0.  0.
          5    1    3    3  502    0 -0.61666792683E+02 -0.65216705988E+02  0.67458185592E+02  0.11235698137E+03  0.41800000000E+01 0. -1.
         -5    1    3    3    0  502 -0.81789539897E+02 -0.16938289496E+02 -0.47047942146E+02  0.95955279937E+02  0.41800000000E+01 0. -1.
        -11    1    1    2    0    0  0.47281035818E+02  0.72570722374E+02 -0.10911051493E+02  0.87298666305E+02  0.00000000000E+00 0.  1.
         11    1    1    2    0    0  0.96175296762E+02  0.95842731097E+01  0.37184300558E+02  0.10355780128E+03  0.00000000000E+00 0. -1.
</event>
<event>
 7    1  0.2943257E-009  0.1942423E+03  0.7561462E-02  0.1154690E+00
         -1   -1    0    0    0  501 -0.00000000000E+00  0.00000000000E+00  0.50321835506E+02  0.50321835506E+02  0.00000000000E+00 0.  1.
          1   -1    0    0  501    0  0.00000000000E+00 -0.00000000000E+00 -0.14090001379E+04  0.14090001379E+04  0.00000000000E+00 0. -1.
         25    2    1    2    0    0 -0.30495314562E+02 -0.16787146688E+03 -0.11697499022E+04  0.11887272349E+04  0.12508721611E+03 0.  0.
          5    1    3    3  502    0 -0.23714707986E+02 -0.18665861105E+03 -0.98208233739E+03  0.99995350605E+03  0.41800000000E+01 0. -1.
         -5    1    3    3    0  502 -0.67806065764E+01  0.18787144168E+02 -0.18766756486E+03  0.18877372887E+03  0.41800000000E+01 0. -1.
        -11    1    1    2    0    0 -0.15643360575E+02  0.22872394244E+02  0.38104432868E+00  0.27712927368E+02  0.00000000000E+00 0.  1.
         11    1    1    2    0    0  0.46138675137E+02  0.14499907264E+03 -0.18930944452E+03  0.24288181116E+03  0.00000000000E+00 0. -1.
</event>
<event>
 7    1  0.2943257E-009  0.1016219E+03  0.7561462E-02  0.1276922E+00
         -2   -1    0    0    0  501 -0.00000000000E+00  0.00000000000E+00  0.16041682006E+03  0.16041682006E+03  0.00000000000E+00 0.  1.
          2   -1    0    0  501    0  0.00000000000E+00 -0.00000000000E+00 -0.11401428414E+03  0.11401428414E+03  0.00000000000E+00 0. -1.
         25    2    1    2    0    0  0.34812118927E+01 -0.58903648439E+02  0.69916957600E+02  0.15497614369E+03  0.12508982979E+03 0.  0.
          5    1    3    3  502    0 -0.16874579213E+02 -0.73978669796E+02  0.93243409411E+02  0.12028882245E+03  0.41800000000E+01 0.  1.
         -5    1    3    3    0  502  0.20355791106E+02  0.15075021357E+02 -0.23326451811E+02  0.34687321237E+02  0.41800000000E+01 0.  1.
        -11    1    1    2    0    0  0.30358386282E+02  0.60511031542E+02  0.13761921467E+02  0.69084057773E+02  0.00000000000E+00 0.  1.
         11    1    1    2    0    0 -0.33839598175E+02 -0.16073831026E+01 -0.37276343144E+02  0.50370902744E+02  0.00000000000E+00 0. -1.
</event>
<event>
 7    1  0.2943257E-009  0.1808693E+03  0.7561462E-02  0.1166964E+00
         -1   -1    0    0    0  501 -0.00000000000E+00  0.00000000000E+00  0.82250598900E+02  0.82250598900E+02  0.00000000000E+00 0.  1.
          1   -1    0    0  501    0  0.00000000000E+00 -0.00000000000E+00 -0.48743536996E+03  0.48743536996E+03  0.00000000000E+00 0. -1.
         25    2    1    2    0    0  0.58158949320E+02  0.13713958738E+03 -0.10141687894E+03  0.21936787749E+03  0.12508857872E+03 0.  0.
          5    1    3    3  502    0  0.94893231072E+02  0.70448563670E+02 -0.62401194276E+02  0.13371277753E+03  0.41800000000E+01 0.  1.
         -5    1    3    3    0  502 -0.36734281752E+02  0.66691023711E+02 -0.39015684668E+02  0.85655099962E+02  0.41800000000E+01 0.  1.
        -11    1    1    2    0    0 -0.40880406407E+02 -0.14319594735E+03 -0.22766303690E+03  0.27204180807E+03  0.00000000000E+00 0.  1.
         11    1    1    2    0    0 -0.17278542913E+02  0.60563599646E+01 -0.76104855212E+02  0.78276283305E+02  0.00000000000E+00 0. -1.
</event>
<event>
 7    1  0.2943257E-009  0.1436825E+03  0.7561462E-02  0.1208458E+00
         -1   -1    0    0    0  501 -0.00000000000E+00  0.00000000000E+00  0.10765187892E+03  0.10765187892E+03  0.00000000000E+00 0.  1.
          1   -1    0    0  501    0  0.00000000000E+00 -0.00000000000E+00 -0.28077424104E+03  0.28077424104E+03  0.00000000000E+00 0. -1.
         25    2    1    2    0    0 -0.52232297264E+02 -0.12408374884E+03 -0.75714544322E+02  0.19876173229E+03  0.12509414214E+03 0.  0.
          5    1    3    3  502    0 -0.46171344054E+02 -0.91446642541E+02 -0.11033445444E+03  0.15061688378E+03  0.41800000000E+01 0. -1.
         -5    1    3    3    0  502 -0.60609532102E+01 -0.32637106300E+02  0.34619910116E+02  0.48144848508E+02  0.41800000000E+01 0. -1.
        -11    1    1    2    0    0  0.55901086846E+02  0.43808480702E+02 -0.11353879599E+02  0.71923744854E+02  0.00000000000E+00 0.  1.
         11    1    1    2    0    0 -0.36687895813E+01  0.80275268140E+02 -0.86053938199E+02  0.11774064282E+03  0.00000000000E+00 0. -1.
</event>
<event>
 7    1  0.2943257E-009  0.1930193E+03  0.7561462E-02  0.1155766E+00
         -2   -1    0    0    0  501 -0.00000000000E+00  0.00000000000E+00  0.27872689014E+02  0.27872689014E+02  0.00000000000E+00 0.  1.
          2   -1    0    0  501    0  0.00000000000E+00 -0.00000000000E+00 -0.19451222687E+04  0.19451222687E+04  0.00000000000E+00 0. -1.
         25    2    1    2    0    0 -0.44573856055E+02 -0.16605232690E+03 -0.14694990284E+04  0.14848017629E+04  0.12509467155E+03 0.  0.
          5    1    3    3  502    0  0.34702187593E+02 -0.10534988136E+03 -0.86602226464E+03  0.87310645089E+03  0.41800000000E+01 0.  1.
         -5    1    3    3    0  502 -0.79276043648E+02 -0.60702445540E+02 -0.60347676375E+03  0.61169531204E+03  0.41800000000E+01 0.  1.
        -11    1    1    2    0    0  0.13447877206E+02  0.11143169848E+03 -0.17211032218E+03  0.20547465009E+03  0.00000000000E+00 0.  1.
         11    1    1    2    0    0  0.31125978849E+02  0.54620628413E+02 -0.27564022914E+03  0.28271854472E+03  0.00000000000E+00 0. -1.
</event>
<event>
 7    1  0.2943257E-009  0.1294124E+03  0.7561462E-02  0.1228330E+00
          2   -1    0    0  501    0  0.00000000000E+00  0.00000000000E+00  0.10710369015E+04  0.10710369015E+04  0.00000000000E+00 0. -1.
         -2   -1    0    0    0  501 -0.00000000000E+00 -0.00000000000E+00 -0.16383708906E+02  0.16383708906E+02  0.00000000000E+00 0.  1.
         25    2    1    2    0    0  0.14964536907E+02 -0.71775386059E+02  0.68580922847E+03  0.70096897505E+03  0.12509021833E+03 0.  0.
          5    1    3    3  502    0 -0.47388087890E+02 -0.65143035590E+02  0.33494678028E+03  0.34452295131E+03  0.41800000000E+01 0. -1.
         -5    1    3    3    0  502  0.62352624797E+02 -0.66323504694E+01  0.35086244819E+03  0.35644602374E+03  0.41800000000E+01 0. -1.
        -11    1    1    2    0    0  0.18695340187E+02  0.78752988438E+02  0.26038714549E+03  0.27267749168E+03  0.00000000000E+00 0. -1.
         11    1    1    2    0    0 -0.33659877094E+02 -0.69776023782E+01  0.10845681868E+03  0.11377414372E+03  0.00000000000E+00 0.  1.
</event>
<event>
 7    1  0.2943257E-009  0.9635425E+02  0.7561462E-02  0.1288155E+00
         -4   -1    0    0    0  501 -0.00000000000E+00  0.00000000000E+00  0.57895941047E+02  0.57895941047E+02  0.00000000000E+00 0.  1.
          4   -1    0    0  501    0  0.00000000000E+00 -0.00000000000E+00 -0.30957369989E+03  0.30957369989E+03  0.00000000000E+00 0. -1.
         25    2    1    2    0    0  0.15759151916E+02  0.74339039030E+01 -0.22807708146E+03  0.26070685933E+03  0.12508116412E+03 0.  0.
          5    1    3    3  502    0 -0.34043648526E+02 -0.29520700497E+02 -0.33114037523E+02  0.56075428165E+02  0.41800000000E+01 0.  1.
         -5    1    3    3    0  502  0.49802800443E+02  0.36954604400E+02 -0.19496304394E+03  0.20463143117E+03  0.41800000000E+01 0.  1.
        -11    1    1    2    0    0 -0.48210881753E+02 -0.17550482157E+02  0.16779359642E+02  0.53980139434E+02  0.00000000000E+00 0.  1.
         11    1    1    2    0    0  0.32451729836E+02  0.10116578254E+02 -0.40380037020E+02  0.52782642172E+02  0.00000000000E+00 0. -1.
</event>
<event>
 7    1  0.2943257E-009  0.6640797E+02  0.7561462E-02  0.1372752E+00
          1   -1    0    0  501    0  0.00000000000E+00  0.00000000000E+00  0.57234949184E+02  0.57234949184E+02  0.00000000000E+00 0. -1.
         -1   -1    0    0    0  501 -0.00000000000E+00 -0.00000000000E+00 -0.25867327557E+03  0.25867327557E+03  0.00000000000E+00 0.  1.
         25    2    1    2    0    0 -0.86396253715E+01 -0.29767217282E+02 -0.17163542532E+03  0.21463263095E+03  0.12509083378E+03 0.  0.
          5    1    3    3  502    0 -0.32993147718E+02 -0.29998974922E+02 -0.18229825856E+03  0.18771950822E+03  0.41800000000E+01 0.  1.
         -5    1    3    3    0  502  0.24353522346E+02  0.23175763947E+00  0.10662833246E+02  0.26913122730E+02  0.41800000000E+01 0.  1.
        -11    1    1    2    0    0 -0.16774299375E+02  0.33658855793E+02 -0.54109242839E+02  0.65894657246E+02  0.00000000000E+00 0.  1.
         11    1    1    2    0    0  0.25413924747E+02 -0.38916385111E+01  0.24306341770E+02  0.35380936555E+02  0.00000000000E+00 0. -1.
</event>
<event>
 7    1  0.2943257E-009  0.8266512E+02  0.7561462E-02  0.1321654E+00
         -2   -1    0    0    0  501 -0.00000000000E+00  0.00000000000E+00  0.65200428266E+02  0.65200428266E+02  0.00000000000E+00 0.  1.
          2   -1    0    0  501    0  0.00000000000E+00 -0.00000000000E+00 -0.25494166538E+03  0.25494166538E+03  0.00000000000E+00 0. -1.
         25    2    1    2    0    0  0.16237767315E+02  0.13107482907E+02 -0.19499587440E+03  0.23260820917E+03  0.12509083397E+03 0.  0.
          5    1    3    3  502    0 -0.17141318127E+02 -0.39850454974E+02 -0.14782207413E+03  0.15411269107E+03  0.41800000000E+01 0.  1.
         -5    1    3    3    0  502  0.33379085442E+02  0.52957937881E+02 -0.47173800272E+02  0.78495518099E+02  0.41800000000E+01 0.  1.
        -11    1    1    2    0    0 -0.15048925921E+02 -0.34471168369E+02 -0.28760502436E+02  0.47348686576E+02  0.00000000000E+00 0. -1.
         11    1    1    2    0    0 -0.11888413935E+01  0.21363685462E+02  0.34015139720E+02  0.40185197904E+02  0.00000000000E+00 0.  1.
</event>
<event>
 7    1  0.2943257E-009  0.1289280E+03  0.7561462E-02  0.1229055E+00
          2   -1    0    0  501    0  0.00000000000E+00  0.00000000000E+00  0.41051013373E+03  0.41051013373E+03  0.00000000000E+00 0. -1.
         -2   -1    0    0    0  501 -0.00000000000E+00 -0.00000000000E+00 -0.53836072643E+02  0.53836072643E+02  0.00000000000E+00 0.  1.
         25    2    1    2    0    0 -0.63409179289E+02 -0.71859368284E+02  0.14440085621E+03  0.21373318152E+03  0.12508306353E+03 0.  0.
          5    1    3    3  502    0 -0.13104987184E+02 -0.75902609630E+02  0.20399973599E+02  0.79790840079E+02  0.41800000000E+01 0.  1.
         -5    1    3    3    0  502 -0.50304192105E+02  0.40432413457E+01  0.12400088261E+03  0.13394234145E+03  0.41800000000E+01 0.  1.
        -11    1    1    2    0    0 -0.12619534430E+02  0.49129164816E+02  0.57451014404E+02  0.76639066675E+02  0.00000000000E+00 0.  1.
         11    1    1    2    0    0  0.76028713719E+02  0.22730203468E+02  0.15482219047E+03  0.17397395817E+03  0.00000000000E+00 0. -1.
</event>
<event>
 7    1  0.2943257E-009  0.9678814E+02  0.7561462E-02  0.1287199E+00
         -1   -1    0    0    0  501 -0.00000000000E+00  0.00000000000E+00  0.19400822027E+02  0.19400822027E+02  0.00000000000E+00 0.  1.
          1   -1    0    0  501    0  0.00000000000E+00 -0.00000000000E+00 -0.86022457710E+03  0.86022457710E+03  0.00000000000E+00 0. -1.
         25    2    1    2    0    0 -0.54257978784E+02 -0.29256400423E+02 -0.57865152752E+03  0.59521781745E+03  0.12508714834E+03 0.  0.
          5    1    3    3  502    0  0.11476637827E+02 -0.45640850412E+01 -0.43571159537E+03  0.43590665380E+03  0.41800000000E+01 0. -1.
         -5    1    3    3    0  502 -0.65734616611E+02 -0.24692315382E+02 -0.14293993215E+03  0.15931116365E+03  0.41800000000E+01 0. -1.
        -11    1    1    2    0    0  0.75044955906E+02  0.41814171012E+02 -0.20783514079E+03  0.22489023112E+03  0.00000000000E+00 0. -1.
         11    1    1    2    0    0 -0.20786977122E+02 -0.12557770589E+02 -0.54337086759E+02  0.59517350558E+02  0.00000000000E+00 0.  1.
</event>
<event>
 7    1  0.2943257E-009  0.7277573E+02  0.7561462E-02  0.1350901E+00
         -2   -1    0    0    0  501 -0.00000000000E+00  0.00000000000E+00  0.48436557816E+02  0.48436557816E+02  0.00000000000E+00 0.  1.
          2   -1    0    0  501    0  0.00000000000E+00 -0.00000000000E+00 -0.49017516425E+03  0.49017516425E+03  0.00000000000E+00 0. -1.
         25    2    1    2    0    0 -0.30424179476E+02  0.17593254507E+02 -0.41827909473E+03  0.43799459887E+03  0.12508682684E+03 0.  0.
          5    1    3    3  502    0  0.21359704055E+02  0.43795464375E+02 -0.73133385591E+02  0.87978657327E+02  0.41800000000E+01 0. -1.
         -5    1    3    3    0  502 -0.51783883531E+02 -0.26202209868E+02 -0.34514570914E+03  0.35001594154E+03  0.41800000000E+01 0. -1.
        -11    1    1    2    0    0  0.17776123361E+02 -0.18654116672E+02 -0.58190044221E+02  0.63639986463E+02  0.00000000000E+00 0. -1.
         11    1    1    2    0    0  0.12648056114E+02  0.10608621650E+01  0.34730532518E+02  0.36977136734E+02  0.00000000000E+00 0.  1.
</event>
<event>
 7    1  0.2943257E-009  0.9769090E+02  0.7561462E-02  0.1285228E+00
          1   -1    0    0  501    0  0.00000000000E+00  0.00000000000E+00  0.22727274632E+03  0.22727274632E+03  0.00000000000E+00 0. -1.
         -1   -1    0    0    0  501 -0.00000000000E+00 -0.00000000000E+00 -0.55655804018E+02  0.55655804018E+02  0.00000000000E+00 0.  1.
         25    2    1    2    0    0  0.43584701235E+01 -0.26171462549E+02  0.80233375616E+02  0.15095778524E+03  0.12508763588E+03 0.  0.
          5    1    3    3  502    0 -0.54644903780E+02 -0.52020679706E+01  0.85948987538E+01  0.55717786252E+02  0.41800000000E+01 0.  1.
         -5    1    3    3    0  502  0.59003373903E+02 -0.20969394579E+02  0.71638476862E+02  0.95239998993E+02  0.41800000000E+01 0.  1.
        -11    1    1    2    0    0 -0.38679658138E+02  0.12879526754E+02  0.85468238797E+02  0.94693283849E+02  0.00000000000E+00 0.  1.
         11    1    1    2    0    0  0.34321188014E+02  0.13291935795E+02  0.59153278886E+01  0.37277481244E+02  0.00000000000E+00 0. -1.
</event>
<event>
 7    1  0.2943257E-009  0.1140436E+03  0.7561462E-02  0.1253260E+00
         -2   -1    0    0    0  501 -0.00000000000E+00  0.00000000000E+00  0.36129979391E+03  0.36129979391E+03  0.00000000000E+00 0.  1.
          2   -1    0    0  501    0  0.00000000000E+00 -0.00000000000E+00 -0.63196841321E+02  0.63196841321E+02  0.00000000000E+00 0. -1.
         25    2    1    2    0    0  0.87010254408E+02 -0.12010303494E+02  0.79755521596E+02  0.17240696817E+03  0.12509271636E+03 0.  0.
          5    1    3    3  502    0  0.14998973838E+02  0.44899183336E+02  0.63159194935E+02  0.79040889325E+02  0.41800000000E+01 0. -1.
         -5    1    3    3    0  502  0.72011280570E+02 -0.56909486830E+02  0.16596326661E+02  0.93366078847E+02  0.41800000000E+01 0. -1.
        -11    1    1    2    0    0 -0.62268199015E+02  0.29541698842E+01  0.21692441585E+03  0.22570391649E+03  0.00000000000E+00 0.  1.
         11    1    1    2    0    0 -0.24742055393E+02  0.90561336101E+01  0.14230151463E+01  0.26385750570E+02  0.00000000000E+00 0. -1.
</event>
<event>
 7    1  0.2943257E-009  0.1043016E+03  0.7561462E-02  0.1271502E+00
         -2   -1    0    0    0  501 -0.00000000000E+00  0.00000000000E+00  0.17793800787E+03  0.17793800787E+03  0.00000000000E+00 0.  1.
          2   -1    0    0  501    0  0.00000000000E+00 -0.00000000000E+00 -0.11189227991E+03  0.11189227991E+03  0.00000000000E+00 0. -1.
         25    2    1    2    0    0  0.27783557130E+02 -0.66515931236E+02 -0.10484645495E+02  0.14475425452E+03  0.12509025244E+03 0.  0.
          5    1    3    3  502    0  0.26486276173E+02 -0.76510077307E+02  0.41889863969E+02  0.91255399065E+02  0.41800000000E+01 0. -1.
         -5    1    3    3    0  502  0.12972809571E+01  0.99941460712E+01 -0.52374509464E+02  0.53498855456E+02  0.41800000000E+01 0. -1.
        -11    1    1    2    0    0 -0.55563828250E+02  0.14143257375E+02  0.61157626879E+02  0.83830937394E+02  0.00000000000E+00 0.  1.
         11    1    1    2    0    0  0.27780271120E+02  0.52372673862E+02  0.15372746574E+02  0.61245095870E+02  0.00000000000E+00 0. -1.
</event>
<event>
 7    1  0.2943257E-009  0.1119547E+03  0.7561462E-02  0.1256992E+00
          2   -1    0    0  501    0  0.00000000000E+00  0.00000000000E+00  0.26282401069E+03  0.26282401069E+03  0.00000000000E+00 0. -1.
         -2   -1    0    0    0  501 -0.00000000000E+00 -0.00000000000E+00 -0.55936835188E+02  0.55936835188E+02  0.00000000000E+00 0.  1.
         25    2    1    2    0    0  0.47091349498E+02  0.16815033602E+02  0.94976590794E+02  0.16482947031E+03  0.12509141031E+03 0.  0.
          5    1    3    3  502    0  0.84442470022E+02 -0.14063084736E+02  0.66354176707E+02  0.10839119089E+03  0.41800000000E+01 0. -1.
         -5    1    3    3    0  502 -0.37351120523E+02  0.30878118337E+02  0.28622414087E+02  0.56438279426E+02  0.41800000000E+01 0. -1.
        -11    1    1    2    0    0 -0.11714044183E+01  0.26445724401E+02  0.77867437177E+02  0.82244065439E+02  0.00000000000E+00 0. -1.
         11    1    1    2    0    0 -0.45919945080E+02 -0.43260758003E+02  0.34043147532E+02  0.71687310125E+02  0.00000000000E+00 0.  1.
</event>
<event>
 7    1  0.2943257E-009  0.1305967E+03  0.7561462E-02  0.1226573E+00
          2   -1    0    0  501    0  0.00000000000E+00  0.00000000000E+00  0.60399536119E+02  0.60399536119E+02  0.00000000000E+00 0. -1.
         -2   -1    0    0    0  501 -0.00000000000E+00 -0.00000000000E+00 -0.49020194588E+03  0.49020194588E+03  0.00000000000E+00 0.  1.
         25    2    1    2    0    0 -0.68423790091E+02 -0.12589503170E+02 -0.40448968665E+03  0.42905476578E+03  0.12504309175E+03 0.  0.
          5    1    3    3  502    0 -0.40916568391E+02 -0.68481860785E+02 -0.24892386902E+03  0.26142780226E+03  0.41800000000E+01 0.  1.
         -5    1    3    3    0  502 -0.27507221700E+02  0.55892357615E+02 -0.15556581763E+03  0.16762696353E+03  0.41800000000E+01 0.  1.
        -11    1    1    2    0    0 -0.23614036656E+02  0.12751718906E+02 -0.51760097706E+01  0.27331669166E+02  0.00000000000E+00 0.  1.
         11    1    1    2    0    0  0.92037826747E+02 -0.16221573557E+00 -0.20136713336E+02  0.94215047048E+02  0.00000000000E+00 0. -1.
</event>
<event>
 7    1  0.2943257E-009  0.1188109E+03  0.7561462E-02  0.1245072E+00
         -1   -1    0    0    0  501 -0.00000000000E+00  0.00000000000E+00  0.54963372309E+02  0.54963372309E+02  0.00000000000E+00 0.  1.
          1   -1    0    0  501    0  0.00000000000E+00 -0.00000000000E+00 -0.29170599390E+03  0.29170599390E+03  0.00000000000E+00 0. -1.
         25    2    1    2    0    0 -0.57011533732E+02 -0.22346255096E+02 -0.16463566924E+03  0.21564601742E+03  0.12509448888E+03 0.  0.
          5    1    3    3  502    0 -0.57837768170E+02 -0.64762442152E+02 -0.14418866031E+03  0.16836633720E+03  0.41800000000E+01 0. -1.
         -5    1    3    3    0  502  0.82623443842E+00  0.42416187056E+02 -0.20447008930E+02  0.47279680222E+02  0.41800000000E+01 0. -1.
        -11    1    1    2    0    0  0.48721088244E+02 -0.28566736268E+02 -0.47840456557E+02  0.74016972002E+02  0.00000000000E+00 0.  1.
         11    1    1    2    0    0  0.82904454873E+01  0.50912991365E+02 -0.24266495797E+02  0.57006376787E+02  0.00000000000E+00 0. -1.
</event>
<event>
 7    1  0.2943257E-009  0.1431481E+03  0.7561462E-02  0.1209155E+00
          1   -1    0    0  501    0  0.00000000000E+00  0.00000000000E+00  0.51137833801E+03  0.51137833801E+03  0.00000000000E+00 0. -1.
         -1   -1    0    0    0  501 -0.00000000000E+00 -0.00000000000E+00 -0.70820485241E+02  0.70820485241E+02  0.00000000000E+00 0.  1.
         25    2    1    2    0    0  0.19520692525E+02 -0.11072860925E+03  0.72272003790E+02  0.18303657255E+03  0.12504903845E+03 0.  0.
          5    1    3    3  502    0 -0.33286840963E+02 -0.26134038325E+02  0.71536535892E+02  0.83222293334E+02  0.41800000000E+01 0.  1.
         -5    1    3    3    0  502  0.52807533487E+02 -0.84594570923E+02  0.73546789831E+00  0.99814279217E+02  0.41800000000E+01 0.  1.
        -11    1    1    2    0    0  0.13288148649E+02  0.11035027643E+03  0.21093379497E+03  0.23842572064E+03  0.00000000000E+00 0.  1.
         11    1    1    2    0    0 -0.32808841174E+02  0.37833282300E+00  0.15735205401E+03  0.16073653006E+03  0.00000000000E+00 0. -1.
</event>
<event>
 7    1  0.2943257E-009  0.8034399E+02  0.7561462E-02  0.1328078E+00
         -2   -1    0    0    0  501 -0.00000000000E+00  0.00000000000E+00  0.12718335779E+02  0.12718335779E+02  0.00000000000E+00 0.  1.
          2   -1    0    0  501    0  0.00000000000E+00 -0.00000000000E+00 -0.11727418575E+04  0.11727418575E+04  0.00000000000E+00 0. -1.
         25    2    1    2    0    0 -0.46220226380E+02  0.25879149935E+02 -0.75398576647E+03  0.76612520688E+03  0.12508899572E+03 0.  0.
          5    1    3    3  502    0 -0.46823068336E+02  0.21453133666E+02 -0.75737215168E+03  0.75913285083E+03  0.41800000000E+01 0.  1.
         -5    1    3    3    0  502  0.60284195594E+00  0.44260162690E+01  0.33863852044E+01  0.69923560543E+01  0.41800000000E+01 0.  1.
        -11    1    1    2    0    0  0.71666605332E+02 -0.28895780762E+02 -0.33559436527E+03  0.34437573444E+03  0.00000000000E+00 0. -1.
         11    1    1    2    0    0 -0.25446378952E+02  0.30166308264E+01 -0.70443390024E+02  0.74959252006E+02  0.00000000000E+00 0.  1.
</event>
<event>
 7    1  0.2943257E-009  0.1372160E+03  0.7561462E-02  0.1217125E+00
          1   -1    0    0  501    0  0.00000000000E+00  0.00000000000E+00  0.17080142798E+03  0.17080142798E+03  0.00000000000E+00 0. -1.
         -1   -1    0    0    0  501 -0.00000000000E+00 -0.00000000000E+00 -0.16125109729E+03  0.16125109729E+03  0.00000000000E+00 0.  1.
         25    2    1    2    0    0  0.22488741683E+02 -0.10773685821E+03  0.65701676661E+02  0.17910133548E+03  0.12509038307E+03 0.  0.
          5    1    3    3  502    0  0.68377046379E+01 -0.13119387885E+03  0.72057180233E+02  0.14989428833E+03  0.41800000000E+01 0. -1.
         -5    1    3    3    0  502  0.15651037045E+02  0.23457020635E+02 -0.63555035727E+01  0.29207047152E+02  0.41800000000E+01 0. -1.
        -11    1    1    2    0    0 -0.25997827586E+02  0.47514908659E+02  0.18261825402E+02  0.57158095236E+02  0.00000000000E+00 0. -1.
         11    1    1    2    0    0  0.35090859031E+01  0.60221949551E+02 -0.74413171371E+02  0.95793094558E+02  0.00000000000E+00 0.  1.
</event>
<event>
 7    1  0.2943257E-009  0.2132497E+03  0.7561462E-02  0.1139018E+00
          2   -1    0    0  501    0  0.00000000000E+00  0.00000000000E+00  0.33530853669E+03  0.33530853669E+03  0.00000000000E+00 0. -1.
         -2   -1    0    0    0  501 -0.00000000000E+00 -0.00000000000E+00 -0.18150758712E+03  0.18150758712E+03  0.00000000000E+00 0.  1.
         25    2    1    2    0    0  0.11469583702E+03  0.16541566924E+03 -0.17435865565E+02  0.23763594747E+03  0.12509738390E+03 0.  0.
          5    1    3    3  502    0  0.11618325395E+03  0.14764450468E+03  0.26737867822E+02  0.18981526345E+03  0.41800000000E+01 0. -1.
         -5    1    3    3    0  502 -0.14874169278E+01  0.17771164558E+02 -0.44173733387E+02  0.47820684020E+02  0.41800000000E+01 0. -1.
        -11    1    1    2    0    0 -0.81667064646E+02 -0.40703791902E+02  0.77363364898E+02  0.11963025684E+03  0.00000000000E+00 0.  1.
         11    1    1    2    0    0 -0.33028772374E+02 -0.12471187734E+03  0.93873450235E+02  0.15954991950E+03  0.00000000000E+00 0. -1.
</event>
<event>
 7    1  0.2943257E-009  0.1046900E+03  0.7561462E-02  0.1270732E+00
         -2   -1    0    0    0  501 -0.00000000000E+00  0.00000000000E+00  0.26655191676E+03  0.26655191676E+03  0.00000000000E+00 0.  1.
          2   -1    0    0  501    0  0.00000000000E+00 -0.00000000000E+00 -0.52118114573E+02  0.52118114573E+02  0.00000000000E+00 0. -1.
         25    2    1    2    0    0  0.27391661791E+02 -0.32146335587E+02  0.97720914917E+02  0.16425928829E+03  0.12509215223E+03 0.  0.
          5    1    3    3  502    0  0.32055901225E+02 -0.73772490039E+02  0.91178560551E+02  0.12165921007E+03  0.41800000000E+01 0. -1.
         -5    1    3    3    0  502 -0.46642394339E+01  0.41626154453E+02  0.65423543657E+01  0.42600078224E+02  0.41800000000E+01 0. -1.
        -11    1    1    2    0    0 -0.53926818118E+02  0.19479637955E+02  0.34076428072E+02  0.66699032657E+02  0.00000000000E+00 0.  1.
         11    1    1    2    0    0  0.26535156326E+02  0.12666697631E+02  0.82636459197E+02  0.87711710385E+02  0.00000000000E+00 0. -1.
</event>
<event>
 7    1  0.2943257E-009  0.1625834E+03  0.7561462E-02  0.1185811E+00
          1   -1    0    0  501    0  0.00000000000E+00  0.00000000000E+00  0.34993314140E+02  0.34993314140E+02  0.00000000000E+00 0. -1.
         -1   -1    0    0    0  501 -0.00000000000E+00 -0.00000000000E+00 -0.10144973577E+04  0.10144973577E+04  0.00000000000E+00 0.  1.
         25    2    1    2    0    0 -0.91210118991E+02 -0.10539001757E+03 -0.69491905919E+03  0.71971236909E+03  0.12508818406E+03 0.  0.
          5    1    3    3  502    0  0.18857691751E+02 -0.31958449450E+02 -0.31874295159E+03  0.32092288267E+03  0.41800000000E+01 0. -1.
         -5    1    3    3    0  502 -0.11006781074E+03 -0.73431568117E+02 -0.37617610760E+03  0.39878948643E+03  0.41800000000E+01 0. -1.
        -11    1    1    2    0    0  0.87164818358E+02  0.51171912410E+02 -0.23651108702E+03  0.25720374115E+03  0.00000000000E+00 0.  1.
         11    1    1    2    0    0  0.40453006323E+01  0.54218105157E+02 -0.48073897346E+02  0.72574561590E+02  0.00000000000E+00 0. -1.
</event>
<event>
 7    1  0.2943257E-009  0.1530647E+03  0.7561462E-02  0.1196757E+00
         -3   -1    0    0    0  501 -0.00000000000E+00  0.00000000000E+00  0.43451519588E+03  0.43451519588E+03  0.00000000000E+00 0.  1.
          3   -1    0    0  501    0  0.00000000000E+00 -0.00000000000E+00 -0.68458853718E+02  0.68458853718E+02  0.00000000000E+00 0. -1.
         25    2    1    2    0    0 -0.28537474327E+01 -0.13268074867E+03  0.22547408301E+03  0.28999624661E+03  0.12508771321E+03 0.  0.
          5    1    3    3  502    0 -0.74557665221E+01  0.18088691721E+02  0.72149048536E+02  0.74871535495E+02  0.41800000000E+01 0.  1.
         -5    1    3    3    0  502  0.46020190894E+01 -0.15076944039E+03  0.15332503448E+03  0.21512471112E+03  0.41800000000E+01 0.  1.
        -11    1    1    2    0    0 -0.83570389724E+01  0.10540037107E+03  0.48568928270E+02  0.11635299358E+03  0.00000000000E+00 0. -1.
         11    1    1    2    0    0  0.11210786405E+02  0.27280377603E+02  0.92013330881E+02  0.96624809412E+02  0.00000000000E+00 0.  1.
</event>
<event>
 7    1  0.2943257E-009  0.9994396E+02  0.7561462E-02  0.1280414E+00
         -1   -1    0    0    0  501 -0.00000000000E+00  0.00000000000E+00  0.75132485765E+03  0.75132485765E+03  0.00000000000E+00 0.  1.
          1   -1    0    0  501    0  0.00000000000E+00 -0.00000000000E+00 -0.24170082922E+02  0.24170082922E+02  0.00000000000E+00 0. -1.
         25    2    1    2    0    0  0.28599598982E+02 -0.41322863382E+02  0.58248569984E+03  0.59788151578E+03  0.12508876966E+03 0.  0.
          5    1    3    3  502    0  0.71558231775E+02 -0.48753944428E+02  0.30976486332E+03  0.32166639641E+03  0.41800000000E+01 0.  1.
         -5    1    3    3    0  502 -0.42958632793E+02  0.74310810456E+01  0.27272083652E+03  0.27621511937E+03  0.41800000000E+01 0.  1.
        -11    1    1    2    0    0 -0.41555239832E+02  0.24753497130E+02  0.14854901643E+03  0.15622542642E+03  0.00000000000E+00 0.  1.
         11    1    1    2    0    0  0.12955640850E+02  0.16569366253E+02 -0.38799415431E+01  0.21387998369E+02  0.00000000000E+00 0. -1.
</event>
<event>
 7    1  0.4287288E-009  0.1419218E+03  0.7561462E-02  0.1210766E+00
          2   -1    0    0  501    0  0.00000000000E+00  0.00000000000E+00  0.13191987109E+04  0.13191987109E+04  0.00000000000E+00 0. -1.
         -2   -1    0    0    0  501 -0.00000000000E+00 -0.00000000000E+00 -0.22607470385E+02  0.22607470385E+02  0.00000000000E+00 0.  1.
         25    2    1    2    0    0  0.79375822987E+02  0.79952764484E+02  0.96934857165E+03  0.98385814661E+03  0.12508890224E+03 0.  0.
          5    1    3    3  502    0  0.10218883541E+03  0.25810765192E+02  0.71760534359E+03  0.72531624498E+03  0.41800000000E+01 0. -1.
         -5    1    3    3    0  502 -0.22813012426E+02  0.54141999292E+02  0.25174322806E+03  0.25854190162E+03  0.41800000000E+01 0. -1.
        -11    1    1    2    0    0 -0.76411018875E+02 -0.54544516775E+02  0.31662721875E+03  0.33025224264E+03  0.00000000000E+00 0. -1.
         11    1    1    2    0    0 -0.29648041119E+01 -0.25408247709E+02  0.10615450104E+02  0.27695792027E+02  0.00000000000E+00 0.  1.
</event>
<event>
 7    1  0.2943257E-009  0.1141506E+03  0.7561462E-02  0.1253071E+00
          3   -1    0    0  501    0  0.00000000000E+00  0.00000000000E+00  0.91379475281E+02  0.91379475281E+02  0.00000000000E+00 0. -1.
         -3   -1    0    0    0  501 -0.00000000000E+00 -0.00000000000E+00 -0.16689087094E+03  0.16689087094E+03  0.00000000000E+00 0.  1.
         25    2    1    2    0    0 -0.19001924703E+02  0.51020801099E+02 -0.18765344034E+02  0.13770786105E+03  0.12508845499E+03 0.  0.
          5    1    3    3  502    0 -0.57081763948E+02 -0.13174292030E+02  0.58037840088E+01  0.59017336900E+02  0.41800000000E+01 0.  1.
         -5    1    3    3    0  502  0.38079839245E+02  0.64195093129E+02 -0.24569128043E+02  0.78690524154E+02  0.41800000000E+01 0.  1.
        -11    1    1    2    0    0  0.40933194014E+02 -0.18520542028E+01  0.18135475751E+01  0.41015185380E+02  0.00000000000E+00 0. -1.
         11    1    1    2    0    0 -0.21931269311E+02 -0.49168746896E+02 -0.58559599200E+02  0.79547299787E+02  0.00000000000E+00 0.  1.
</event>
<event>
 7    1  0.2943257E-009  0.2157207E+03  0.7561462E-02  0.1137114E+00
         -2   -1    0    0    0  501 -0.00000000000E+00  0.00000000000E+00  0.34785669717E+02  0.34785669717E+02  0.00000000000E+00 0. -1.
          2   -1    0    0  501    0  0.00000000000E+00 -0.00000000000E+00 -0.13444614677E+04  0.13444614677E+04  0.00000000000E+00 0.  1.
         25    2    1    2    0    0 -0.18636131091E+03  0.10564943262E+02 -0.71808270511E+03  0.75241812193E+03  0.12509237623E+03 0.  0.
          5    1    3    3  502    0 -0.13783604853E+02 -0.41863474739E+02 -0.14488135900E+03  0.15149461663E+03  0.41800000000E+01 0.  1.
         -5    1    3    3    0  502 -0.17257770606E+03  0.52428418001E+02 -0.57320134611E+03  0.60092350530E+03  0.41800000000E+01 0.  1.
        -11    1    1    2    0    0  0.58409848549E+01 -0.24986221108E+02 -0.60791738395E+02  0.65985330236E+02  0.00000000000E+00 0.  1.
         11    1    1    2    0    0  0.18052032606E+03  0.14421277846E+02 -0.53080135446E+03  0.56084368523E+03  0.00000000000E+00 0. -1.
</event>
<event>
 7    1  0.2943257E-009  0.1068944E+03  0.7561462E-02  0.1266431E+00
         -1   -1    0    0    0  501 -0.00000000000E+00  0.00000000000E+00  0.18879231084E+03  0.18879231084E+03  0.00000000000E+00 0.  1.
          1   -1    0    0  501    0  0.00000000000E+00 -0.00000000000E+00 -0.68159351332E+02  0.68159351332E+02  0.00000000000E+00 0. -1.
         25    2    1    2    0    0  0.37775368757E+02 -0.52570816464E+01  0.36919438457E+02  0.13588360687E+03  0.12508674705E+03 0.  0.
          5    1    3    3  502    0  0.63823805797E+02  0.39972887317E+02  0.74304325608E+01  0.75789139294E+02  0.41800000000E+01 0.  1.
         -5    1    3    3    0  502 -0.26048437041E+02 -0.45229968963E+02  0.29489005896E+02  0.60094467577E+02  0.41800000000E+01 0.  1.
        -11    1    1    2    0    0 -0.52257114221E+02 -0.20757923442E+02  0.43813454303E+02  0.71283351144E+02  0.00000000000E+00 0.  1.
         11    1    1    2    0    0  0.14481745465E+02  0.26015005088E+02  0.39900066746E+02  0.49784704155E+02  0.00000000000E+00 0. -1.
</event>
<event>
 7    1  0.2943257E-009  0.9175714E+02  0.7561462E-02  0.1298651E+00
         -2   -1    0    0    0  501 -0.00000000000E+00  0.00000000000E+00  0.39794291401E+02  0.39794291401E+02  0.00000000000E+00 0.  1.
          2   -1    0    0  501    0  0.00000000000E+00 -0.00000000000E+00 -0.30190937090E+03  0.30190937090E+03  0.00000000000E+00 0. -1.
         25    2    1    2    0    0 -0.10449295947E+02 -0.10104637415E+02 -0.18184832481E+03  0.22119266984E+03  0.12508434143E+03 0.  0.
          5    1    3    3  502    0  0.51127300808E+02  0.16924080405E+02 -0.11086012044E+03  0.12332016903E+03  0.41800000000E+01 0. -1.
         -5    1    3    3    0  502 -0.61576596755E+02 -0.27028717820E+02 -0.70988204374E+02  0.97872500812E+02  0.41800000000E+01 0. -1.
        -11    1    1    2    0    0 -0.38342692331E+01  0.34035045510E+02  0.13401932079E+01  0.34276552645E+02  0.00000000000E+00 0.  1.
         11    1    1    2    0    0  0.14283565181E+02 -0.23930408095E+02 -0.81606947893E+02  0.86234439816E+02  0.00000000000E+00 0. -1.
</event>
<event>
 7    1  0.2943257E-009  0.1063926E+03  0.7561462E-02  0.1267400E+00
          1   -1    0    0  501    0  0.00000000000E+00  0.00000000000E+00  0.47846141563E+02  0.47846141563E+02  0.00000000000E+00 0. -1.
         -1   -1    0    0    0  501 -0.00000000000E+00 -0.00000000000E+00 -0.34428680967E+03  0.34428680967E+03  0.00000000000E+00 0.  1.
         25    2    1    2    0    0  0.54149151794E+02  0.18599183597E+02 -0.22484854247E+03  0.26359603098E+03  0.12509172723E+03 0.  0.
          5    1    3    3  502    0  0.44364886633E+01 -0.51083322990E+02 -0.74478440508E+02  0.90519052248E+02  0.41800000000E+01 0. -1.
         -5    1    3    3    0  502  0.49712663131E+02  0.69682506588E+02 -0.15037010197E+03  0.17307697873E+03  0.41800000000E+01 0. -1.
        -11    1    1    2    0    0 -0.46958402223E+02  0.83959429432E+01  0.40755791803E+01  0.47876860203E+02  0.00000000000E+00 0. -1.
         11    1    1    2    0    0 -0.71907495713E+01 -0.26995126541E+02 -0.75667704817E+02  0.80660060058E+02  0.00000000000E+00 0.  1.
</event>
<event>
 7    1  0.2943257E-009  0.1029098E+03  0.7561462E-02  0.1274293E+00
         -2   -1    0    0    0  501 -0.00000000000E+00  0.00000000000E+00  0.93193329507E+02  0.93193329507E+02  0.00000000000E+00 0.  1.
          2   -1    0    0  501    0  0.00000000000E+00 -0.00000000000E+00 -0.13778009400E+03  0.13778009400E+03  0.00000000000E+00 0. -1.
         25    2    1    2    0    0  0.51903334543E+01  0.28488016664E+02 -0.83304081492E+01  0.12864203887E+03  0.12506347112E+03 0.  0.
          5    1    3    3  502    0  0.19980115702E+02 -0.46830760635E+02 -0.83937632481E+01  0.51771158251E+02  0.41800000000E+01 0. -1.
         -5    1    3    3    0  502 -0.14789782248E+02  0.75318777299E+02  0.63355098919E-01  0.76870880615E+02  0.41800000000E+01 0. -1.
        -11    1    1    2    0    0  0.32890685661E+02 -0.21084227778E+02  0.11573552625E+02  0.40746643845E+02  0.00000000000E+00 0.  1.
         11    1    1    2    0    0 -0.38081019116E+02 -0.74037888851E+01 -0.47829908965E+02  0.61584740792E+02  0.00000000000E+00 0. -1.
</event>
<event>
 7    1  0.2943257E-009  0.1288897E+03  0.7561462E-02  0.1229113E+00
          2   -1    0    0  501    0  0.00000000000E+00  0.00000000000E+00  0.18842012730E+04  0.18842012730E+04  0.00000000000E+00 0. -1.
         -2   -1    0    0    0  501 -0.00000000000E+00 -0.00000000000E+00 -0.12413127826E+02  0.12413127826E+02  0.00000000000E+00 0.  1.
         25    2    1    2    0    0  0.99160261357E+02 -0.11243077585E+02  0.12396195813E+04  0.12499051271E+04  0.12508779348E+03 0.  0.
          5    1    3    3  502    0 -0.10272676342E+02 -0.47182650758E+01  0.65323945718E+03  0.65335063383E+03  0.41800000000E+01 0.  1.
         -5    1    3    3    0  502  0.10943293770E+03 -0.65248125092E+01  0.58638012412E+03  0.59655449323E+03  0.41800000000E+01 0.  1.
        -11    1    1    2    0    0 -0.10419297423E+03 -0.18527201964E+02  0.51011690342E+03  0.52097858712E+03  0.00000000000E+00 0. -1.
         11    1    1    2    0    0  0.50327128704E+01  0.29770279549E+02  0.12205166047E+03  0.12573068665E+03  0.00000000000E+00 0.  1.
</event>
<event>
 7    1  0.2943257E-009  0.1469211E+03  0.7561462E-02  0.1204308E+00
         -4   -1    0    0    0  501 -0.00000000000E+00  0.00000000000E+00  0.28515797435E+02  0.28515797435E+02  0.00000000000E+00 0.  1.
          4   -1    0    0  501    0  0.00000000000E+00 -0.00000000000E+00 -0.83504300535E+03  0.83504300535E+03  0.00000000000E+00 0. -1.
         25    2    1    2    0    0 -0.56023035534E+02 -0.92618963549E+02 -0.40080963445E+03  0.43361107871E+03  0.12511335497E+03 0.  0.
          5    1    3    3  502    0  0.22184475096E+02  0.17433293118E+02 -0.48093570531E+02  0.55915423370E+02  0.41800000000E+01 0. -1.
         -5    1    3    3    0  502 -0.78207510630E+02 -0.11005225667E+03 -0.35271606392E+03  0.37769565534E+03  0.41800000000E+01 0. -1.
        -11    1    1    2    0    0  0.73760419617E+02  0.72561503626E+02 -0.37586602199E+03  0.38984745452E+03  0.00000000000E+00 0. -1.
         11    1    1    2    0    0 -0.17737384083E+02  0.20057459923E+02 -0.29851551471E+02  0.40100269549E+02  0.00000000000E+00 0.  1.
</event>
<event>
 7    1  0.2943257E-009  0.1075789E+03  0.7561462E-02  0.1265120E+00
          1   -1    0    0  501    0  0.00000000000E+00  0.00000000000E+00  0.82134283716E+02  0.82134283716E+02  0.00000000000E+00 0. -1.
         -1   -1    0    0    0  501 -0.00000000000E+00 -0.00000000000E+00 -0.17707244875E+03  0.17707244875E+03  0.00000000000E+00 0.  1.
         25    2    1    2    0    0  0.52103189174E+02 -0.47252575210E+01 -0.40532064536E+02  0.14152716617E+03  0.12510004048E+03 0.  0.
          5    1    3    3  502    0  0.86459480516E+02  0.18838887154E+02 -0.45104196644E+02  0.99408281321E+02  0.41800000000E+01 0. -1.
         -5    1    3    3    0  502 -0.34356291342E+02 -0.23564144675E+02  0.45721321083E+01  0.42118884850E+02  0.41800000000E+01 0. -1.
        -11    1    1    2    0    0 -0.45639238643E+01  0.30352865741E+02 -0.55766378454E+02  0.63655438303E+02  0.00000000000E+00 0.  1.
         11    1    1    2    0    0 -0.47539265310E+02 -0.25627608219E+02  0.13602779548E+01  0.54024127993E+02  0.00000000000E+00 0. -1.
</event>
<event>
 7    1  0.2943257E-009  0.1345439E+03  0.7561462E-02  0.1220865E+00
         -1   -1    0    0    0  501 -0.00000000000E+00  0.00000000000E+00  0.47093441554E+03  0.47093441554E+03  0.00000000000E+00 0.  1.
          1   -1    0    0  501    0  0.00000000000E+00 -0.00000000000E+00 -0.50946471624E+02  0.50946471624E+02  0.00000000000E+00 0. -1.
         25    2    1    2    0    0 -0.10847761069E+03 -0.12108554593E+02  0.24177825083E+03  0.29328924116E+03  0.12509135577E+03 0.  0.
          5    1    3    3  502    0 -0.36195299228E+02  0.51042339657E+02  0.13958810997E+03  0.15302853645E+03  0.41800000000E+01 0.  1.
         -5    1    3    3    0  502 -0.72282311462E+02 -0.63150894249E+02  0.10219014086E+03  0.14026070471E+03  0.41800000000E+01 0.  1.
        -11    1    1    2    0    0  0.18359918843E+02 -0.39071431244E+01 -0.85364310001E+01  0.20620936970E+02  0.00000000000E+00 0. -1.
         11    1    1    2    0    0  0.90117691846E+02  0.16015697717E+02  0.18674612409E+03  0.20797070904E+03  0.00000000000E+00 0.  1.
</event>
<event>
 7    1  0.2943257E-009  0.1500169E+03  0.7561462E-02  0.1200452E+00
         -1   -1    0    0    0  501 -0.00000000000E+00  0.00000000000E+00  0.14846959569E+03  0.14846959569E+03  0.00000000000E+00 0.  1.
          1   -1    0    0  501    0  0.00000000000E+00 -0.00000000000E+00 -0.16697933813E+03  0.16697933813E+03  0.00000000000E+00 0. -1.
         25    2    1    2    0    0 -0.71162781287E+02 -0.87653423797E+02  0.43485149188E+01  0.16856283236E+03  0.12508898724E+03 0.  0.
          5    1    3    3  502    0 -0.94985891443E+02 -0.43367567662E+02 -0.28542740422E+02  0.10832924780E+03  0.41800000000E+01 0.  1.
         -5    1    3    3    0  502  0.23823110157E+02 -0.44285856135E+02  0.32891255341E+02  0.60233584561E+02  0.41800000000E+01 0.  1.
        -11    1    1    2    0    0 -0.10563811212E+01  0.70935076345E+02 -0.98246157914E+01  0.71619997715E+02  0.00000000000E+00 0.  1.
         11    1    1    2    0    0  0.72219162408E+02  0.16718347451E+02 -0.13033641559E+02  0.75266103743E+02  0.00000000000E+00 0. -1.
</event>
<event>
 7    1  0.2943257E-009  0.3013312E+03  0.7561462E-02  0.1084577E+00
         -2   -1    0    0    0  501 -0.00000000000E+00  0.00000000000E+00  0.80580842769E+02  0.80580842769E+02  0.00000000000E+00 0.  1.
          2   -1    0    0  501    0  0.00000000000E+00 -0.00000000000E+00 -0.13067745142E+04  0.13067745142E+04  0.00000000000E+00 0. -1.
         25    2    1    2    0    0  0.25319588953E+03 -0.15399046245E+03 -0.46328334308E+03  0.56399076213E+03  0.12503160716E+03 0.  0.
          5    1    3    3  502    0  0.38638262687E+02 -0.16063389564E+02 -0.17074698471E+03  0.17584923376E+03  0.41800000000E+01 0.  1.
         -5    1    3    3    0  502  0.21455762684E+03 -0.13792707288E+03 -0.29253635837E+03  0.38814152836E+03  0.41800000000E+01 0.  1.
        -11    1    1    2    0    0 -0.60132742092E+02  0.76910562747E+02 -0.18459954197E+03  0.20882569820E+03  0.00000000000E+00 0. -1.
         11    1    1    2    0    0 -0.19306314744E+03  0.77079899700E+02 -0.57831078634E+03  0.61453889660E+03  0.00000000000E+00 0.  1.
</event>
<event>
 6    1  0.2943257E-009  0.1675253E+03  0.7561462E-02  0.1180453E+00
          1   -1    0    0  501    0  0.00000000000E+00  0.00000000000E+00  0.91089288746E+02  0.91089288746E+02  0.00000000000E+00 0. -1.
         -1   -1    0    0    0  501 -0.00000000000E+00 -0.00000000000E+00 -0.34392006188E+03  0.34392006188E+03  0.00000000000E+00 0.  1.
          5    1    1    2  502    0  0.87234848776E+02  0.85854075875E+02 -0.60236948553E+02  0.13648004820E+03  0.41800000000E+01 0.  1.
         -5    1    1    2    0  502 -0.42557830319E+02  0.45607324244E+02 -0.54084557725E+02  0.82666853880E+02  0.41800000000E+01 0.  1.
        -11    1    1    2    0    0 -0.50601062896E+02 -0.60570643602E+02 -0.11775551469E+03  0.14175906204E+03  0.00000000000E+00 0.  1.
         11    1    1    2    0    0  0.59240444397E+01 -0.70890756517E+02 -0.20753752170E+02  0.74103386503E+02  0.00000000000E+00 0. -1.
</event>
<event>
 7    1  0.2943257E-009  0.1452784E+03  0.7561462E-02  0.1206398E+00
          2   -1    0    0  501    0  0.00000000000E+00  0.00000000000E+00  0.25597416515E+04  0.25597416515E+04  0.00000000000E+00 0. -1.
         -2   -1    0    0    0  501 -0.00000000000E+00 -0.00000000000E+00 -0.18396801013E+02  0.18396801013E+02  0.00000000000E+00 0.  1.
         25    2    1    2    0    0 -0.12123732638E+03  0.29918667268E+02  0.21529459847E+04  0.21601893671E+04  0.12509225738E+03 0.  0.
          5    1    3    3  502    0  0.51902169940E+01  0.37196418532E+02  0.23092225883E+03  0.23399374763E+03  0.41800000000E+01 0. -1.
         -5    1    3    3    0  502 -0.12642754338E+03 -0.72777512639E+01  0.19220237258E+04  0.19261956195E+04  0.41800000000E+01 0. -1.
        -11    1    1    2    0    0  0.17223591769E+02 -0.10732375973E+02  0.59555689240E+01  0.21149581760E+02  0.00000000000E+00 0.  1.
         11    1    1    2    0    0  0.10401373461E+03 -0.19186291295E+02  0.38244329689E+03  0.39679950366E+03  0.00000000000E+00 0. -1.
</event>
<event>
 7    1  0.2943257E-009  0.7462428E+02  0.7561462E-02  0.1345038E+00
          3   -1    0    0  501    0  0.00000000000E+00  0.00000000000E+00  0.48091769688E+02  0.48091769688E+02  0.00000000000E+00 0. -1.
         -3   -1    0    0    0  501 -0.00000000000E+00 -0.00000000000E+00 -0.26458631578E+03  0.26458631578E+03  0.00000000000E+00 0.  1.
         25    2    1    2    0    0 -0.14649089165E+02 -0.22478245688E+02 -0.14761626593E+03  0.19533860244E+03  0.12508693094E+03 0.  0.
          5    1    3    3  502    0  0.32211876255E+02  0.14005152750E+02  0.84723692443E+00  0.35382756899E+02  0.41800000000E+01 0.  1.
         -5    1    3    3    0  502 -0.46860965419E+02 -0.36483398437E+02 -0.14846350286E+03  0.15995584554E+03  0.41800000000E+01 0.  1.
        -11    1    1    2    0    0  0.31318754282E+02  0.81563047850E+01 -0.84427486740E+02  0.90417864356E+02  0.00000000000E+00 0.  1.
         11    1    1    2    0    0 -0.16669665117E+02  0.14321940903E+02  0.15549206585E+02  0.26921618669E+02  0.00000000000E+00 0. -1.
</event>
<event>
 7    1  0.2943257E-009  0.8182281E+02  0.7561462E-02  0.1323957E+00
          1   -1    0    0  501    0  0.00000000000E+00  0.00000000000E+00  0.43838074245E+03  0.43838074245E+03  0.00000000000E+00 0. -1.
         -1   -1    0    0    0  501 -0.00000000000E+00 -0.00000000000E+00 -0.36518480222E+02  0.36518480222E+02  0.00000000000E+00 0.  1.
         25    2    1    2    0    0  0.58289502018E+02 -0.21869833298E+02  0.18193870536E+03  0.22940038952E+03  0.12508753155E+03 0.  0.
          5    1    3    3  502    0  0.25169868878E+00 -0.77913890279E+01  0.16760903603E+03  0.16784227850E+03  0.41800000000E+01 0. -1.
         -5    1    3    3    0  502  0.58037803329E+02 -0.14078444270E+02  0.14329669332E+02  0.61558111013E+02  0.41800000000E+01 0. -1.
        -11    1    1    2    0    0 -0.40128775935E+02  0.48343957376E+02  0.78861254622E+02  0.10082933280E+03  0.00000000000E+00 0.  1.
         11    1    1    2    0    0 -0.18160726083E+02 -0.26474124078E+02  0.14106230225E+03  0.14466950035E+03  0.00000000000E+00 0. -1.
</event>
<event>
 7    1  0.2943257E-009  0.9918666E+02  0.7561462E-02  0.1282016E+00
          1   -1    0    0  501    0  0.00000000000E+00  0.00000000000E+00  0.81701587437E+03  0.81701587437E+03  0.00000000000E+00 0. -1.
         -1   -1    0    0    0  501 -0.00000000000E+00 -0.00000000000E+00 -0.19305936321E+02  0.19305936321E+02  0.00000000000E+00 0.  1.
         25    2    1    2    0    0 -0.17664022766E+02  0.55727241297E+02  0.53704348522E+03  0.55450942312E+03  0.12508977654E+03 0.  0.
          5    1    3    3  502    0 -0.25490379152E+02  0.69992880817E+02  0.53165839046E+03  0.53686765533E+03  0.41800000000E+01 0. -1.
         -5    1    3    3    0  502  0.78263563858E+01 -0.14265639520E+02  0.53850947556E+01  0.17641767789E+02  0.41800000000E+01 0. -1.
        -11    1    1    2    0    0  0.46224986372E+02 -0.21776725465E+01  0.11988756064E+03  0.12850882778E+03  0.00000000000E+00 0.  1.
         11    1    1    2    0    0 -0.28560963606E+02 -0.53549568751E+02  0.14077889220E+03  0.15330355979E+03  0.00000000000E+00 0. -1.
</event>
<event>
 7    1  0.2943257E-009  0.1300318E+03  0.7561462E-02  0.1227409E+00
         -2   -1    0    0    0  501 -0.00000000000E+00  0.00000000000E+00  0.27991342734E+02  0.27991342734E+02  0.00000000000E+00 0.  1.
          2   -1    0    0  501    0  0.00000000000E+00 -0.00000000000E+00 -0.80310260609E+03  0.80310260609E+03  0.00000000000E+00 0. -1.
         25    2    1    2    0    0  0.76342066190E+02  0.65275400337E+02 -0.47077543351E+03  0.49735924576E+03  0.12509085331E+03 0.  0.
          5    1    3    3  502    0 -0.27621129112E+02  0.43514704069E+02 -0.19694816318E+03  0.20362344566E+03  0.41800000000E+01 0.  1.
         -5    1    3    3    0  502  0.10396319530E+03  0.21760696268E+02 -0.27382727034E+03  0.29373580010E+03  0.41800000000E+01 0.  1.
        -11    1    1    2    0    0 -0.46112641944E+02 -0.50573715314E+02 -0.28862702248E+03  0.29663046798E+03  0.00000000000E+00 0. -1.
         11    1    1    2    0    0 -0.30229424246E+02 -0.14701685023E+02 -0.15708807367E+02  0.37104235091E+02  0.00000000000E+00 0.  1.
</event>
<event>
 7    1  0.2943257E-009  0.8904355E+02  0.7561462E-02  0.1305185E+00
         -1   -1    0    0    0  501 -0.00000000000E+00  0.00000000000E+00  0.40912747126E+02  0.40912747126E+02  0.00000000000E+00 0.  1.
          1   -1    0    0  501    0  0.00000000000E+00 -0.00000000000E+00 -0.86494753377E+03  0.86494753377E+03  0.00000000000E+00 0. -1.
         25    2    1    2    0    0  0.79933765776E+01 -0.54578728845E+02 -0.77882062340E+03  0.79072864644E+03  0.12508995625E+03 0.  0.
          5    1    3    3  502    0 -0.57595115390E+01  0.11890247781E+02 -0.63027143641E+01  0.15223224816E+02  0.41800000000E+01 0. -1.
         -5    1    3    3    0  502  0.13752888117E+02 -0.66468976626E+02 -0.77251790904E+03  0.77550542163E+03  0.41800000000E+01 0. -1.
        -11    1    1    2    0    0 -0.16337123305E+02 -0.17339683766E+02  0.81611659378E+01  0.25182749263E+02  0.00000000000E+00 0.  1.
         11    1    1    2    0    0  0.83437467274E+01  0.71918412611E+02 -0.53375329178E+02  0.89948885189E+02  0.00000000000E+00 0. -1.
</event>
<event>
 6    1  0.2943257E-009  0.9060926E+02  0.7561462E-02  0.1301383E+00
          2   -1    0    0  501    0  0.00000000000E+00  0.00000000000E+00  0.33006012867E+03  0.33006012867E+03  0.00000000000E+00 0. -1.
         -2   -1    0    0    0  501 -0.00000000000E+00 -0.00000000000E+00 -0.44287885157E+02  0.44287885157E+02  0.00000000000E+00 0.  1.
          5    1    1    2  502    0  0.40476977643E+02 -0.18027702683E+02  0.32785630777E+01  0.44627403677E+02  0.41800000000E+01 0.  1.
         -5    1    1    2    0  502 -0.57952332795E+02 -0.23673340074E+02  0.12738034651E+03  0.14199339768E+03  0.41800000000E+01 0.  1.
        -11    1    1    2    0    0  0.37825578659E+02  0.15702942374E+02  0.14745933289E+02  0.43529292995E+02  0.00000000000E+00 0.  1.
         11    1    1    2    0    0 -0.20350223507E+02  0.25998100383E+02  0.14036740064E+03  0.14419791948E+03  0.00000000000E+00 0. -1.
</event>
<event>
 7    1  0.2943257E-009  0.7026812E+02  0.7561462E-02  0.1359184E+00
         -2   -1    0    0    0  501 -0.00000000000E+00  0.00000000000E+00  0.14360223545E+03  0.14360223545E+03  0.00000000000E+00 0. -1.
          2   -1    0    0  501    0  0.00000000000E+00 -0.00000000000E+00 -0.10933298897E+03  0.10933298897E+03  0.00000000000E+00 0.  1.
         25    2    1    2    0    0  0.22376826525E+02  0.39295721669E+02 -0.25205988657E+02  0.13537983344E+03  0.12508989300E+03 0.  0.
          5    1    3    3  502    0 -0.12058301943E+02  0.15075002153E+02  0.47397928785E+02  0.51348752553E+02  0.41800000000E+01 0.  1.
         -5    1    3    3    0  502  0.34435128469E+02  0.24220719516E+02 -0.72603917442E+02  0.84031080883E+02  0.41800000000E+01 0.  1.
        -11    1    1    2    0    0  0.40590560951E+01 -0.49848188943E+02 -0.17427421167E+01  0.50043531324E+02  0.00000000000E+00 0.  1.
         11    1    1    2    0    0 -0.26435882620E+02  0.10552467274E+02  0.61217977259E+02  0.67511859663E+02  0.00000000000E+00 0. -1.
</event>
<event>
 7    1  0.2943257E-009  0.9495203E+02  0.7561462E-02  0.1291284E+00
         -1   -1    0    0    0  501 -0.00000000000E+00  0.00000000000E+00  0.76005000308E+02  0.76005000308E+02  0.00000000000E+00 0.  1.
          1   -1    0    0  501    0  0.00000000000E+00 -0.00000000000E+00 -0.19131975902E+03  0.19131975902E+03  0.00000000000E+00 0. -1.
         25    2    1    2    0    0 -0.32823299398E+01 -0.30881305761E+02 -0.11262610149E+03  0.17115565535E+03  0.12508073747E+03 0.  0.
          5    1    3    3  502    0  0.58342136675E+02 -0.79724712478E+01 -0.32371600584E+02  0.67325761295E+02  0.41800000000E+01 0.  1.
         -5    1    3    3    0  502 -0.61624466615E+02 -0.22908834514E+02 -0.80254500907E+02  0.10382989406E+03  0.41800000000E+01 0.  1.
        -11    1    1    2    0    0 -0.25577302463E+02  0.46542999222E+01  0.33882605880E+02  0.42707047314E+02  0.00000000000E+00 0.  1.
         11    1    1    2    0    0  0.28859632403E+02  0.26227005839E+02 -0.36571263103E+02  0.53462056663E+02  0.00000000000E+00 0. -1.
</event>
<event>
 7    1  0.2943257E-009  0.7812765E+02  0.7561462E-02  0.1334450E+00
         -2   -1    0    0    0  501 -0.00000000000E+00  0.00000000000E+00  0.37656915623E+02  0.37656915623E+02  0.00000000000E+00 0.  1.
          2   -1    0    0  501    0  0.00000000000E+00 -0.00000000000E+00 -0.42003296535E+03  0.42003296535E+03  0.00000000000E+00 0. -1.
         25    2    1    2    0    0 -0.29241545007E+02  0.24037403115E+02 -0.30974676544E+03  0.33618860892E+03  0.12508739889E+03 0.  0.
          5    1    3    3  502    0 -0.35189507233E+02 -0.17159477590E+02 -0.28474322567E+03  0.28745247617E+03  0.41800000000E+01 0. -1.
         -5    1    3    3    0  502  0.59479622257E+01  0.41196880705E+02 -0.25003539774E+02  0.48736132753E+02  0.41800000000E+01 0. -1.
        -11    1    1    2    0    0 -0.34657851052E+01 -0.38949001109E+02 -0.75926570691E+02  0.85404218225E+02  0.00000000000E+00 0. -1.
         11    1    1    2    0    0  0.32707330112E+02  0.14911597994E+02  0.32972864025E+01  0.36097053833E+02  0.00000000000E+00 0.  1.
</event>
<event>
 7    1  0.2943257E-009  0.1537183E+03  0.7561462E-02  0.1195977E+00
         -2   -1    0    0    0  501 -0.00000000000E+00  0.00000000000E+00  0.12016482586E+03  0.12016482586E+03  0.00000000000E+00 0.  1.
          2   -1    0    0  501    0  0.00000000000E+00 -0.00000000000E+00 -0.39329980189E+03  0.39329980189E+03  0.00000000000E+00 0. -1.
         25    2    1    2    0    0  0.12925993642E+03 -0.18266212369E+02  0.17237197241E+02  0.18162657100E+03  0.12509718080E+03 0.  0.
          5    1    3    3  502    0  0.89498464875E+02  0.46137493187E+02 -0.95489069532E+01  0.10122893616E+03  0.41800000000E+01 0. -1.
         -5    1    3    3    0  502  0.39761471547E+02 -0.64403705556E+02  0.26786104194E+02  0.80397634833E+02  0.41800000000E+01 0. -1.
        -11    1    1    2    0    0 -0.81889010332E+02  0.15945908576E+02 -0.26546980142E+03  0.27827018791E+03  0.00000000000E+00 0. -1.
         11    1    1    2    0    0 -0.47370926090E+02  0.23203037924E+01 -0.24902371851E+02  0.53567868841E+02  0.00000000000E+00 0.  1.
</event>
<event>
 7    1  0.2943257E-009  0.1365635E+03  0.7561462E-02  0.1218029E+00
          1   -1    0    0  501    0  0.00000000000E+00  0.00000000000E+00  0.11134444762E+04  0.11134444762E+04  0.00000000000E+00 0. -1.
         -1   -1    0    0    0  501 -0.00000000000E+00 -0.00000000000E+00 -0.18347091943E+02  0.18347091943E+02  0.00000000000E+00 0.  1.
         25    2    1    2    0    0 -0.77217001971E+02 -0.52427014699E+02  0.60295914061E+03  0.62282964618E+03  0.12508391441E+03 0.  0.
          5    1    3    3  502    0 -0.74441528739E+02  0.16550528783E+02  0.42682476566E+03  0.43360386782E+03  0.41800000000E+01 0. -1.
         -5    1    3    3    0  502 -0.27754732316E+01 -0.68977543481E+02  0.17613437495E+03  0.18922577836E+03  0.41800000000E+01 0. -1.
        -11    1    1    2    0    0  0.61815544408E+02 -0.10595019082E+02  0.19556092026E+03  0.20537158882E+03  0.00000000000E+00 0. -1.
         11    1    1    2    0    0  0.15401457562E+02  0.63022033781E+02  0.29657732341E+03  0.30359033318E+03  0.00000000000E+00 0.  1.
</event>
<event>
 7    1  0.2943257E-009  0.9474476E+02  0.7561462E-02  0.1291752E+00
          4   -1    0    0  501    0  0.00000000000E+00  0.00000000000E+00  0.42772440176E+03  0.42772440176E+03  0.00000000000E+00 0. -1.
         -4   -1    0    0    0  501 -0.00000000000E+00 -0.00000000000E+00 -0.35199550964E+02  0.35199550964E+02  0.00000000000E+00 0.  1.
         25    2    1    2    0    0 -0.35545849654E+02 -0.21264075606E+02  0.13992312433E+03  0.19220059792E+03  0.12508765240E+03 0.  0.
          5    1    3    3  502    0 -0.29840940741E+02  0.28720847968E+02  0.13523939667E+03  0.14150100941E+03  0.41800000000E+01 0. -1.
         -5    1    3    3    0  502 -0.57049089132E+01 -0.49984923574E+02  0.46837276507E+01  0.50699588510E+02  0.41800000000E+01 0. -1.
        -11    1    1    2    0    0 -0.28335446110E+02 -0.41317722807E+01  0.73173188853E+02  0.78576616212E+02  0.00000000000E+00 0. -1.
         11    1    1    2    0    0  0.63881295764E+02  0.25395847886E+02  0.17942853762E+03  0.19214673859E+03  0.00000000000E+00 0.  1.
</event>
<event>
 7    1  0.2943257E-009  0.1902777E+03  0.7561462E-02  0.1158211E+00
         -1   -1    0    0    0  501 -0.00000000000E+00  0.00000000000E+00  0.10240720276E+03  0.10240720276E+03  0.00000000000E+00 0.  1.
          1   -1    0    0  501    0  0.00000000000E+00 -0.00000000000E+00 -0.39135079740E+03  0.39135079740E+03  0.00000000000E+00 0. -1.
         25    2    1    2    0    0 -0.14565359315E+03  0.71452223631E+02 -0.20021166590E+03  0.28644731516E+03  0.12508782410E+03 0.  0.
          5    1    3    3  502    0 -0.73536500013E+02  0.92350443636E+02 -0.16622717749E+03  0.20392441788E+03  0.41800000000E+01 0. -1.
         -5    1    3    3    0  502 -0.72117093135E+02 -0.20898220005E+02 -0.33984488413E+02  0.82522897273E+02  0.41800000000E+01 0. -1.
        -11    1    1    2    0    0  0.11420509776E+03 -0.57044473913E+01 -0.50381601952E+02  0.12495459532E+03  0.00000000000E+00 0.  1.
         11    1    1    2    0    0  0.31448495385E+02 -0.65747776240E+02 -0.38350326786E+02  0.82356089678E+02  0.00000000000E+00 0. -1.
</event>
<event>
 7    1  0.2943257E-009  0.1248807E+03  0.7561462E-02  0.1235256E+00
          2   -1    0    0  501    0  0.00000000000E+00  0.00000000000E+00  0.18961804040E+03  0.18961804040E+03  0.00000000000E+00 0. -1.
         -2   -1    0    0    0  501 -0.00000000000E+00 -0.00000000000E+00 -0.94183175059E+02  0.94183175059E+02  0.00000000000E+00 0.  1.
         25    2    1    2    0    0  0.22152148453E+02 -0.53626111309E+02  0.50084040529E+01  0.13798835769E+03  0.12509686347E+03 0.  0.
          5    1    3    3  502    0  0.35856571950E+02  0.32192082559E+02 -0.10796079190E+02  0.49558567951E+02  0.41800000000E+01 0. -1.
         -5    1    3    3    0  502 -0.13704423497E+02 -0.85818193868E+02  0.15804483243E+02  0.88429789736E+02  0.41800000000E+01 0. -1.
        -11    1    1    2    0    0  0.24117109141E+02  0.62751582888E+02  0.53292521812E+02  0.85787464057E+02  0.00000000000E+00 0.  1.
         11    1    1    2    0    0 -0.46269257594E+02 -0.91254715781E+01  0.37133939480E+02  0.60025393719E+02  0.00000000000E+00 0. -1.
</event>
<event>
 7    1  0.2943257E-009  0.1250888E+03  0.7561462E-02  0.1234931E+00
         -1   -1    0    0    0  501 -0.00000000000E+00  0.00000000000E+00  0.70166136761E+03  0.70166136761E+03  0.00000000000E+00 0.  1.
          1   -1    0    0  501    0  0.00000000000E+00 -0.00000000000E+00 -0.25209163485E+02  0.25209163485E+02  0.00000000000E+00 0. -1.
         25    2    1    2    0    0  0.58266055210E+02 -0.38362890961E+02  0.28348689117E+03  0.31761661332E+03  0.12509536760E+03 0.  0.
          5    1    3    3  502    0  0.97485450300E+02 -0.21468573951E+02  0.20908371555E+03  0.23172782569E+03  0.41800000000E+01 0.  1.
         -5    1    3    3    0  502 -0.39219395090E+02 -0.16894317010E+02  0.74403175621E+02  0.85888787633E+02  0.41800000000E+01 0.  1.
        -11    1    1    2    0    0 -0.84562994308E+01  0.54384594846E+02  0.27110766240E+03  0.27663795432E+03  0.00000000000E+00 0.  1.
         11    1    1    2    0    0 -0.49809755779E+02 -0.16021703885E+02  0.12185765055E+03  0.13261596345E+03  0.00000000000E+00 0. -1.
</event>
<event>
 6    1  0.2943257E-009  0.1164869E+03  0.7561462E-02  0.1249008E+00
          1   -1    0    0  501    0  0.00000000000E+00  0.00000000000E+00  0.10954114197E+03  0.10954114197E+03  0.00000000000E+00 0. -1.
         -1   -1    0    0    0  501 -0.00000000000E+00 -0.00000000000E+00 -0.23813202900E+03  0.23813202900E+03  0.00000000000E+00 0.  1.
          5    1    1    2  502    0  0.93152968593E+02  0.20396308932E+02 -0.10391646514E+03  0.14110134337E+03  0.41800000000E+01 0.  1.
         -5    1    1    2    0  502 -0.31522931644E+02 -0.27044397897E+02 -0.74440469847E+02  0.85346063928E+02  0.41800000000E+01 0.  1.
        -11    1    1    2    0    0 -0.55458719839E+01  0.33247035899E+02  0.48597746805E+02  0.59142734860E+02  0.00000000000E+00 0. -1.
         11    1    1    2    0    0 -0.56084164965E+02 -0.26598946934E+02  0.11683011531E+01  0.62083028804E+02  0.00000000000E+00 0.  1.
</event>
<event>
 7    1  0.2943257E-009  0.1230457E+03  0.7561462E-02  0.1238156E+00
         -1   -1    0    0    0  501 -0.00000000000E+00  0.00000000000E+00  0.29037795815E+02  0.29037795815E+02  0.00000000000E+00 0.  1.
          1   -1    0    0  501    0  0.00000000000E+00 -0.00000000000E+00 -0.71006930071E+03  0.71006930071E+03  0.00000000000E+00 0. -1.
         25    2    1    2    0    0  0.37004734408E+02  0.56272707033E+02 -0.53856275613E+03  0.55698524720E+03  0.12508699129E+03 0.  0.
          5    1    3    3  502    0  0.80651026854E+02  0.47711947382E+02 -0.30165721273E+03  0.31590435966E+03  0.41800000000E+01 0. -1.
         -5    1    3    3    0  502 -0.43646292446E+02  0.85607596510E+01 -0.23690554339E+03  0.24108088755E+03  0.41800000000E+01 0. -1.
        -11    1    1    2    0    0 -0.44004104698E+02 -0.75371222750E+02 -0.87829402944E+02  0.12381916843E+03  0.00000000000E+00 0.  1.
         11    1    1    2    0    0  0.69993702895E+01  0.19098515718E+02 -0.54639345830E+02  0.58302680897E+02  0.00000000000E+00 0. -1.
</event>
<event>
 7    1  0.2943257E-009  0.1556804E+03  0.7561462E-02  0.1193662E+00
          2   -1    0    0  501    0  0.00000000000E+00  0.00000000000E+00  0.79557659468E+03  0.79557659468E+03  0.00000000000E+00 0. -1.
         -2   -1    0    0    0  501 -0.00000000000E+00 -0.00000000000E+00 -0.32110363287E+02  0.32110363287E+02  0.00000000000E+00 0.  1.
         25    2    1    2    0    0 -0.11067932866E+03  0.17625048068E+02  0.33997864197E+03  0.37920336075E+03  0.12509658549E+03 0.  0.
          5    1    3    3  502    0 -0.45550057631E+02 -0.52333525881E+02  0.17786263753E+03  0.19096124190E+03  0.41800000000E+01 0.  1.
         -5    1    3    3    0  502 -0.65129271033E+02  0.69958573949E+02  0.16211600444E+03  0.18824211885E+03  0.41800000000E+01 0.  1.
        -11    1    1    2    0    0  0.19399718625E+02 -0.46547876393E+02  0.11751013686E+03  0.12787371170E+03  0.00000000000E+00 0.  1.
         11    1    1    2    0    0  0.91279610039E+02  0.28922828325E+02  0.30597745256E+03  0.32060988551E+03  0.00000000000E+00 0. -1.
</event>
<event>
 7    1  0.2943257E-009  0.7770532E+02  0.7561462E-02  0.1335692E+00
          2   -1    0    0  501    0  0.00000000000E+00  0.00000000000E+00  0.85548416137E+02  0.85548416137E+02  0.00000000000E+00 0. -1.
         -2   -1    0    0    0  501 -0.00000000000E+00 -0.00000000000E+00 -0.16420314463E+03  0.16420314463E+03  0.00000000000E+00 0.  1.
         25    2    1    2    0    0 -0.42995412887E+02 -0.22877696583E+02 -0.53270269374E+02  0.14442415045E+03  0.12509444074E+03 0.  0.
          5    1    3    3  502    0 -0.47536859249E+02 -0.28289311203E+02  0.28413838978E+02  0.62328619117E+02  0.41800000000E+01 0.  1.
         -5    1    3    3    0  502  0.45414463625E+01  0.54116146204E+01 -0.81684108352E+02  0.82095531335E+02  0.41800000000E+01 0.  1.
        -11    1    1    2    0    0  0.35412734053E+02  0.51285707544E+02 -0.38366302261E+02  0.73186465146E+02  0.00000000000E+00 0.  1.
         11    1    1    2    0    0  0.75826788337E+01 -0.28408010961E+02  0.12981843141E+02  0.32140945170E+02  0.00000000000E+00 0. -1.
</event>
<event>
 7    1  0.2943257E-009  0.1042377E+03  0.7561462E-02  0.1271629E+00
          2   -1    0    0  501    0  0.00000000000E+00  0.00000000000E+00  0.18351078291E+03  0.18351078291E+03  0.00000000000E+00 0.  1.
         -2   -1    0    0    0  501 -0.00000000000E+00 -0.00000000000E+00 -0.11692516813E+03  0.11692516813E+03  0.00000000000E+00 0. -1.
         25    2    1    2    0    0  0.10269483134E+02 -0.17380547769E+02  0.13351630191E+03  0.18406878478E+03  0.12508864429E+03 0.  0.
          5    1    3    3  502    0 -0.50782690754E+02 -0.15906376516E+02  0.10222280111E+03  0.11532071783E+03  0.41800000000E+01 0. -1.
         -5    1    3    3    0  502  0.61052173888E+02 -0.14741712530E+01  0.31293500806E+02  0.68748066955E+02  0.41800000000E+01 0. -1.
        -11    1    1    2    0    0 -0.37806744327E+02 -0.23557329128E+02 -0.22199193747E+02  0.49770492013E+02  0.00000000000E+00 0.  1.
         11    1    1    2    0    0  0.27537261193E+02  0.40937876896E+02 -0.44731493390E+02  0.66596674239E+02  0.00000000000E+00 0. -1.
</event>
<event>
 7    1  0.4261876E-009  0.1223358E+03  0.7561462E-02  0.1239293E+00
          1   -1    0    0  501    0  0.00000000000E+00  0.00000000000E+00  0.37050052114E+03  0.37050052114E+03  0.00000000000E+00 0. -1.
         -1   -1    0    0    0  501 -0.00000000000E+00 -0.00000000000E+00 -0.59498053201E+02  0.59498053201E+02  0.00000000000E+00 0.  1.
         25    2    1    2    0    0  0.96138732304E+02 -0.78291776034E+01  0.21192999467E+03  0.26432062755E+03  0.12508844725E+03 0.  0.
          5    1    3    3  502    0  0.10650670121E+03  0.51278347828E+01  0.22066064175E+03  0.24510928851E+03  0.41800000000E+01 0.  1.
         -5    1    3    3    0  502 -0.10367968911E+02 -0.12957012386E+02 -0.87306470808E+01  0.19211339041E+02  0.41800000000E+01 0.  1.
        -11    1    1    2    0    0 -0.64726372744E+02  0.39834278625E+02  0.26733763554E+02  0.80566538935E+02  0.00000000000E+00 0.  1.
         11    1    1    2    0    0 -0.31412359561E+02 -0.32005101022E+02  0.72338709710E+02  0.85111407855E+02  0.00000000000E+00 0. -1.
</event>
<event>
 7    1  0.2943257E-009  0.9759836E+02  0.7561462E-02  0.1285429E+00
         -2   -1    0    0    0  501 -0.00000000000E+00  0.00000000000E+00  0.39391795583E+03  0.39391795583E+03  0.00000000000E+00 0.  1.
          2   -1    0    0  501    0  0.00000000000E+00 -0.00000000000E+00 -0.35806834336E+02  0.35806834336E+02  0.00000000000E+00 0. -1.
         25    2    1    2    0    0 -0.43178945248E+02 -0.60842132969E+01  0.23877734076E+03  0.27306641039E+03  0.12509679076E+03 0.  0.
          5    1    3    3  502    0 -0.70080983571E+02 -0.77881551380E+01  0.61363916190E+02  0.93568168888E+02  0.41800000000E+01 0. -1.
         -5    1    3    3    0  502  0.26902038324E+02  0.17039418411E+01  0.17741342457E+03  0.17949824150E+03  0.41800000000E+01 0. -1.
        -11    1    1    2    0    0  0.52316392203E+01  0.43604903118E+02  0.32107343413E+02  0.54402565435E+02  0.00000000000E+00 0.  1.
         11    1    1    2    0    0  0.37947306027E+02 -0.37520689821E+02  0.87226437320E+02  0.10225581434E+03  0.00000000000E+00 0. -1.
</event>
<event>
 7    1  0.2943257E-009  0.8176112E+02  0.7561462E-02  0.1324127E+00
          1   -1    0    0  501    0  0.00000000000E+00  0.00000000000E+00  0.68187642351E+02  0.68187642351E+02  0.00000000000E+00 0. -1.
         -1   -1    0    0    0  501 -0.00000000000E+00 -0.00000000000E+00 -0.23485771826E+03  0.23485771826E+03  0.00000000000E+00 0.  1.
         25    2    1    2    0    0  0.56727370606E+02 -0.33594845044E+02 -0.91383833712E+02  0.16836200069E+03  0.12509256582E+03 0.  0.
          5    1    3    3  502    0  0.61832100402E+02 -0.50159904713E+02 -0.47043479917E+01  0.79867565200E+02  0.41800000000E+01 0. -1.
         -5    1    3    3    0  502 -0.51047297960E+01  0.16565059669E+02 -0.86679485720E+02  0.88494435491E+02  0.41800000000E+01 0. -1.
        -11    1    1    2    0    0 -0.39708833071E+02  0.22380897103E+02 -0.95598266132E+02  0.10590903864E+03  0.00000000000E+00 0.  1.
         11    1    1    2    0    0 -0.17018537535E+02  0.11213947941E+02  0.20312023939E+02  0.28774321274E+02  0.00000000000E+00 0. -1.
</event>
<event>
 7    1  0.2943257E-009  0.1121512E+03  0.7561462E-02  0.1256637E+00
         -2   -1    0    0    0  501 -0.00000000000E+00  0.00000000000E+00  0.21613513163E+02  0.21613513163E+02  0.00000000000E+00 0.  1.
          2   -1    0    0  501    0  0.00000000000E+00 -0.00000000000E+00 -0.66645151166E+03  0.66645151166E+03  0.00000000000E+00 0. -1.
         25    2    1    2    0    0  0.27581266615E+02 -0.41237842954E+02 -0.38835458062E+03  0.41100639119E+03  0.12508272202E+03 0.  0.
          5    1    3    3  502    0 -0.39485154127E+02 -0.45062260946E+02 -0.11806853434E+03  0.13246635784E+03  0.41800000000E+01 0. -1.
         -5    1    3    3    0  502  0.67066420742E+02  0.38244179924E+01 -0.27028604628E+03  0.27854003335E+03  0.41800000000E+01 0. -1.
        -11    1    1    2    0    0  0.21491105636E+02  0.42743308464E+02 -0.74256619338E+02  0.88334045279E+02  0.00000000000E+00 0.  1.
         11    1    1    2    0    0 -0.49072372251E+02 -0.15054655100E+01 -0.18222679853E+03  0.18872458835E+03  0.00000000000E+00 0. -1.
</event>
<event>
 7    1  0.2943257E-009  0.1717530E+03  0.7561462E-02  0.1176032E+00
          1   -1    0    0  501    0  0.00000000000E+00  0.00000000000E+00  0.97048622832E+02  0.97048622832E+02  0.00000000000E+00 0. -1.
         -1   -1    0    0    0  501 -0.00000000000E+00 -0.00000000000E+00 -0.37112612804E+03  0.37112612804E+03  0.00000000000E+00 0.  1.
         25    2    1    2    0    0  0.13050684016E+03 -0.43423495471E+02 -0.23457159653E+03  0.29931148643E+03  0.12508355898E+03 0.  0.
          5    1    3    3  502    0  0.95188230719E+02 -0.86916656191E+02 -0.15056348473E+03  0.19824767269E+03  0.41800000000E+01 0. -1.
         -5    1    3    3    0  502  0.35318609436E+02  0.43493160720E+02 -0.84008111795E+02  0.10106381375E+03  0.41800000000E+01 0. -1.
        -11    1    1    2    0    0 -0.79848307888E+02  0.65324216098E+02 -0.46633042044E+02  0.11321504357E+03  0.00000000000E+00 0.  1.
         11    1    1    2    0    0 -0.50658532268E+02 -0.21900720627E+02  0.71271333601E+01  0.55648220865E+02  0.00000000000E+00 0. -1.
</event>
<event>
 7    1  0.2943257E-009  0.2312477E+03  0.7561462E-02  0.1125765E+00
         -3   -1    0    0    0  501 -0.00000000000E+00  0.00000000000E+00  0.10342597251E+03  0.10342597251E+03  0.00000000000E+00 0.  1.
          3   -1    0    0  501    0  0.00000000000E+00 -0.00000000000E+00 -0.71968851825E+03  0.71968851825E+03  0.00000000000E+00 0. -1.
         25    2    1    2    0    0 -0.20514060865E+03  0.51823777146E+02 -0.53271086264E+03  0.58668236538E+03  0.12508781507E+03 0.  0.
          5    1    3    3  502    0 -0.13230818676E+03 -0.25770244104E+02 -0.35162032915E+03  0.37659512747E+03  0.41800000000E+01 0.  1.
         -5    1    3    3    0  502 -0.72832421886E+02  0.77594021249E+02 -0.18109053349E+03  0.21008723791E+03  0.41800000000E+01 0.  1.
        -11    1    1    2    0    0  0.14117190509E+03 -0.65645544051E+02 -0.56669801967E+02  0.16568135289E+03  0.00000000000E+00 0.  1.
         11    1    1    2    0    0  0.63968703559E+02  0.13821766905E+02 -0.26881881138E+02  0.70750772497E+02  0.00000000000E+00 0. -1.
</event>
<event>
 7    1  0.2943257E-009  0.1195905E+03  0.7561462E-02  0.1243774E+00
          1   -1    0    0  501    0  0.00000000000E+00  0.00000000000E+00  0.34356539407E+03  0.34356539407E+03  0.00000000000E+00 0. -1.
         -1   -1    0    0    0  501 -0.00000000000E+00 -0.00000000000E+00 -0.48109761323E+02  0.48109761323E+02  0.00000000000E+00 0.  1.
         25    2    1    2    0    0 -0.56209109127E+02 -0.24037968917E+02  0.21058143921E+03  0.25244655160E+03  0.12508969173E+03 0.  0.
          5    1    3    3  502    0 -0.18963727816E+02  0.51406714229E+02  0.85934648283E+02  0.10200249711E+03  0.41800000000E+01 0. -1.
         -5    1    3    3    0  502 -0.37245381311E+02 -0.75444683146E+02  0.12464679093E+03  0.15044405449E+03  0.41800000000E+01 0. -1.
        -11    1    1    2    0    0  0.74768342730E+02  0.75259409919E+01  0.86194441088E+02  0.11435220390E+03  0.00000000000E+00 0. -1.
         11    1    1    2    0    0 -0.18559233602E+02  0.16512027925E+02 -0.13202475488E+01  0.24876399894E+02  0.00000000000E+00 0.  1.
</event>
<event>
 7    1  0.2943257E-009  0.1119767E+03  0.7561462E-02  0.1256953E+00
         -2   -1    0    0    0  501 -0.00000000000E+00  0.00000000000E+00  0.40521071732E+02  0.40521071732E+02  0.00000000000E+00 0. -1.
          2   -1    0    0  501    0  0.00000000000E+00 -0.00000000000E+00 -0.57568945250E+03  0.57568945250E+03  0.00000000000E+00 0.  1.
         25    2    1    2    0    0 -0.51451995359E+02  0.45715445529E+02 -0.45535973261E+03  0.47721853393E+03  0.12509129971E+03 0.  0.
          5    1    3    3  502    0 -0.68162253934E+02  0.76048487227E+02 -0.27199554907E+03  0.29056585550E+03  0.41800000000E+01 0. -1.
         -5    1    3    3    0  502  0.16710258575E+02 -0.30333041698E+02 -0.18336418354E+03  0.18665267843E+03  0.41800000000E+01 0. -1.
        -11    1    1    2    0    0  0.49025802429E+02 -0.87318673447E+01  0.13022506760E+01  0.49814362065E+02  0.00000000000E+00 0.  1.
         11    1    1    2    0    0  0.24261929306E+01 -0.36983578184E+02 -0.81110898832E+02  0.89177628230E+02  0.00000000000E+00 0. -1.
</event>
<event>
 7    1  0.2943257E-009  0.9757264E+02  0.7561462E-02  0.1285485E+00
          2   -1    0    0  501    0  0.00000000000E+00  0.00000000000E+00  0.46522991606E+03  0.46522991606E+03  0.00000000000E+00 0. -1.
         -2   -1    0    0    0  501 -0.00000000000E+00 -0.00000000000E+00 -0.39250337381E+02  0.39250337381E+02  0.00000000000E+00 0.  1.
         25    2    1    2    0    0 -0.41589664567E+02  0.55757595745E+02  0.16874095173E+03  0.22126717583E+03  0.12508814744E+03 0.  0.
          5    1    3    3  502    0 -0.60867064582E+02  0.39207711585E+02  0.27282674567E+02  0.77484585113E+02  0.41800000000E+01 0. -1.
         -5    1    3    3    0  502  0.19277400015E+02  0.16549884160E+02  0.14145827716E+03  0.14378259072E+03  0.41800000000E+01 0. -1.
        -11    1    1    2    0    0 -0.18774726727E+02 -0.11403021659E+02  0.86915723322E+01  0.23623350657E+02  0.00000000000E+00 0.  1.
         11    1    1    2    0    0  0.60364391294E+02 -0.44354574086E+02  0.24854705462E+03  0.25958972695E+03  0.00000000000E+00 0. -1.
</event>
<event>
 7    1  0.2943257E-009  0.1178724E+03  0.7561462E-02  0.1246649E+00
         -1   -1    0    0    0  501 -0.00000000000E+00  0.00000000000E+00  0.42368775416E+02  0.42368775416E+02  0.00000000000E+00 0.  1.
          1   -1    0    0  501    0  0.00000000000E+00 -0.00000000000E+00 -0.53305327280E+03  0.53305327280E+03  0.00000000000E+00 0. -1.
         25    2    1    2    0    0  0.54448760507E+02 -0.10043509628E+02 -0.42992153320E+03  0.45116022095E+03  0.12508989028E+03 0.  0.
          5    1    3    3  502    0  0.65915859549E+02 -0.51947050298E+02 -0.19680438965E+03  0.21399260912E+03  0.41800000000E+01 0.  1.
         -5    1    3    3    0  502 -0.11467099042E+02  0.41903540670E+02 -0.23311714355E+03  0.23716761183E+03  0.41800000000E+01 0.  1.
        -11    1    1    2    0    0  0.40570185130E+01  0.41463821172E+02 -0.18811546272E+02  0.45711947438E+02  0.00000000000E+00 0.  1.
         11    1    1    2    0    0 -0.58505779020E+02 -0.31420311545E+02 -0.41951417909E+02  0.78549879827E+02  0.00000000000E+00 0. -1.
</event>
<event>
 7    1  0.2943257E-009  0.4811874E+03  0.7561462E-02  0.1018809E+00
         -2   -1    0    0    0  501 -0.00000000000E+00  0.00000000000E+00  0.60174486276E+03  0.60174486276E+03  0.00000000000E+00 0.  1.
          2   -1    0    0  501    0  0.00000000000E+00 -0.00000000000E+00 -0.42266377824E+03  0.42266377824E+03  0.00000000000E+00 0. -1.
         25    2    1    2    0    0  0.25337599459E+03  0.39725776373E+03 -0.54813988052E+02  0.49057617326E+03  0.12508910026E+03 0.  0.
          5    1    3    3  502    0 -0.11112788013E+02  0.20456814463E+02  0.99533976681E+01  0.25661602454E+02  0.41800000000E+01 0. -1.
         -5    1    3    3    0  502  0.26448878260E+03  0.37680094927E+03 -0.64767385720E+02  0.46491457080E+03  0.41800000000E+01 0. -1.
        -11    1    1    2    0    0 -0.22092968245E+03 -0.27993335493E+03  0.15547523272E+03  0.38903104733E+03  0.00000000000E+00 0.  1.
         11    1    1    2    0    0 -0.32446312140E+02 -0.11732440880E+03  0.78419839855E+02  0.14480142041E+03  0.00000000000E+00 0. -1.
</event>
<event>
 7    1  0.2943257E-009  0.9490635E+02  0.7561462E-02  0.1291387E+00
         -3   -1    0    0    0  501 -0.00000000000E+00  0.00000000000E+00  0.25397535324E+03  0.25397535324E+03  0.00000000000E+00 0.  1.
          3   -1    0    0  501    0  0.00000000000E+00 -0.00000000000E+00 -0.58894865112E+02  0.58894865112E+02  0.00000000000E+00 0. -1.
         25    2    1    2    0    0 -0.95615276750E+01  0.55018869289E+02  0.10270284392E+03  0.17121198099E+03  0.12508864655E+03 0.  0.
          5    1    3    3  502    0 -0.23249526256E+01  0.89853203363E+02  0.38875938302E+02  0.98019459997E+02  0.41800000000E+01 0. -1.
         -5    1    3    3    0  502 -0.72365750494E+01 -0.34834334073E+02  0.63826905617E+02  0.73192520994E+02  0.41800000000E+01 0. -1.
        -11    1    1    2    0    0 -0.98538115484E+01 -0.33984958850E+02 -0.88388647842E+01  0.36471914684E+02  0.00000000000E+00 0. -1.
         11    1    1    2    0    0  0.19415339223E+02 -0.21033910440E+02  0.10121650899E+03  0.10518632267E+03  0.00000000000E+00 0.  1.
</event>
<event>
 7    1  0.2943257E-009  0.2281305E+03  0.7561462E-02  0.1127963E+00
         -2   -1    0    0    0  501 -0.00000000000E+00  0.00000000000E+00  0.53080728801E+03  0.53080728801E+03  0.00000000000E+00 0.  1.
          2   -1    0    0  501    0  0.00000000000E+00 -0.00000000000E+00 -0.99002594710E+02  0.99002594710E+02  0.00000000000E+00 0. -1.
         25    2    1    2    0    0 -0.20018952275E+03  0.18501055605E+02  0.24282638844E+03  0.33916118144E+03  0.12509003957E+03 0.  0.
          5    1    3    3  502    0 -0.17973438081E+03  0.59554528582E+02  0.18018512935E+03  0.26141029582E+03  0.41800000000E+01 0.  1.
         -5    1    3    3    0  502 -0.20455141931E+02 -0.41053472977E+02  0.62641259087E+02  0.77750885621E+02  0.41800000000E+01 0.  1.
        -11    1    1    2    0    0  0.85887663097E+02  0.37276834843E+02  0.78639941699E+02  0.12227221074E+03  0.00000000000E+00 0.  1.
         11    1    1    2    0    0  0.11430185965E+03 -0.55777890448E+02  0.11033836317E+03  0.16837649054E+03  0.00000000000E+00 0. -1.
</event>
<event>
 7    1  0.2943257E-009  0.1923583E+03  0.7561462E-02  0.1156351E+00
          3   -1    0    0  501    0  0.00000000000E+00  0.00000000000E+00  0.26917352047E+03  0.26917352047E+03  0.00000000000E+00 0. -1.
         -3   -1    0    0    0  501 -0.00000000000E+00 -0.00000000000E+00 -0.17266975400E+03  0.17266975400E+03  0.00000000000E+00 0.  1.
         25    2    1    2    0    0  0.23771466335E+02  0.18109840082E+03  0.85962411323E+02  0.23748278352E+03  0.12508726121E+03 0.  0.
          5    1    3    3  502    0  0.44820930916E+02  0.14360254679E+03  0.10914746491E+02  0.15088807568E+03  0.41800000000E+01 0.  1.
         -5    1    3    3    0  502 -0.21049464581E+02  0.37495854029E+02  0.75047664832E+02  0.86594707836E+02  0.41800000000E+01 0.  1.
        -11    1    1    2    0    0 -0.37290015316E+02 -0.16838096131E+03 -0.14636823125E+02  0.17308070362E+03  0.00000000000E+00 0.  1.
         11    1    1    2    0    0  0.13518548981E+02 -0.12717439506E+02  0.25178178270E+02  0.31279787326E+02  0.00000000000E+00 0. -1.
</event>
<event>
 7    1  0.2943257E-009  0.1067772E+03  0.7561462E-02  0.1266657E+00
          1   -1    0    0  501    0  0.00000000000E+00  0.00000000000E+00  0.12355065310E+03  0.12355065310E+03  0.00000000000E+00 0. -1.
         -1   -1    0    0    0  501 -0.00000000000E+00 -0.00000000000E+00 -0.11872414716E+03  0.11872414716E+03  0.00000000000E+00 0.  1.
         25    2    1    2    0    0 -0.29541189384E+02 -0.41901263682E+02 -0.14598993170E+02  0.13597464176E+03  0.12509026674E+03 0.  0.
          5    1    3    3  502    0 -0.73557667127E+02 -0.31732224458E+02  0.15265277246E+02  0.81658836335E+02  0.41800000000E+01 0. -1.
         -5    1    3    3    0  502  0.44016477743E+02 -0.10169039224E+02 -0.29864270416E+02  0.54315805427E+02  0.41800000000E+01 0. -1.
        -11    1    1    2    0    0 -0.62909965481E+01  0.50684316464E+02  0.39254770782E+02  0.64415942143E+02  0.00000000000E+00 0. -1.
         11    1    1    2    0    0  0.35832185932E+02 -0.87830527814E+01 -0.19829271673E+02  0.41884216358E+02  0.00000000000E+00 0.  1.
</event>
<event>
 7    1  0.2943257E-009  0.1637985E+03  0.7561462E-02  0.1184474E+00
         -1   -1    0    0    0  501 -0.00000000000E+00  0.00000000000E+00  0.37279941279E+03  0.37279941279E+03  0.00000000000E+00 0.  1.
          1   -1    0    0  501    0  0.00000000000E+00 -0.00000000000E+00 -0.92162737884E+02  0.92162737884E+02  0.00000000000E+00 0. -1.
         25    2    1    2    0    0 -0.90107330124E+02 -0.11813911410E+03  0.12518150124E+03  0.23107135248E+03  0.12508948981E+03 0.  0.
          5    1    3    3  502    0 -0.42878899830E+02 -0.26468995063E+02  0.11709931499E+03  0.12754971470E+03  0.41800000000E+01 0. -1.
         -5    1    3    3    0  502 -0.47228430295E+02 -0.91670119040E+02  0.80821862492E+01  0.10352163777E+03  0.41800000000E+01 0. -1.
        -11    1    1    2    0    0  0.13059039892E+01  0.75161693913E+02  0.79247499076E+02  0.10922981153E+03  0.00000000000E+00 0.  1.
         11    1    1    2    0    0  0.88801426135E+02  0.42977420190E+02  0.76207674593E+02  0.12466098667E+03  0.00000000000E+00 0. -1.
</event>
<event>
 7    1  0.2943257E-009  0.1602734E+03  0.7561462E-02  0.1188388E+00
         -3   -1    0    0    0  501 -0.00000000000E+00  0.00000000000E+00  0.29646343414E+03  0.29646343414E+03  0.00000000000E+00 0.  1.
          3   -1    0    0  501    0  0.00000000000E+00 -0.00000000000E+00 -0.15538866705E+03  0.15538866705E+03  0.00000000000E+00 0. -1.
         25    2    1    2    0    0 -0.11096292966E+03  0.46821188147E+02  0.22002596747E+03  0.28029566110E+03  0.12509690586E+03 0.  0.
          5    1    3    3  502    0 -0.59807694938E+02 -0.40234363200E+02  0.82543549418E+02  0.10966619491E+03  0.41800000000E+01 0. -1.
         -5    1    3    3    0  502 -0.51155234721E+02  0.87055551347E+02  0.13748241805E+03  0.17062946619E+03  0.41800000000E+01 0. -1.
        -11    1    1    2    0    0  0.10118513552E+03 -0.17866915160E+01 -0.32918236163E+02  0.10642008358E+03  0.00000000000E+00 0.  1.
         11    1    1    2    0    0  0.97777941344E+01 -0.45034496631E+02 -0.46032964210E+02  0.65136356506E+02  0.00000000000E+00 0. -1.
</event>
<event>
 7    1  0.2943257E-009  0.1139979E+03  0.7561462E-02  0.1253340E+00
         -2   -1    0    0    0  501 -0.00000000000E+00  0.00000000000E+00  0.14275243570E+02  0.14275243570E+02  0.00000000000E+00 0.  1.
          2   -1    0    0  501    0  0.00000000000E+00 -0.00000000000E+00 -0.97607492793E+03  0.97607492793E+03  0.00000000000E+00 0. -1.
         25    2    1    2    0    0  0.26707744282E+02  0.36197889008E+02 -0.59190217932E+03  0.60664610442E+03  0.12509082839E+03 0.  0.
          5    1    3    3  502    0 -0.41677891984E+02  0.39847074975E+02 -0.36654076379E+03  0.37107201456E+03  0.41800000000E+01 0. -1.
         -5    1    3    3    0  502  0.68385636265E+02 -0.36491859675E+01 -0.22536141553E+03  0.23557408986E+03  0.41800000000E+01 0. -1.
        -11    1    1    2    0    0 -0.37968278194E+02 -0.62405640914E+02 -0.24949745673E+03  0.25997121972E+03  0.00000000000E+00 0.  1.
         11    1    1    2    0    0  0.11260533913E+02  0.26207751907E+02 -0.12040004830E+03  0.12373284736E+03  0.00000000000E+00 0. -1.
</event>
<event>
 7    1  0.2943257E-009  0.1571934E+03  0.7561462E-02  0.1191902E+00
         -1   -1    0    0    0  501 -0.00000000000E+00  0.00000000000E+00  0.41315732383E+02  0.41315732383E+02  0.00000000000E+00 0.  1.
          1   -1    0    0  501    0  0.00000000000E+00 -0.00000000000E+00 -0.93893025115E+03  0.93893025115E+03  0.00000000000E+00 0. -1.
         25    2    1    2    0    0  0.34347058500E+02  0.11095186012E+03 -0.69883226775E+03  0.71937798980E+03  0.12509243812E+03 0.  0.
          5    1    3    3  502    0 -0.33563344677E+02  0.85184651034E+02 -0.29052424521E+03  0.30463869145E+03  0.41800000000E+01 0.  1.
         -5    1    3    3    0  502  0.67910403177E+02  0.25767209086E+02 -0.40830802254E+03  0.41473929835E+03  0.41800000000E+01 0.  1.
        -11    1    1    2    0    0  0.13998049297E+02 -0.99256667801E+02 -0.18305179618E+03  0.20870024334E+03  0.00000000000E+00 0. -1.
         11    1    1    2    0    0 -0.48345107797E+02 -0.11695192318E+02 -0.15730454844E+02  0.52167750391E+02  0.00000000000E+00 0.  1.
</event>
<event>
 7    1  0.3105464E-009  0.2024788E+03  0.7561462E-02  0.1147664E+00
          2   -1    0    0  501    0  0.00000000000E+00  0.00000000000E+00  0.24239001439E+03  0.24239001439E+03  0.00000000000E+00 0. -1.
         -2   -1    0    0    0  501 -0.00000000000E+00 -0.00000000000E+00 -0.29238986654E+03  0.29238986654E+03  0.00000000000E+00 0.  1.
         25    2    1    2    0    0  0.83060817386E+02  0.18361421193E+03 -0.16143290540E+03  0.28691532952E+03  0.12508615096E+03 0.  0.
          5    1    3    3  502    0  0.37934110910E+02  0.73682019322E+02  0.41245949708E+01  0.83081414442E+02  0.41800000000E+01 0.  1.
         -5    1    3    3    0  502  0.45126706475E+02  0.10993219261E+03 -0.16555750037E+03  0.20383391508E+03  0.41800000000E+01 0. -1.
        -11    1    1    2    0    0 -0.49392869926E+02 -0.78974083825E+02  0.10108081879E+03  0.13745505972E+03  0.00000000000E+00 0. -1.
         11    1    1    2    0    0 -0.33667947459E+02 -0.10464012810E+03  0.10352234460E+02  0.11040949168E+03  0.00000000000E+00 0.  1.
</event>
<event>
 7    1  0.2943257E-009  0.1097607E+03  0.7561462E-02  0.1261014E+00
         -2   -1    0    0    0  501 -0.00000000000E+00  0.00000000000E+00  0.23944335898E+02  0.23944335898E+02  0.00000000000E+00 0. -1.
          2   -1    0    0  501    0  0.00000000000E+00 -0.00000000000E+00 -0.70448717546E+03  0.70448717546E+03  0.00000000000E+00 0.  1.
         25    2    1    2    0    0 -0.57977612970E+02  0.27803255724E+02 -0.29337339790E+03  0.32534482995E+03  0.12508750197E+03 0.  0.
          5    1    3    3  502    0 -0.72198131595E+02 -0.39689774193E+01 -0.27761348121E+03  0.28690597822E+03  0.41800000000E+01 0. -1.
         -5    1    3    3    0  502  0.14220518625E+02  0.31772233144E+02 -0.15759916691E+02  0.38438851739E+02  0.41800000000E+01 0. -1.
        -11    1    1    2    0    0  0.21580707163E+02 -0.59798479307E+02 -0.22890600128E+03  0.23757007907E+03  0.00000000000E+00 0.  1.
         11    1    1    2    0    0  0.36396905808E+02  0.31995223583E+02 -0.15826344039E+03  0.16551660233E+03  0.00000000000E+00 0. -1.
</event>
<event>
 7    1  0.2943257E-009  0.1197412E+03  0.7561462E-02  0.1243525E+00
         -1   -1    0    0    0  501 -0.00000000000E+00  0.00000000000E+00  0.79464141947E+02  0.79464141947E+02  0.00000000000E+00 0.  1.
          1   -1    0    0  501    0  0.00000000000E+00 -0.00000000000E+00 -0.38527370062E+03  0.38527370062E+03  0.00000000000E+00 0. -1.
         25    2    1    2    0    0  0.24596403394E+02 -0.95844416485E+02 -0.28832657788E+03  0.32950071582E+03  0.12508945193E+03 0.  0.
          5    1    3    3  502    0  0.27804634517E+02 -0.29578045065E+02 -0.24887735921E+03  0.25220105229E+03  0.41800000000E+01 0.  1.
         -5    1    3    3    0  502 -0.32082311232E+01 -0.66266371421E+02 -0.39449218676E+02  0.77299663533E+02  0.41800000000E+01 0.  1.
        -11    1    1    2    0    0  0.30907320080E+02  0.55688956472E+02 -0.19781931639E+02  0.66692181902E+02  0.00000000000E+00 0.  1.
         11    1    1    2    0    0 -0.55503723474E+02  0.40155460013E+02  0.22989508481E+01  0.68544944842E+02  0.00000000000E+00 0. -1.
</event>
<event>
 7    1  0.2943257E-009  0.1541531E+03  0.7561462E-02  0.1195461E+00
         -1   -1    0    0    0  501 -0.00000000000E+00  0.00000000000E+00  0.52246876658E+03  0.52246876658E+03  0.00000000000E+00 0.  1.
          1   -1    0    0  501    0  0.00000000000E+00 -0.00000000000E+00 -0.69193267216E+02  0.69193267216E+02  0.00000000000E+00 0. -1.
         25    2    1    2    0    0 -0.10055574126E+03  0.10067161958E+03  0.13962628712E+03  0.23534911642E+03  0.12508986551E+03 0.  0.
          5    1    3    3  502    0 -0.42462374750E+02  0.80706759468E+02  0.99923985664E+01  0.91836565280E+02  0.41800000000E+01 0.  1.
         -5    1    3    3    0  502 -0.58093366515E+02  0.19964860115E+02  0.12963388855E+03  0.14351255114E+03  0.41800000000E+01 0.  1.
        -11    1    1    2    0    0  0.23115679978E+02 -0.67228805560E+02  0.21535749799E+03  0.22678822478E+03  0.00000000000E+00 0.  1.
         11    1    1    2    0    0  0.77440061287E+02 -0.33442814023E+02  0.98291714250E+02  0.12952469260E+03  0.00000000000E+00 0. -1.
</event>
<event>
 7    1  0.2943257E-009  0.1134725E+03  0.7561462E-02  0.1254271E+00
          2   -1    0    0  501    0  0.00000000000E+00  0.00000000000E+00  0.46469053230E+02  0.46469053230E+02  0.00000000000E+00 0. -1.
         -2   -1    0    0    0  501 -0.00000000000E+00 -0.00000000000E+00 -0.41087104601E+03  0.41087104601E+03  0.00000000000E+00 0.  1.
         25    2    1    2    0    0 -0.63079105706E+02  0.18680765352E+02 -0.10956772564E+03  0.17882877025E+03  0.12508676188E+03 0.  0.
          5    1    3    3  502    0 -0.97674096121E+02 -0.57652206491E+01 -0.67205729467E+02  0.11877520488E+03  0.41800000000E+01 0.  1.
         -5    1    3    3    0  502  0.34594990415E+02  0.24445986001E+02 -0.42361996174E+02  0.60053565367E+02  0.41800000000E+01 0.  1.
        -11    1    1    2    0    0  0.70627484940E+02 -0.26631850087E+02 -0.25654172143E+03  0.26741569121E+03  0.00000000000E+00 0.  1.
         11    1    1    2    0    0 -0.75483792332E+01  0.79510847351E+01  0.17074542978E+01  0.11095637778E+02  0.00000000000E+00 0. -1.
</event>
<event>
 7    1  0.2943257E-009  0.1190538E+03  0.7561462E-02  0.1244666E+00
          1   -1    0    0  501    0  0.00000000000E+00  0.00000000000E+00  0.17194364536E+02  0.17194364536E+02  0.00000000000E+00 0. -1.
         -1   -1    0    0    0  501 -0.00000000000E+00 -0.00000000000E+00 -0.10587088074E+04  0.10587088074E+04  0.00000000000E+00 0.  1.
         25    2    1    2    0    0 -0.61967989441E+02 -0.39689441424E+02 -0.45258476169E+03  0.47528492811E+03  0.12509001918E+03 0.  0.
          5    1    3    3  502    0 -0.74706545332E+02 -0.61044176560E+02 -0.43221351294E+03  0.44286956609E+03  0.41800000000E+01 0. -1.
         -5    1    3    3    0  502  0.12738555891E+02  0.21354735135E+02 -0.20371248759E+02  0.32415362020E+02  0.41800000000E+01 0. -1.
        -11    1    1    2    0    0  0.75616867776E+02  0.13476850569E+01 -0.42743624253E+03  0.43407541785E+03  0.00000000000E+00 0.  1.
         11    1    1    2    0    0 -0.13648878335E+02  0.38341756368E+02 -0.16149343860E+03  0.16654282594E+03  0.00000000000E+00 0. -1.
</event>
<event>
 7    1  0.2943257E-009  0.3181322E+03  0.7561462E-02  0.1076512E+00
         -2   -1    0    0    0  501 -0.00000000000E+00  0.00000000000E+00  0.11846748593E+03  0.11846748593E+03  0.00000000000E+00 0.  1.
          2   -1    0    0  501    0  0.00000000000E+00 -0.00000000000E+00 -0.10807129357E+04  0.10807129357E+04  0.00000000000E+00 0. -1.
         25    2    1    2    0    0  0.54416859758E+02 -0.30938473121E+03 -0.70889968636E+03  0.78540862456E+03  0.12509130940E+03 0.  0.
          5    1    3    3  502    0 -0.85076572557E+01 -0.96063437498E+02 -0.10902514045E+03  0.14561771151E+03  0.41800000000E+01 0. -1.
         -5    1    3    3    0  502  0.62924517013E+02 -0.21332129371E+03 -0.59987454591E+03  0.63979091305E+03  0.41800000000E+01 0. -1.
        -11    1    1    2    0    0 -0.60391037831E+02  0.23405241590E+03 -0.14565095877E+03  0.28220881033E+03  0.00000000000E+00 0. -1.
         11    1    1    2    0    0  0.59741780735E+01  0.75332315314E+02 -0.10769480467E+03  0.13156298677E+03  0.00000000000E+00 0.  1.
</event>
<event>
 7    1  0.2943257E-009  0.1010915E+03  0.7561462E-02  0.1278017E+00
          2   -1    0    0  501    0  0.00000000000E+00  0.00000000000E+00  0.44026184704E+03  0.44026184704E+03  0.00000000000E+00 0. -1.
         -2   -1    0    0    0  501 -0.00000000000E+00 -0.00000000000E+00 -0.31167308557E+02  0.31167308557E+02  0.00000000000E+00 0.  1.
         25    2    1    2    0    0  0.38506053039E+01  0.39862115310E+02  0.27881657956E+03  0.30820469821E+03  0.12509050948E+03 0.  0.
          5    1    3    3  502    0 -0.38852515065E+02 -0.14542339577E+02  0.34085956816E+02  0.53854641576E+02  0.41800000000E+01 0.  1.
         -5    1    3    3    0  502  0.42703120369E+02  0.54404454887E+02  0.24473062275E+03  0.25435005663E+03  0.41800000000E+01 0.  1.
        -11    1    1    2    0    0 -0.24030249571E+01  0.25604540685E+02  0.12794149675E+02  0.28723810655E+02  0.00000000000E+00 0.  1.
         11    1    1    2    0    0 -0.14475803468E+01 -0.65466655995E+02  0.11748380925E+03  0.13450064673E+03  0.00000000000E+00 0. -1.
</event>
<event>
 7    1  0.2943257E-009  0.1184288E+03  0.7561462E-02  0.1245712E+00
         -2   -1    0    0    0  501 -0.00000000000E+00  0.00000000000E+00  0.11129805742E+04  0.11129805742E+04  0.00000000000E+00 0.  1.
          2   -1    0    0  501    0  0.00000000000E+00 -0.00000000000E+00 -0.14011126627E+02  0.14011126627E+02  0.00000000000E+00 0. -1.
         25    2    1    2    0    0 -0.52813422041E+02 -0.28826749017E+02  0.52617982972E+03  0.54418121638E+03  0.12509094312E+03 0.  0.
          5    1    3    3  502    0  0.36581371679E+02 -0.12971251234E+02  0.82257685282E+02  0.91050806149E+02  0.41800000000E+01 0.  1.
         -5    1    3    3    0  502 -0.89394793720E+02 -0.15855497783E+02  0.44392214444E+03  0.45313041023E+03  0.41800000000E+01 0.  1.
        -11    1    1    2    0    0  0.41204982169E+02 -0.27424706170E+02  0.29794536950E+03  0.30202882026E+03  0.00000000000E+00 0. -1.
         11    1    1    2    0    0  0.11608439872E+02  0.56251455188E+02  0.27484424833E+03  0.28078166415E+03  0.00000000000E+00 0.  1.
</event>
<event>
 7    1  0.2943257E-009  0.1211971E+03  0.7561462E-02  0.1241135E+00
          3   -1    0    0  501    0  0.00000000000E+00  0.00000000000E+00  0.39618885520E+03  0.39618885520E+03  0.00000000000E+00 0. -1.
         -3   -1    0    0    0  501 -0.00000000000E+00 -0.00000000000E+00 -0.44644893797E+02  0.44644893797E+02  0.00000000000E+00 0.  1.
         25    2    1    2    0    0  0.71228388881E+02  0.12858156158E+02  0.23511616374E+03  0.27598173480E+03  0.12508993537E+03 0.  0.
          5    1    3    3  502    0  0.63475218421E+02  0.60743434365E+02  0.10451811110E+03  0.13660298723E+03  0.41800000000E+01 0.  1.
         -5    1    3    3    0  502  0.77531704593E+01 -0.47885278207E+02  0.13059805264E+03  0.13937874757E+03  0.41800000000E+01 0.  1.
        -11    1    1    2    0    0 -0.55196771817E+02  0.27975325587E+02  0.10080879923E+03  0.11828658615E+03  0.00000000000E+00 0.  1.
         11    1    1    2    0    0 -0.16031617064E+02 -0.40833481745E+02  0.15618998434E+02  0.46565428047E+02  0.00000000000E+00 0. -1.
</event>
<event>
 7    1  0.2943257E-009  0.1666769E+03  0.7561462E-02  0.1181358E+00
          1   -1    0    0  501    0  0.00000000000E+00  0.00000000000E+00  0.35976775257E+02  0.35976775257E+02  0.00000000000E+00 0. -1.
         -1   -1    0    0    0  501 -0.00000000000E+00 -0.00000000000E+00 -0.11948909758E+04  0.11948909758E+04  0.00000000000E+00 0.  1.
         25    2    1    2    0    0  0.14661663714E+03 -0.46721050296E+02 -0.34909403719E+03  0.40148954762E+03  0.12509162730E+03 0.  0.
          5    1    3    3  502    0  0.15693281460E+02 -0.34323782574E+01 -0.19077656025E+03  0.19149733325E+03  0.41800000000E+01 0.  1.
         -5    1    3    3    0  502  0.13092335568E+03 -0.43288672039E+02 -0.15831747694E+03  0.20999221436E+03  0.41800000000E+01 0.  1.
        -11    1    1    2    0    0  0.42552579576E+01  0.26191346245E+02 -0.13673404720E+03  0.13928493638E+03  0.00000000000E+00 0.  1.
         11    1    1    2    0    0 -0.15087189509E+03  0.20529704052E+02 -0.67308611613E+03  0.69009326703E+03  0.00000000000E+00 0. -1.
</event>
<event>
 7    1  0.2943257E-009  0.1081693E+03  0.7561462E-02  0.1263998E+00
         -3   -1    0    0    0  501 -0.00000000000E+00  0.00000000000E+00  0.32811142805E+02  0.32811142805E+02  0.00000000000E+00 0.  1.
          3   -1    0    0  501    0  0.00000000000E+00 -0.00000000000E+00 -0.44394182735E+03  0.44394182735E+03  0.00000000000E+00 0. -1.
         25    2    1    2    0    0  0.44219314285E+02  0.37038344821E+01 -0.17514099816E+03  0.21975540454E+03  0.12509597293E+03 0.  0.
          5    1    3    3  502    0 -0.24184169804E+02  0.36495761958E+02 -0.22840748600E+02  0.49557914672E+02  0.41800000000E+01 0.  1.
         -5    1    3    3    0  502  0.68403484089E+02 -0.32791927476E+02 -0.15230024956E+03  0.17019748987E+03  0.41800000000E+01 0.  1.
        -11    1    1    2    0    0  0.25344307993E+02 -0.83040723261E+01 -0.33361059806E+02  0.42711261702E+02  0.00000000000E+00 0.  1.
         11    1    1    2    0    0 -0.69563622278E+02  0.46002378440E+01 -0.20262862658E+03  0.21428630391E+03  0.00000000000E+00 0. -1.
</event>
<event>
 7    1  0.2983062E-009  0.1082899E+03  0.7561462E-02  0.1263770E+00
         -2   -1    0    0    0  501 -0.00000000000E+00  0.00000000000E+00  0.41850025070E+02  0.41850025070E+02  0.00000000000E+00 0. -1.
          2   -1    0    0  501    0  0.00000000000E+00 -0.00000000000E+00 -0.45376079422E+03  0.45376079422E+03  0.00000000000E+00 0.  1.
         25    2    1    2    0    0 -0.75329298640E+02 -0.48448188798E+01 -0.29364407648E+03  0.32798193594E+03  0.12508929270E+03 0.  0.
          5    1    3    3  502    0 -0.71022749035E+02  0.45038219773E+02 -0.24065242893E+03  0.25495830261E+03  0.41800000000E+01 0. -1.
         -5    1    3    3    0  502 -0.43065496055E+01 -0.49883038653E+02 -0.52991647551E+02  0.73023633332E+02  0.41800000000E+01 0. -1.
        -11    1    1    2    0    0  0.65793492242E+02 -0.78461645182E+01 -0.13131186580E+03  0.14708212679E+03  0.00000000000E+00 0.  1.
         11    1    1    2    0    0  0.95358063985E+01  0.12690983398E+02  0.13045173132E+02  0.20546756564E+02  0.00000000000E+00 0. -1.
</event>
<event>
 7    1  0.2943257E-009  0.1105601E+03  0.7561462E-02  0.1259536E+00
         -1   -1    0    0    0  501 -0.00000000000E+00  0.00000000000E+00  0.28943816465E+03  0.28943816465E+03  0.00000000000E+00 0.  1.
          1   -1    0    0  501    0  0.00000000000E+00 -0.00000000000E+00 -0.42974645120E+02  0.42974645120E+02  0.00000000000E+00 0. -1.
         25    2    1    2    0    0 -0.56418543743E+01  0.32653516089E+02  0.12513319620E+03  0.18001104441E+03  0.12509027413E+03 0.  0.
          5    1    3    3  502    0  0.58840669333E+02  0.24075047970E+02  0.69820900314E+02  0.94521229483E+02  0.41800000000E+01 0. -1.
         -5    1    3    3    0  502 -0.64482523707E+02  0.85784681189E+01  0.55312295891E+02  0.85489814923E+02  0.41800000000E+01 0. -1.
        -11    1    1    2    0    0 -0.37375579602E+02 -0.31995934281E+02  0.64355341579E+02  0.81007924000E+02  0.00000000000E+00 0. -1.
         11    1    1    2    0    0  0.43017433976E+02 -0.65758180800E+00  0.56974981747E+02  0.71393841365E+02  0.00000000000E+00 0.  1.
</event>
<event>
 7    1  0.2943257E-009  0.9971497E+02  0.7561462E-02  0.1280896E+00
          2   -1    0    0  501    0  0.00000000000E+00  0.00000000000E+00  0.62082339907E+02  0.62082339907E+02  0.00000000000E+00 0. -1.
         -2   -1    0    0    0  501 -0.00000000000E+00 -0.00000000000E+00 -0.23365851067E+03  0.23365851067E+03  0.00000000000E+00 0.  1.
         25    2    1    2    0    0  0.47307588433E+02  0.85412679525E+01 -0.12234396216E+03  0.18145684958E+03  0.12509029539E+03 0.  0.
          5    1    3    3  502    0  0.22072548722E+02  0.64477401307E+02 -0.86735088632E+02  0.11038560000E+03  0.41800000000E+01 0. -1.
         -5    1    3    3    0  502  0.25235039711E+02 -0.55936133355E+02 -0.35608873527E+02  0.71071249586E+02  0.41800000000E+01 0. -1.
        -11    1    1    2    0    0 -0.39113748613E+02  0.17127271746E+02 -0.68807249441E+02  0.80979419259E+02  0.00000000000E+00 0.  1.
         11    1    1    2    0    0 -0.81938398206E+01 -0.25668539698E+02  0.19575040832E+02  0.33304581739E+02  0.00000000000E+00 0. -1.
</event>
<event>
 7    1  0.2943257E-009  0.1036006E+03  0.7561462E-02  0.1272902E+00
         -1   -1    0    0    0  501 -0.00000000000E+00  0.00000000000E+00  0.23524023935E+03  0.23524023935E+03  0.00000000000E+00 0.  1.
          1   -1    0    0  501    0  0.00000000000E+00 -0.00000000000E+00 -0.84843077380E+02  0.84843077380E+02  0.00000000000E+00 0. -1.
         25    2    1    2    0    0  0.57147892001E+02 -0.49308351094E+02  0.15286864737E+03  0.21145553370E+03  0.12508966520E+03 0.  0.
          5    1    3    3  502    0  0.25973722312E+02 -0.80904795747E+02  0.14205206691E+03  0.16557923282E+03  0.41800000000E+01 0.  1.
         -5    1    3    3    0  502  0.31174169689E+02  0.31596444653E+02  0.10816580452E+02  0.45876300888E+02  0.41800000000E+01 0.  1.
        -11    1    1    2    0    0 -0.48384881315E+02  0.31611797211E+02  0.34070758490E+02  0.67091124948E+02  0.00000000000E+00 0.  1.
         11    1    1    2    0    0 -0.87630106859E+01  0.17696553883E+02 -0.36542243889E+02  0.41536658075E+02  0.00000000000E+00 0. -1.
</event>
<event>
 7    1  0.2943257E-009  0.1054407E+03  0.7561462E-02  0.1269254E+00
         -1   -1    0    0    0  501 -0.00000000000E+00  0.00000000000E+00  0.85538478936E+03  0.85538478936E+03  0.00000000000E+00 0.  1.
          1   -1    0    0  501    0  0.00000000000E+00 -0.00000000000E+00 -0.30138255101E+02  0.30138255101E+02  0.00000000000E+00 0. -1.
         25    2    1    2    0    0 -0.25249385376E+02  0.74638412898E+02  0.68913656336E+03  0.70481511435E+03  0.12508684314E+03 0.  0.
          5    1    3    3  502    0 -0.39304447482E+02  0.64052012810E+02  0.17673316821E+03  0.19209264713E+03  0.41800000000E+01 0.  1.
         -5    1    3    3    0  502  0.14055062105E+02  0.10586400088E+02  0.51240339515E+03  0.51272246722E+03  0.41800000000E+01 0.  1.
        -11    1    1    2    0    0 -0.24008399184E+02 -0.62277251233E+02  0.90482997673E+02  0.11243679167E+03  0.00000000000E+00 0. -1.
         11    1    1    2    0    0  0.49257784560E+02 -0.12361161665E+02  0.45626973227E+02  0.68271138436E+02  0.00000000000E+00 0.  1.
</event>
<event>
 7    1  0.2943257E-009  0.1911660E+03  0.7561462E-02  0.1157414E+00
         -1   -1    0    0    0  501 -0.00000000000E+00  0.00000000000E+00  0.17358438463E+03  0.17358438463E+03  0.00000000000E+00 0.  1.
          1   -1    0    0  501    0  0.00000000000E+00 -0.00000000000E+00 -0.31096344271E+03  0.31096344271E+03  0.00000000000E+00 0. -1.
         25    2    1    2    0    0  0.61254996731E+02  0.16389005643E+03  0.40589611041E+02  0.21890731461E+03  0.12514300078E+03 0.  0.
          5    1    3    3  502    0  0.45989267119E+02  0.45529036829E+01  0.35983229478E+02  0.58719731145E+02  0.41800000000E+01 0. -1.
         -5    1    3    3    0  502  0.15265729613E+02  0.15933715275E+03  0.46063815632E+01  0.16018758347E+03  0.41800000000E+01 0. -1.
        -11    1    1    2    0    0 -0.70744414640E+01 -0.39527734951E+02  0.20800809728E+01  0.40209654179E+02  0.00000000000E+00 0.  1.
         11    1    1    2    0    0 -0.54180555267E+02 -0.12436232148E+03 -0.18004875009E+03  0.22543085854E+03  0.00000000000E+00 0. -1.
</event>
<event>
 7    1  0.2943257E-009  0.1393673E+03  0.7561462E-02  0.1214183E+00
         -2   -1    0    0    0  501 -0.00000000000E+00  0.00000000000E+00  0.28398709354E+02  0.28398709354E+02  0.00000000000E+00 0.  1.
          2   -1    0    0  501    0  0.00000000000E+00 -0.00000000000E+00 -0.10674751383E+04  0.10674751383E+04  0.00000000000E+00 0. -1.
         25    2    1    2    0    0  0.38413034908E+02 -0.94610484953E+02 -0.82361314254E+03  0.83929348971E+03  0.12509295818E+03 0.  0.
          5    1    3    3  502    0 -0.24695676321E+02  0.26865388608E+01 -0.40978157794E+02  0.48101722799E+02  0.41800000000E+01 0.  1.
         -5    1    3    3    0  502  0.63108711229E+02 -0.97297023814E+02 -0.78263498474E+03  0.79119176691E+03  0.41800000000E+01 0.  1.
        -11    1    1    2    0    0 -0.66915226146E+02  0.83262143486E+02 -0.18314720058E+03  0.21202152982E+03  0.00000000000E+00 0.  1.
         11    1    1    2    0    0  0.28502191238E+02  0.11348341468E+02 -0.32316085778E+02  0.44558828075E+02  0.00000000000E+00 0. -1.
</event>
<event>
 7    1  0.2943257E-009  0.1084197E+03  0.7561462E-02  0.1263525E+00
          2   -1    0    0  501    0  0.00000000000E+00  0.00000000000E+00  0.54428410038E+03  0.54428410038E+03  0.00000000000E+00 0. -1.
         -2   -1    0    0    0  501 -0.00000000000E+00 -0.00000000000E+00 -0.23188937294E+02  0.23188937294E+02  0.00000000000E+00 0.  1.
         25    2    1    2    0    0  0.24619110597E+02 -0.17671986796E+02  0.29558081230E+03  0.32238820406E+03  0.12509091809E+03 0.  0.
          5    1    3    3  502    0  0.69849563218E+02 -0.32443033064E+02  0.14258011050E+03  0.16210512696E+03  0.41800000000E+01 0.  1.
         -5    1    3    3    0  502 -0.45230452621E+02  0.14771046268E+02  0.15300070180E+03  0.16028307710E+03  0.41800000000E+01 0.  1.
        -11    1    1    2    0    0 -0.10573283028E+02  0.52938747158E+02  0.96179809135E+02  0.11029442846E+03  0.00000000000E+00 0.  1.
         11    1    1    2    0    0 -0.14045827569E+02 -0.35266760362E+02  0.12933454165E+03  0.13479040515E+03  0.00000000000E+00 0. -1.
</event>
<event>
 6    1  0.2943257E-009  0.7176098E+02  0.7561462E-02  0.1354205E+00
          3   -1    0    0  501    0  0.00000000000E+00  0.00000000000E+00  0.14077548193E+03  0.14077548193E+03  0.00000000000E+00 0. -1.
         -3   -1    0    0    0  501 -0.00000000000E+00 -0.00000000000E+00 -0.87058302715E+02  0.87058302715E+02  0.00000000000E+00 0.  1.
          5    1    1    2  502    0 -0.17746198202E+02  0.51457612197E+02  0.77619806694E+02  0.94895311764E+02  0.41800000000E+01 0.  1.
         -5    1    1    2    0  502  0.95333494733E+01 -0.31357517108E+02 -0.26224835127E+02  0.42182852070E+02  0.41800000000E+01 0.  1.
        -11    1    1    2    0    0  0.10287024033E+02  0.16384574412E+02 -0.34071591136E+02  0.39180996218E+02  0.00000000000E+00 0.  1.
         11    1    1    2    0    0 -0.20741753039E+01 -0.36484669501E+02  0.36393798779E+02  0.51574624588E+02  0.00000000000E+00 0. -1.
</event>
<event>
 7    1  0.2943257E-009  0.9227536E+02  0.7561462E-02  0.1297433E+00
          2   -1    0    0  501    0  0.00000000000E+00  0.00000000000E+00  0.12707261374E+03  0.12707261374E+03  0.00000000000E+00 0. -1.
         -2   -1    0    0    0  501 -0.00000000000E+00 -0.00000000000E+00 -0.19815938055E+03  0.19815938055E+03  0.00000000000E+00 0.  1.
         25    2    1    2    0    0  0.32426867860E+02  0.46394579638E+02 -0.14173363374E+03  0.19733090146E+03  0.12508838059E+03 0.  0.
          5    1    3    3  502    0  0.64012876656E+02  0.43878332184E+02 -0.14569213531E+03  0.16512609456E+03  0.41800000000E+01 0. -1.
         -5    1    3    3    0  502 -0.31586008796E+02  0.25162474537E+01  0.39585015658E+01  0.32204806901E+02  0.41800000000E+01 0. -1.
        -11    1    1    2    0    0 -0.26936647920E+02  0.11964986540E+01 -0.14192423282E+02  0.30470305033E+02  0.00000000000E+00 0.  1.
         11    1    1    2    0    0 -0.54902199399E+01 -0.47591078292E+02  0.84839290212E+02  0.97430787801E+02  0.00000000000E+00 0. -1.
</event>
<event>
 7    1  0.2943257E-009  0.2076791E+03  0.7561462E-02  0.1143417E+00
          2   -1    0    0  501    0  0.00000000000E+00  0.00000000000E+00  0.67786314073E+02  0.67786314073E+02  0.00000000000E+00 0.  1.
         -2   -1    0    0    0  501 -0.00000000000E+00 -0.00000000000E+00 -0.73201653537E+03  0.73201653537E+03  0.00000000000E+00 0. -1.
         25    2    1    2    0    0  0.15083126133E+03  0.95543234942E+02 -0.20772308105E+03  0.30112523726E+03  0.12509576723E+03 0.  0.
          5    1    3    3  502    0 -0.15342933027E+02  0.34041021437E+02 -0.18574133813E+02  0.41912618401E+02  0.41800000000E+01 0. -1.
         -5    1    3    3    0  502  0.16617419436E+03  0.61502213506E+02 -0.18914894723E+03  0.25921261886E+03  0.41800000000E+01 0. -1.
        -11    1    1    2    0    0 -0.93549763782E+02 -0.53522308941E+01 -0.22305706661E+03  0.24193937184E+03  0.00000000000E+00 0.  1.
         11    1    1    2    0    0 -0.57281497552E+02 -0.90191004048E+02 -0.23345007364E+03  0.25673824034E+03  0.00000000000E+00 0. -1.
</event>
<event>
 7    1  0.2943257E-009  0.1429715E+03  0.7561462E-02  0.1209386E+00
          2   -1    0    0  501    0  0.00000000000E+00  0.00000000000E+00  0.48233833624E+03  0.48233833624E+03  0.00000000000E+00 0. -1.
         -2   -1    0    0    0  501 -0.00000000000E+00 -0.00000000000E+00 -0.57452601632E+02  0.57452601632E+02  0.00000000000E+00 0.  1.
         25    2    1    2    0    0 -0.53737938938E+02  0.57374310467E+02  0.30600089426E+03  0.33979292998E+03  0.12507242059E+03 0.  0.
          5    1    3    3  502    0 -0.80651658063E+02  0.27065459409E+02  0.10750151043E+03  0.13715420586E+03  0.41800000000E+01 0.  1.
         -5    1    3    3    0  502  0.26913719125E+02  0.30308851058E+02  0.19849938383E+03  0.20263872411E+03  0.41800000000E+01 0.  1.
        -11    1    1    2    0    0  0.58972714505E+02 -0.10052845788E+03  0.77398749748E+02  0.13990824980E+03  0.00000000000E+00 0.  1.
         11    1    1    2    0    0 -0.52347755672E+01  0.43154147415E+02  0.41486090603E+02  0.60089758095E+02  0.00000000000E+00 0. -1.
</event>
<event>
 7    1  0.2943257E-009  0.1010140E+03  0.7561462E-02  0.1278178E+00
          1   -1    0    0  501    0  0.00000000000E+00  0.00000000000E+00  0.20439051789E+03  0.20439051789E+03  0.00000000000E+00 0. -1.
         -1   -1    0    0    0  501 -0.00000000000E+00 -0.00000000000E+00 -0.71800670532E+02  0.71800670532E+02  0.00000000000E+00 0.  1.
         25    2    1    2    0    0 -0.45590106702E+02 -0.27892740720E+02  0.39873691380E+02  0.14175228664E+03  0.12508931485E+03 0.  0.
          5    1    3    3  502    0  0.17431809708E+02  0.23761514272E+02 -0.23916469103E+02  0.38183077987E+02  0.41800000000E+01 0. -1.
         -5    1    3    3    0  502 -0.63021916409E+02 -0.51654254993E+02  0.63790160483E+02  0.10356920865E+03  0.41800000000E+01 0. -1.
        -11    1    1    2    0    0 -0.18913374252E+02  0.16642522459E+02  0.62109597985E+01  0.25947356340E+02  0.00000000000E+00 0.  1.
         11    1    1    2    0    0  0.64503480954E+02  0.11250218261E+02  0.86505196184E+02  0.10849154544E+03  0.00000000000E+00 0. -1.
</event>
<event>
 7    1  0.2943257E-009  0.1004241E+03  0.7561462E-02  0.1279407E+00
         -1   -1    0    0    0  501 -0.00000000000E+00  0.00000000000E+00  0.14635388414E+03  0.14635388414E+03  0.00000000000E+00 0.  1.
          1   -1    0    0  501    0  0.00000000000E+00 -0.00000000000E+00 -0.14234729424E+03  0.14234729424E+03  0.00000000000E+00 0. -1.
         25    2    1    2    0    0 -0.75085468462E+02  0.15146836185E+02 -0.53974647082E+02  0.15629325650E+03  0.12508822998E+03 0.  0.
          5    1    3    3  502    0 -0.55989226169E+02 -0.15090655296E+01  0.33315954568E+02  0.65303108307E+02  0.41800000000E+01 0. -1.
         -5    1    3    3    0  502 -0.19096242293E+02  0.16655901715E+02 -0.87290601649E+02  0.90990148192E+02  0.41800000000E+01 0. -1.
        -11    1    1    2    0    0  0.92599984735E+02  0.44639934410E+01  0.46530466745E+02  0.10372930514E+03  0.00000000000E+00 0. -1.
         11    1    1    2    0    0 -0.17514516272E+02 -0.19610829626E+02  0.11450770231E+02  0.28678616734E+02  0.00000000000E+00 0.  1.
</event>
<event>
 7    1  0.2943257E-009  0.1161602E+03  0.7561462E-02  0.1249569E+00
         -1   -1    0    0    0  501 -0.00000000000E+00  0.00000000000E+00  0.45757486943E+03  0.45757486943E+03  0.00000000000E+00 0.  1.
          1   -1    0    0  501    0  0.00000000000E+00 -0.00000000000E+00 -0.45629139199E+02  0.45629139199E+02  0.00000000000E+00 0. -1.
         25    2    1    2    0    0 -0.52926201567E+02 -0.76601243618E+02  0.18568861774E+03  0.24247837916E+03  0.12508624332E+03 0.  0.
          5    1    3    3  502    0  0.13881152716E+02 -0.63960377255E+02  0.29168267699E+02  0.71776573476E+02  0.41800000000E+01 0.  1.
         -5    1    3    3    0  502 -0.66807354282E+02 -0.12640866363E+02  0.15652035004E+03  0.17070180569E+03  0.41800000000E+01 0.  1.
        -11    1    1    2    0    0  0.42933063067E+02  0.33736036978E+02  0.20442960392E+03  0.21159591455E+03  0.00000000000E+00 0.  1.
         11    1    1    2    0    0  0.99931384996E+01  0.42865206641E+02  0.21827508575E+02  0.49129714919E+02  0.00000000000E+00 0. -1.
</event>
<event>
 7    1  0.2943257E-009  0.1007886E+03  0.7561462E-02  0.1278646E+00
          3   -1    0    0  501    0  0.00000000000E+00  0.00000000000E+00  0.39167307826E+03  0.39167307826E+03  0.00000000000E+00 0. -1.
         -3   -1    0    0    0  501 -0.00000000000E+00 -0.00000000000E+00 -0.10044255997E+03  0.10044255997E+03  0.00000000000E+00 0.  1.
         25    2    1    2    0    0 -0.51713179895E+02 -0.16774254627E+02 -0.42797371012E+02  0.14297966361E+03  0.12512370138E+03 0.  0.
          5    1    3    3  502    0  0.40947635959E+02  0.10934016379E+01 -0.60215164303E+01  0.41612924410E+02  0.41800000000E+01 0. -1.
         -5    1    3    3    0  502 -0.92660815854E+02 -0.17867656265E+02 -0.36775854582E+02  0.10136673920E+03  0.41800000000E+01 0. -1.
        -11    1    1    2    0    0 -0.36429722599E+01  0.94194689450E+01 -0.37125127591E+00  0.10106209458E+02  0.00000000000E+00 0.  1.
         11    1    1    2    0    0  0.55356152155E+02  0.73547856821E+01  0.33439914057E+03  0.33902976517E+03  0.00000000000E+00 0. -1.
</event>
<event>
 7    1  0.2943257E-009  0.1172213E+03  0.7561462E-02  0.1247753E+00
          1   -1    0    0  501    0  0.00000000000E+00  0.00000000000E+00  0.31580516591E+03  0.31580516591E+03  0.00000000000E+00 0. -1.
         -1   -1    0    0    0  501 -0.00000000000E+00 -0.00000000000E+00 -0.54734860059E+02  0.54734860059E+02  0.00000000000E+00 0.  1.
         25    2    1    2    0    0  0.25657708669E+02 -0.61609080613E+02  0.10103777806E+03  0.17410029584E+03  0.12509309969E+03 0.  0.
          5    1    3    3  502    0  0.60023392100E+02  0.25400538597E+01  0.76126414990E+02  0.97066796239E+02  0.41800000000E+01 0. -1.
         -5    1    3    3    0  502 -0.34365683431E+02 -0.64149134473E+02  0.24911363069E+02  0.77033499604E+02  0.41800000000E+01 0. -1.
        -11    1    1    2    0    0 -0.70717668990E+01  0.76920737096E+02  0.73524768516E+02  0.10664286787E+03  0.00000000000E+00 0.  1.
         11    1    1    2    0    0 -0.18585941770E+02 -0.15311656484E+02  0.86507759272E+02  0.89796862251E+02  0.00000000000E+00 0. -1.
</event>
<event>
 7    1  0.2943257E-009  0.1447874E+03  0.7561462E-02  0.1207029E+00
         -1   -1    0    0    0  501 -0.00000000000E+00  0.00000000000E+00  0.10335583964E+03  0.10335583964E+03  0.00000000000E+00 0.  1.
          1   -1    0    0  501    0  0.00000000000E+00 -0.00000000000E+00 -0.26607865591E+03  0.26607865591E+03  0.00000000000E+00 0. -1.
         25    2    1    2    0    0  0.10873663913E+03  0.35802086475E+02 -0.29805849423E+02  0.17217058803E+03  0.12509547009E+03 0.  0.
          5    1    3    3  502    0  0.69933812038E+02 -0.39590684388E+02 -0.33568087780E+02  0.87192025287E+02  0.41800000000E+01 0. -1.
         -5    1    3    3    0  502  0.38802827097E+02  0.75392770862E+02  0.37622383564E+01  0.84978562746E+02  0.41800000000E+01 0. -1.
        -11    1    1    2    0    0 -0.89276755726E+02 -0.47879196871E+02 -0.14043285212E+03  0.17315929822E+03  0.00000000000E+00 0. -1.
         11    1    1    2    0    0 -0.19459883409E+02  0.12077110396E+02  0.75158852676E+01  0.24104609293E+02  0.00000000000E+00 0.  1.
</event>
<event>
 7    1  0.2943257E-009  0.2360902E+03  0.7561462E-02  0.1122425E+00
         -3   -1    0    0    0  501 -0.00000000000E+00  0.00000000000E+00  0.48002647310E+03  0.48002647310E+03  0.00000000000E+00 0.  1.
          3   -1    0    0  501    0  0.00000000000E+00 -0.00000000000E+00 -0.14272727548E+03  0.14272727548E+03  0.00000000000E+00 0. -1.
         25    2    1    2    0    0  0.22629409274E+03 -0.15391319018E+02  0.90303231856E+02  0.27431447498E+03  0.12509136016E+03 0.  0.
          5    1    3    3  502    0  0.51508014583E+02  0.32186119411E+02 -0.17664671652E+02  0.63391914891E+02  0.41800000000E+01 0.  1.
         -5    1    3    3    0  502  0.17478607816E+03 -0.47577438429E+02  0.10796790351E+03  0.21092256009E+03  0.41800000000E+01 0.  1.
        -11    1    1    2    0    0 -0.53755440554E+02 -0.12851927084E+02  0.12071941467E+03  0.13277046545E+03  0.00000000000E+00 0. -1.
         11    1    1    2    0    0 -0.17253865219E+03  0.28243246102E+02  0.12627655110E+03  0.21566880815E+03  0.00000000000E+00 0.  1.
</event>
<event>
 7    1  0.2943257E-009  0.1955098E+03  0.7561462E-02  0.1153584E+00
          1   -1    0    0  501    0  0.00000000000E+00  0.00000000000E+00  0.45273621814E+02  0.45273621814E+02  0.00000000000E+00 0. -1.
         -1   -1    0    0    0  501 -0.00000000000E+00 -0.00000000000E+00 -0.11195288639E+04  0.11195288639E+04  0.00000000000E+00 0.  1.
         25    2    1    2    0    0 -0.14160674835E+03 -0.12162067372E+03 -0.71871561110E+03  0.75302382758E+03  0.12509474732E+03 0.  0.
          5    1    3    3  502    0 -0.14630815161E+03 -0.92800078812E+02 -0.69150365633E+03  0.71289039057E+03  0.41800000000E+01 0. -1.
         -5    1    3    3    0  502  0.47014032656E+01 -0.28820594906E+02 -0.27211954775E+02  0.40133437008E+02  0.41800000000E+01 0. -1.
        -11    1    1    2    0    0  0.87434626388E+02  0.59341259034E+02 -0.28229405534E+03  0.30142351035E+03  0.00000000000E+00 0.  1.
         11    1    1    2    0    0  0.54172121958E+02  0.62279414684E+02 -0.73245575662E+02  0.11035514780E+03  0.00000000000E+00 0. -1.
</event>
<event>
 7    1  0.2943257E-009  0.1223248E+03  0.7561462E-02  0.1239310E+00
         -1   -1    0    0    0  501 -0.00000000000E+00  0.00000000000E+00  0.61589695993E+02  0.61589695993E+02  0.00000000000E+00 0. -1.
          1   -1    0    0  501    0  0.00000000000E+00 -0.00000000000E+00 -0.33704826610E+03  0.33704826610E+03  0.00000000000E+00 0.  1.
         25    2    1    2    0    0 -0.41932974258E+01 -0.88119163902E+02 -0.10590329041E+03  0.18612738920E+03  0.12508128277E+03 0.  0.
          5    1    3    3  502    0 -0.46122397702E+02 -0.82656478079E+02 -0.10789610183E+03  0.14359112134E+03  0.41800000000E+01 0. -1.
         -5    1    3    3    0  502  0.41929100276E+02 -0.54626858223E+01  0.19928114126E+01  0.42536267862E+02  0.41800000000E+01 0. -1.
        -11    1    1    2    0    0 -0.12924378178E+02  0.89323675597E+02 -0.17288956259E+03  0.19502963730E+03  0.00000000000E+00 0.  1.
         11    1    1    2    0    0  0.17117675604E+02 -0.12045116954E+01  0.33342828999E+01  0.17480935586E+02  0.00000000000E+00 0. -1.
</event>
<event>
 7    1  0.2943257E-009  0.1150392E+03  0.7561462E-02  0.1251513E+00
          2   -1    0    0  501    0  0.00000000000E+00  0.00000000000E+00  0.41952937257E+03  0.41952937257E+03  0.00000000000E+00 0. -1.
         -2   -1    0    0    0  501 -0.00000000000E+00 -0.00000000000E+00 -0.43304767864E+02  0.43304767864E+02  0.00000000000E+00 0.  1.
         25    2    1    2    0    0  0.53547568069E+02  0.56320943088E+02  0.22121904105E+03  0.26575518598E+03  0.12509422079E+03 0.  0.
          5    1    3    3  502    0  0.17183493556E+02  0.92552392319E+02  0.16069748692E+03  0.18628572806E+03  0.41800000000E+01 0.  1.
         -5    1    3    3    0  502  0.36364074513E+02 -0.36231449231E+02  0.60521554131E+02  0.79469457926E+02  0.41800000000E+01 0.  1.
        -11    1    1    2    0    0 -0.19999212120E+02 -0.44485043136E+02  0.12708495029E+02  0.50402315365E+02  0.00000000000E+00 0.  1.
         11    1    1    2    0    0 -0.33548355949E+02 -0.11835899951E+02  0.14229706863E+03  0.14667663909E+03  0.00000000000E+00 0. -1.
</event>
<event>
 7    1  0.2943257E-009  0.1061689E+03  0.7561462E-02  0.1267834E+00
         -1   -1    0    0    0  501 -0.00000000000E+00  0.00000000000E+00  0.95998718444E+02  0.95998718444E+02  0.00000000000E+00 0.  1.
          1   -1    0    0  501    0  0.00000000000E+00 -0.00000000000E+00 -0.17793323027E+03  0.17793323027E+03  0.00000000000E+00 0. -1.
         25    2    1    2    0    0  0.12057876608E+02  0.73388563414E+02 -0.51393235104E+02  0.15432751287E+03  0.12507774776E+03 0.  0.
          5    1    3    3  502    0  0.33839493974E+02  0.95223709597E+02 -0.87329442347E+01  0.10152045576E+03  0.41800000000E+01 0.  1.
         -5    1    3    3    0  502 -0.21781617366E+02 -0.21835146183E+02 -0.42660290869E+02  0.52807057113E+02  0.41800000000E+01 0.  1.
        -11    1    1    2    0    0  0.95796482247E+01 -0.14967224636E+02  0.28621192278E+02  0.33689169192E+02  0.00000000000E+00 0.  1.
         11    1    1    2    0    0 -0.21637524833E+02 -0.58421338779E+02 -0.59162469000E+02  0.85915266651E+02  0.00000000000E+00 0. -1.
</event>
<event>
 7    1  0.2943257E-009  0.1098884E+03  0.7561462E-02  0.1260777E+00
         -1   -1    0    0    0  501 -0.00000000000E+00  0.00000000000E+00  0.51223946132E+02  0.51223946132E+02  0.00000000000E+00 0.  1.
          1   -1    0    0  501    0  0.00000000000E+00 -0.00000000000E+00 -0.26937626940E+03  0.26937626940E+03  0.00000000000E+00 0. -1.
         25    2    1    2    0    0  0.31239816382E+02  0.29232785245E+02 -0.99236784778E+02  0.16530680025E+03  0.12509163399E+03 0.  0.
          5    1    3    3  502    0  0.56939625774E+02  0.60778512453E+02 -0.37935190490E+02  0.91611678496E+02  0.41800000000E+01 0.  1.
         -5    1    3    3    0  502 -0.25699809392E+02 -0.31545727208E+02 -0.61301594288E+02  0.73695121752E+02  0.41800000000E+01 0.  1.
        -11    1    1    2    0    0 -0.71199658168E+01  0.30366569898E+02 -0.62097747701E+02  0.69490666641E+02  0.00000000000E+00 0. -1.
         11    1    1    2    0    0 -0.24119850565E+02 -0.59599355143E+02 -0.56817790793E+02  0.85802748647E+02  0.00000000000E+00 0.  1.
</event>
<event>
 7    1  0.2943257E-009  0.1224929E+03  0.7561462E-02  0.1239040E+00
         -2   -1    0    0    0  501 -0.00000000000E+00  0.00000000000E+00  0.21835804586E+03  0.21835804586E+03  0.00000000000E+00 0.  1.
          2   -1    0    0  501    0  0.00000000000E+00 -0.00000000000E+00 -0.78029687513E+02  0.78029687513E+02  0.00000000000E+00 0. -1.
         25    2    1    2    0    0 -0.68978253882E+02 -0.15455403022E+02  0.66493121830E+02  0.15832321893E+03  0.12509211571E+03 0.  0.
          5    1    3    3  502    0 -0.25939898737E+02 -0.67390776476E+02  0.16308194441E+02  0.74147317595E+02  0.41800000000E+01 0.  1.
         -5    1    3    3    0  502 -0.43038355145E+02  0.51935373454E+02  0.50184927389E+02  0.84175901340E+02  0.41800000000E+01 0.  1.
        -11    1    1    2    0    0  0.17701347626E+02  0.43261759122E+02  0.63461750860E+02  0.78818217008E+02  0.00000000000E+00 0. -1.
         11    1    1    2    0    0  0.51276906256E+02 -0.27806356100E+02  0.10373485659E+02  0.59246297432E+02  0.00000000000E+00 0.  1.
</event>
<event>
 7    1  0.2943257E-009  0.1485503E+03  0.7561462E-02  0.1202266E+00
         -3   -1    0    0    0  501 -0.00000000000E+00  0.00000000000E+00  0.18862300584E+02  0.18862300584E+02  0.00000000000E+00 0.  1.
          3   -1    0    0  501    0  0.00000000000E+00 -0.00000000000E+00 -0.15343012491E+04  0.15343012491E+04  0.00000000000E+00 0. -1.
         25    2    1    2    0    0  0.77958751051E+02 -0.79169120742E+02 -0.11323795178E+04  0.11446731754E+04  0.12509192422E+03 0.  0.
          5    1    3    3  502    0 -0.17126198047E+02 -0.67636206858E+02 -0.55570610002E+03  0.56008455178E+03  0.41800000000E+01 0.  1.
         -5    1    3    3    0  502  0.95084949099E+02 -0.11532913884E+02 -0.57667341780E+03  0.58458862360E+03  0.41800000000E+01 0.  1.
        -11    1    1    2    0    0 -0.90076989197E+02  0.58607669696E+02 -0.35843247068E+03  0.37419588315E+03  0.00000000000E+00 0. -1.
         11    1    1    2    0    0  0.12118238146E+02  0.20561451046E+02 -0.24626960062E+02  0.34294491201E+02  0.00000000000E+00 0.  1.
</event>
<event>
 7    1  0.2943257E-009  0.2692388E+03  0.7561462E-02  0.1101716E+00
          1   -1    0    0  501    0  0.00000000000E+00  0.00000000000E+00  0.33114495626E+03  0.33114495626E+03  0.00000000000E+00 0. -1.
         -1   -1    0    0    0  501 -0.00000000000E+00 -0.00000000000E+00 -0.23271371145E+03  0.23271371145E+03  0.00000000000E+00 0.  1.
         25    2    1    2    0    0 -0.20876848997E+02 -0.25405736476E+03  0.56265459622E+02  0.28947317090E+03  0.12509167563E+03 0.  0.
          5    1    3    3  502    0 -0.70277760033E+02 -0.18891003334E+03  0.32317611503E+02  0.20417606291E+03  0.41800000000E+01 0. -1.
         -5    1    3    3    0  502  0.49400911036E+02 -0.65147331419E+02  0.23947848119E+02  0.85297107991E+02  0.41800000000E+01 0. -1.
        -11    1    1    2    0    0  0.65816293319E+01  0.12263042766E+03  0.66964307183E+02  0.13987765393E+03  0.00000000000E+00 0. -1.
         11    1    1    2    0    0  0.14295219665E+02  0.13142693710E+03 -0.24798521994E+02  0.13450784287E+03  0.00000000000E+00 0.  1.
</event>
<event>
 7    1  0.2943257E-009  0.1344921E+03  0.7561462E-02  0.1220938E+00
          2   -1    0    0  501    0  0.00000000000E+00  0.00000000000E+00  0.88935852793E+03  0.88935852793E+03  0.00000000000E+00 0. -1.
         -2   -1    0    0    0  501 -0.00000000000E+00 -0.00000000000E+00 -0.21966757291E+02  0.21966757291E+02  0.00000000000E+00 0.  1.
         25    2    1    2    0    0 -0.49774188448E+02 -0.70990987061E+02  0.53532400017E+03  0.55653974440E+03  0.12509001504E+03 0.  0.
          5    1    3    3  502    0 -0.85169970132E+02 -0.71199323462E+02  0.33137796122E+03  0.34950263669E+03  0.41800000000E+01 0.  1.
         -5    1    3    3    0  502  0.35395781684E+02  0.20833640017E+00  0.20394603895E+03  0.20703710771E+03  0.41800000000E+01 0.  1.
        -11    1    1    2    0    0 -0.11768530870E+02  0.58222143234E+02  0.19795425804E+03  0.20667415068E+03  0.00000000000E+00 0. -1.
         11    1    1    2    0    0  0.61542719318E+02  0.12768843827E+02  0.13411351243E+03  0.14811139014E+03  0.00000000000E+00 0.  1.
</event>
<event>
 7    1  0.2943257E-009  0.2179786E+03  0.7561462E-02  0.1135399E+00
         -1   -1    0    0    0  501 -0.00000000000E+00  0.00000000000E+00  0.34501847541E+03  0.34501847541E+03  0.00000000000E+00 0.  1.
          1   -1    0    0  501    0  0.00000000000E+00 -0.00000000000E+00 -0.16836841920E+03  0.16836841920E+03  0.00000000000E+00 0. -1.
         25    2    1    2    0    0  0.19484491981E+03 -0.42700233343E+02  0.57372090267E+01  0.23552032881E+03  0.12509619104E+03 0.  0.
          5    1    3    3  502    0  0.14047214149E+02 -0.32725170699E+02 -0.34746138009E+02  0.49930226609E+02  0.41800000000E+01 0.  1.
         -5    1    3    3    0  502  0.18079770567E+03 -0.99750626439E+01  0.40483347036E+02  0.18559010220E+03  0.41800000000E+01 0.  1.
        -11    1    1    2    0    0 -0.73882375305E+02  0.62045730312E+02  0.71006335414E+02  0.11979222721E+03  0.00000000000E+00 0.  1.
         11    1    1    2    0    0 -0.12096254451E+03 -0.19345496969E+02  0.99906511762E+02  0.15807433859E+03  0.00000000000E+00 0. -1.
</event>
<event>
 7    1  0.2943257E-009  0.1559853E+03  0.7561462E-02  0.1193305E+00
          3   -1    0    0  501    0  0.00000000000E+00  0.00000000000E+00  0.74514337668E+02  0.74514337668E+02  0.00000000000E+00 0. -1.
         -3   -1    0    0    0  501 -0.00000000000E+00 -0.00000000000E+00 -0.35533068361E+03  0.35533068361E+03  0.00000000000E+00 0.  1.
         25    2    1    2    0    0  0.10682097903E+03 -0.53756845420E+02 -0.12180495180E+03  0.21162324395E+03  0.12508969224E+03 0.  0.
          5    1    3    3  502    0 -0.91899150889E+00  0.28794101943E+02 -0.50392701214E+02  0.58196577113E+02  0.41800000000E+01 0.  1.
         -5    1    3    3    0  502  0.10773997054E+03 -0.82550947363E+02 -0.71412250586E+02  0.15342666683E+03  0.41800000000E+01 0.  1.
        -11    1    1    2    0    0 -0.65943863001E+02  0.75925333698E+02 -0.89700467323E+02  0.13475690410E+03  0.00000000000E+00 0. -1.
         11    1    1    2    0    0 -0.40877116026E+02 -0.22168488278E+02 -0.69310926823E+02  0.83464873235E+02  0.00000000000E+00 0.  1.
</event>
<event>
 7    1  0.2943257E-009  0.1306292E+03  0.7561462E-02  0.1226525E+00
         -1   -1    0    0    0  501 -0.00000000000E+00  0.00000000000E+00  0.19574716272E+02  0.19574716272E+02  0.00000000000E+00 0.  1.
          1   -1    0    0  501    0  0.00000000000E+00 -0.00000000000E+00 -0.10899784231E+04  0.10899784231E+04  0.00000000000E+00 0. -1.
         25    2    1    2    0    0 -0.94075240192E+02 -0.24265736912E+02 -0.59994940600E+03  0.62050470068E+03  0.12509123471E+03 0.  0.
          5    1    3    3  502    0 -0.11953540634E+03 -0.38896347140E+02 -0.52601232928E+03  0.54084016321E+03  0.41800000000E+01 0.  1.
         -5    1    3    3    0  502  0.25460166150E+02  0.14630610228E+02 -0.73937076724E+02  0.79664537471E+02  0.41800000000E+01 0.  1.
        -11    1    1    2    0    0  0.81306335022E+02  0.35592082670E+02 -0.46114058289E+03  0.46960425216E+03  0.00000000000E+00 0. -1.
         11    1    1    2    0    0  0.12768905169E+02 -0.11326345758E+02 -0.93137179188E+01  0.19444186507E+02  0.00000000000E+00 0.  1.
</event>
<event>
 7    1  0.2943257E-009  0.9382516E+02  0.7561462E-02  0.1293844E+00
          1   -1    0    0  501    0  0.00000000000E+00  0.00000000000E+00  0.31992897358E+03  0.31992897358E+03  0.00000000000E+00 0. -1.
         -1   -1    0    0    0  501 -0.00000000000E+00 -0.00000000000E+00 -0.56879059420E+02  0.56879059420E+02  0.00000000000E+00 0.  1.
         25    2    1    2    0    0 -0.37646740506E+02  0.16844751655E+02  0.23919500751E+03  0.27306242517E+03  0.12509122149E+03 0.  0.
          5    1    3    3  502    0 -0.15806646702E+02  0.69903013091E+02  0.10654020669E+03  0.12847011077E+03  0.41800000000E+01 0. -1.
         -5    1    3    3    0  502 -0.21840093803E+02 -0.53058261437E+02  0.13265480082E+03  0.14459231440E+03  0.41800000000E+01 0. -1.
        -11    1    1    2    0    0  0.13945124342E+02 -0.28641610843E+02 -0.29985084161E+02  0.43748298672E+02  0.00000000000E+00 0.  1.
         11    1    1    2    0    0  0.23701616163E+02  0.11796859188E+02  0.53839990811E+02  0.59997309157E+02  0.00000000000E+00 0. -1.
</event>
<event>
 7    1  0.2943257E-009  0.1157842E+03  0.7561462E-02  0.1250218E+00
         -2   -1    0    0    0  501 -0.00000000000E+00  0.00000000000E+00  0.87546148993E+02  0.87546148993E+02  0.00000000000E+00 0.  1.
          2   -1    0    0  501    0  0.00000000000E+00 -0.00000000000E+00 -0.20825743996E+03  0.20825743996E+03  0.00000000000E+00 0. -1.
         25    2    1    2    0    0 -0.63273140467E+02  0.57970298336E+02 -0.64394579520E+02  0.16480150450E+03  0.12509527657E+03 0.  0.
          5    1    3    3  502    0  0.33414304216E+02  0.29638944126E+02 -0.42111997600E+02  0.61529468363E+02  0.41800000000E+01 0.  1.
         -5    1    3    3    0  502 -0.96687444683E+02  0.28331354210E+02 -0.22282581920E+02  0.10327203614E+03  0.41800000000E+01 0.  1.
        -11    1    1    2    0    0  0.14344912740E+02 -0.11441740456E+02  0.21308960977E+02  0.28120486555E+02  0.00000000000E+00 0. -1.
         11    1    1    2    0    0  0.48928227727E+02 -0.46528557881E+02 -0.77625672420E+02  0.10288159790E+03  0.00000000000E+00 0.  1.
</event>
<event>
 7    1  0.2943257E-009  0.1089223E+03  0.7561462E-02  0.1262579E+00
          4   -1    0    0  501    0  0.00000000000E+00  0.00000000000E+00  0.45379554901E+02  0.45379554901E+02  0.00000000000E+00 0. -1.
         -4   -1    0    0    0  501 -0.00000000000E+00 -0.00000000000E+00 -0.29555718212E+03  0.29555718212E+03  0.00000000000E+00 0.  1.
         25    2    1    2    0    0 -0.27929636248E+02 -0.98313024474E+01 -0.10386647356E+03  0.16524670089E+03  0.12506601751E+03 0.  0.
          5    1    3    3  502    0  0.48824966901E+02 -0.13625070517E+02 -0.49869813052E+02  0.71231949246E+02  0.41800000000E+01 0.  1.
         -5    1    3    3    0  502 -0.76754603149E+02  0.37937680701E+01 -0.53996660511E+02  0.94014751646E+02  0.41800000000E+01 0.  1.
        -11    1    1    2    0    0 -0.28671006432E+02  0.16415633268E+02 -0.88726475379E+02  0.94677806579E+02  0.00000000000E+00 0.  1.
         11    1    1    2    0    0  0.56600642680E+02 -0.65843308210E+01 -0.57584678273E+02  0.81012229545E+02  0.00000000000E+00 0. -1.
</event>
<event>
 7    1  0.2943257E-009  0.9979480E+02  0.7561462E-02  0.1280728E+00
         -1   -1    0    0    0  501 -0.00000000000E+00  0.00000000000E+00  0.22834981725E+02  0.22834981725E+02  0.00000000000E+00 0.  1.
          1   -1    0    0  501    0  0.00000000000E+00 -0.00000000000E+00 -0.55853982747E+03  0.55853982747E+03  0.00000000000E+00 0. -1.
         25    2    1    2    0    0 -0.16284256560E+02 -0.27799112257E+02 -0.30657376785E+03  0.33267590304E+03  0.12509122142E+03 0.  0.
          5    1    3    3  502    0  0.36143073639E+02 -0.48173515218E+02 -0.22862685389E+03  0.23646293591E+03  0.41800000000E+01 0. -1.
         -5    1    3    3    0  502 -0.52427330200E+02  0.20374402961E+02 -0.77946913964E+02  0.96212967133E+02  0.41800000000E+01 0. -1.
        -11    1    1    2    0    0  0.23764854100E+02 -0.22045116868E+02 -0.33245976431E+02  0.46433289965E+02  0.00000000000E+00 0.  1.
         11    1    1    2    0    0 -0.74805975394E+01  0.49844229125E+02 -0.19588510147E+03  0.20226561619E+03  0.00000000000E+00 0. -1.
</event>
<event>
 7    1  0.2943257E-009  0.1317345E+03  0.7561462E-02  0.1224905E+00
          1   -1    0    0  501    0  0.00000000000E+00  0.00000000000E+00  0.13129530213E+04  0.13129530213E+04  0.00000000000E+00 0. -1.
         -1   -1    0    0    0  501 -0.00000000000E+00 -0.00000000000E+00 -0.13752978859E+02  0.13752978859E+02  0.00000000000E+00 0.  1.
         25    2    1    2    0    0  0.73996662606E+02  0.22834595245E+02  0.68064111100E+03  0.69635931802E+03  0.12508818091E+03 0.  0.
          5    1    3    3  502    0 -0.31312301669E+02 -0.76152790454E+01  0.24371297022E+03  0.24586975609E+03  0.41800000000E+01 0.  1.
         -5    1    3    3    0  502  0.10530896427E+03  0.30449874290E+02  0.43692814078E+03  0.45048956193E+03  0.41800000000E+01 0.  1.
        -11    1    1    2    0    0 -0.92589515095E+02 -0.35075687927E+02  0.51261620969E+03  0.52209050999E+03  0.00000000000E+00 0.  1.
         11    1    1    2    0    0  0.18592852489E+02  0.12241092682E+02  0.10594272176E+03  0.10825617215E+03  0.00000000000E+00 0. -1.
</event>
<event>
 7    1  0.2943257E-009  0.1344250E+03  0.7561462E-02  0.1221034E+00
          2   -1    0    0  501    0  0.00000000000E+00  0.00000000000E+00  0.46611290104E+03  0.46611290104E+03  0.00000000000E+00 0. -1.
         -2   -1    0    0    0  501 -0.00000000000E+00 -0.00000000000E+00 -0.45520178452E+02  0.45520178452E+02  0.00000000000E+00 0.  1.
         25    2    1    2    0    0 -0.40820092980E+02  0.79824119885E+02  0.15943070140E+03  0.22159429034E+03  0.12509081044E+03 0.  0.
          5    1    3    3  502    0  0.12629062334E+02  0.89978102353E+02  0.62497436016E+02  0.11035829841E+03  0.41800000000E+01 0. -1.
         -5    1    3    3    0  502 -0.53449155314E+02 -0.10153982468E+02  0.96933265383E+02  0.11123599193E+03  0.41800000000E+01 0. -1.
        -11    1    1    2    0    0 -0.80051512196E+01 -0.73685060050E+02  0.18574598550E+03  0.19998785375E+03  0.00000000000E+00 0. -1.
         11    1    1    2    0    0  0.48825244199E+02 -0.61390598349E+01  0.75416035693E+02  0.90050935400E+02  0.00000000000E+00 0.  1.
</event>
<event>
 7    1  0.2943257E-009  0.1900771E+03  0.7561462E-02  0.1158392E+00
          1   -1    0    0  501    0  0.00000000000E+00  0.00000000000E+00  0.48963061441E+03  0.48963061441E+03  0.00000000000E+00 0. -1.
         -1   -1    0    0    0  501 -0.00000000000E+00 -0.00000000000E+00 -0.85966993609E+02  0.85966993609E+02  0.00000000000E+00 0.  1.
         25    2    1    2    0    0 -0.72688546192E+02  0.15667028650E+03  0.18575771785E+03  0.28281350938E+03  0.12509335683E+03 0.  0.
          5    1    3    3  502    0 -0.37361823498E+02  0.14069181023E+03  0.71796573200E+02  0.16236474878E+03  0.41800000000E+01 0.  1.
         -5    1    3    3    0  502 -0.35326722693E+02  0.15978476271E+02  0.11396114465E+03  0.12044876060E+03  0.41800000000E+01 0.  1.
        -11    1    1    2    0    0  0.86158422126E+02 -0.15993797390E+03  0.20135625544E+03  0.27119692255E+03  0.00000000000E+00 0.  1.
         11    1    1    2    0    0 -0.13469875934E+02  0.32676873994E+01  0.16549647515E+02  0.21587176089E+02  0.00000000000E+00 0. -1.
</event>
<event>
 7    1  0.2943257E-009  0.6576463E+02  0.7561462E-02  0.1375118E+00
          4   -1    0    0  501    0  0.00000000000E+00  0.00000000000E+00  0.15754444046E+03  0.15754444046E+03  0.00000000000E+00 0. -1.
         -4   -1    0    0    0  501 -0.00000000000E+00 -0.00000000000E+00 -0.74945644180E+02  0.74945644180E+02  0.00000000000E+00 0.  1.
         25    2    1    2    0    0  0.71151158498E+01 -0.10006704774E+02  0.33399301230E+02  0.13005087522E+03  0.12508780040E+03 0.  0.
          5    1    3    3  502    0  0.23262401622E+02 -0.37785987192E+01 -0.44292032958E+02  0.50345543209E+02  0.41800000000E+01 0. -1.
         -5    1    3    3    0  502 -0.16147285772E+02 -0.62281060548E+01  0.77691334189E+02  0.79705332010E+02  0.41800000000E+01 0. -1.
        -11    1    1    2    0    0  0.37787295040E+02 -0.12184354517E+02  0.19880641719E+02  0.44402455750E+02  0.00000000000E+00 0. -1.
         11    1    1    2    0    0 -0.44902410890E+02  0.22191059291E+02  0.29318853333E+02  0.58036753673E+02  0.00000000000E+00 0.  1.
</event>
<event>
 7    1  0.2943257E-009  0.1545311E+03  0.7561462E-02  0.1195013E+00
          2   -1    0    0  501    0  0.00000000000E+00  0.00000000000E+00  0.17502970202E+04  0.17502970202E+04  0.00000000000E+00 0. -1.
         -2   -1    0    0    0  501 -0.00000000000E+00 -0.00000000000E+00 -0.18233510812E+02  0.18233510812E+02  0.00000000000E+00 0.  1.
         25    2    1    2    0    0  0.14037271472E+03 -0.31632495060E+02  0.93229766871E+03  0.95159094072E+03  0.12506502949E+03 0.  0.
          5    1    3    3  502    0  0.92200211998E+02 -0.21849666362E+02  0.85260528945E+03  0.85786452253E+03  0.41800000000E+01 0.  1.
         -5    1    3    3    0  502  0.48172502717E+02 -0.97828286986E+01  0.79692379256E+02  0.93726418190E+02  0.41800000000E+01 0.  1.
        -11    1    1    2    0    0 -0.12511816882E+03  0.55244738086E+02  0.70262032405E+03  0.71580853377E+03  0.00000000000E+00 0. -1.
         11    1    1    2    0    0 -0.15254545897E+02 -0.23612243026E+02  0.97145516597E+02  0.10113105649E+03  0.00000000000E+00 0.  1.
</event>
<event>
 7    1  0.2943257E-009  0.1206861E+03  0.7561462E-02  0.1241970E+00
          1   -1    0    0  501    0  0.00000000000E+00  0.00000000000E+00  0.93007156274E+03  0.93007156274E+03  0.00000000000E+00 0. -1.
         -1   -1    0    0    0  501 -0.00000000000E+00 -0.00000000000E+00 -0.28026909076E+02  0.28026909076E+02  0.00000000000E+00 0.  1.
         25    2    1    2    0    0 -0.10686189679E+03 -0.34888776143E+01  0.65659985813E+03  0.67690645585E+03  0.12508932421E+03 0.  0.
          5    1    3    3  502    0 -0.39210091221E+02 -0.10972683146E+02  0.42400449569E+02  0.58933025993E+02  0.41800000000E+01 0.  1.
         -5    1    3    3    0  502 -0.67651805571E+02  0.74838055322E+01  0.61419940856E+03  0.61797342986E+03  0.41800000000E+01 0.  1.
        -11    1    1    2    0    0  0.11908843923E+03  0.76496121203E+01  0.19082533529E+03  0.22506639357E+03  0.00000000000E+00 0. -1.
         11    1    1    2    0    0 -0.12226542441E+02 -0.41607345059E+01  0.54619460244E+02  0.56125622393E+02  0.00000000000E+00 0.  1.
</event>
<event>
 7    1  0.2943257E-009  0.9517704E+02  0.7561462E-02  0.1290778E+00
         -2   -1    0    0    0  501 -0.00000000000E+00  0.00000000000E+00  0.12352661458E+03  0.12352661458E+03  0.00000000000E+00 0. -1.
          2   -1    0    0  501    0  0.00000000000E+00 -0.00000000000E+00 -0.10301906538E+03  0.10301906538E+03  0.00000000000E+00 0.  1.
         25    2    1    2    0    0 -0.61690447230E+01  0.20358916872E+02  0.30383716831E+02  0.13048504159E+03  0.12510249086E+03 0.  0.
          5    1    3    3  502    0  0.41326822844E+02  0.40142636678E+02 -0.17207469304E+02  0.60273600902E+02  0.41800000000E+01 0.  1.
         -5    1    3    3    0  502 -0.47495867567E+02 -0.19783719807E+02  0.47591186135E+02  0.70211440685E+02  0.41800000000E+01 0.  1.
        -11    1    1    2    0    0 -0.17079511561E+02  0.24837199819E+02  0.20866938074E+02  0.36660950814E+02  0.00000000000E+00 0. -1.
         11    1    1    2    0    0  0.23248556284E+02 -0.45196116690E+02 -0.30743105714E+02  0.59399687559E+02  0.00000000000E+00 0.  1.
</event>
<event>
 7    1  0.2943257E-009  0.1190003E+03  0.7561462E-02  0.1244755E+00
          1   -1    0    0  501    0  0.00000000000E+00  0.00000000000E+00  0.39208207694E+03  0.39208207694E+03  0.00000000000E+00 0. -1.
         -1   -1    0    0    0  501 -0.00000000000E+00 -0.00000000000E+00 -0.48140909867E+02  0.48140909867E+02  0.00000000000E+00 0.  1.
         25    2    1    2    0    0  0.39760905114E+02  0.21209235759E+02  0.78466372769E+02  0.15438483851E+03  0.12508775099E+03 0.  0.
          5    1    3    3  502    0  0.71930340648E+02  0.51485420639E+02  0.53763106139E+02  0.10359858313E+03  0.41800000000E+01 0. -1.
         -5    1    3    3    0  502 -0.32169435534E+02 -0.30276184880E+02  0.24703266630E+02  0.50786255382E+02  0.41800000000E+01 0. -1.
        -11    1    1    2    0    0 -0.32477588482E+02 -0.58588969027E+02  0.15091956311E+03  0.16511867119E+03  0.00000000000E+00 0.  1.
         11    1    1    2    0    0 -0.72833166312E+01  0.37379733268E+02  0.11455523120E+03  0.12071947712E+03  0.00000000000E+00 0. -1.
</event>
<event>
 7    1  0.2943257E-009  0.1415882E+03  0.7561462E-02  0.1211208E+00
         -2   -1    0    0    0  501 -0.00000000000E+00  0.00000000000E+00  0.58623881395E+02  0.58623881395E+02  0.00000000000E+00 0.  1.
          2   -1    0    0  501    0  0.00000000000E+00 -0.00000000000E+00 -0.65414912421E+03  0.65414912421E+03  0.00000000000E+00 0. -1.
         25    2    1    2    0    0  0.95468292709E+02  0.55848803487E+02 -0.94688765680E+02  0.19195559730E+03  0.12509078794E+03 0.  0.
          5    1    3    3  502    0 -0.10478617997E+02  0.35666125501E+02  0.12889115522E+02  0.39566092078E+02  0.41800000000E+01 0.  1.
         -5    1    3    3    0  502  0.10594691071E+03  0.20182677985E+02 -0.10757788120E+03  0.15238950522E+03  0.41800000000E+01 0.  1.
        -11    1    1    2    0    0 -0.79724260714E+02  0.88875444170E-01 -0.21919164513E+03  0.23324009720E+03  0.00000000000E+00 0.  1.
         11    1    1    2    0    0 -0.15744031995E+02 -0.55937678931E+02 -0.28164483201E+03  0.28757731111E+03  0.00000000000E+00 0. -1.
</event>
<event>
 7    1  0.2943257E-009  0.2024757E+03  0.7561462E-02  0.1147667E+00
         -2   -1    0    0    0  501 -0.00000000000E+00  0.00000000000E+00  0.57342202215E+03  0.57342202215E+03  0.00000000000E+00 0.  1.
          2   -1    0    0  501    0  0.00000000000E+00 -0.00000000000E+00 -0.92314909206E+02  0.92314909206E+02  0.00000000000E+00 0. -1.
         25    2    1    2    0    0 -0.12297129498E+03 -0.15017265390E+03  0.16315483240E+03  0.28273778733E+03  0.12508953466E+03 0.  0.
          5    1    3    3  502    0 -0.44030019957E+02 -0.11140581243E+03  0.30774425203E+02  0.12375150645E+03  0.41800000000E+01 0. -1.
         -5    1    3    3    0  502 -0.78941275024E+02 -0.38766841464E+02  0.13238040720E+03  0.15898628088E+03  0.41800000000E+01 0. -1.
        -11    1    1    2    0    0  0.36862445017E+02  0.22967425386E+02  0.14648704098E+03  0.15279003782E+03  0.00000000000E+00 0.  1.
         11    1    1    2    0    0  0.86108849964E+02  0.12720522851E+03  0.17146523957E+03  0.23020910621E+03  0.00000000000E+00 0. -1.
</event>
<event>
 7    1  0.2943257E-009  0.3104542E+03  0.7561462E-02  0.1080128E+00
          2   -1    0    0  501    0  0.00000000000E+00  0.00000000000E+00  0.46109222810E+03  0.46109222810E+03  0.00000000000E+00 0. -1.
         -2   -1    0    0    0  501 -0.00000000000E+00 -0.00000000000E+00 -0.27780236993E+03  0.27780236993E+03  0.00000000000E+00 0.  1.
         25    2    1    2    0    0  0.26579347626E+03  0.12881102234E+03  0.26876971218E+03  0.41847650537E+03  0.12508787256E+03 0.  0.
          5    1    3    3  502    0  0.92931596223E+02  0.10306988491E+03  0.76149442382E+02  0.15835369502E+03  0.41800000000E+01 0. -1.
         -5    1    3    3    0  502  0.17286188004E+03  0.25741137430E+02  0.19262026980E+03  0.26012281035E+03  0.41800000000E+01 0. -1.
        -11    1    1    2    0    0 -0.13908539661E+03 -0.20562831027E+02 -0.55164191209E+02  0.15103200178E+03  0.00000000000E+00 0.  1.
         11    1    1    2    0    0 -0.12670807965E+03 -0.10824819131E+03 -0.30315662797E+02  0.16938609088E+03  0.00000000000E+00 0. -1.
</event>
<event>
 7    1  0.2943257E-009  0.1079450E+03  0.7561462E-02  0.1264424E+00
          1   -1    0    0  501    0  0.00000000000E+00  0.00000000000E+00  0.83188350164E+02  0.83188350164E+02  0.00000000000E+00 0. -1.
         -1   -1    0    0    0  501 -0.00000000000E+00 -0.00000000000E+00 -0.17344341454E+03  0.17344341454E+03  0.00000000000E+00 0.  1.
         25    2    1    2    0    0  0.41066889709E+02 -0.14467781156E+02 -0.72968909001E+02  0.15122372908E+03  0.12509335887E+03 0.  0.
          5    1    3    3  502    0 -0.17822332691E+02 -0.51569688056E+02 -0.58320510449E+02  0.79973887037E+02  0.41800000000E+01 0. -1.
         -5    1    3    3    0  502  0.58889222399E+02  0.37101906900E+02 -0.14648398552E+02  0.71249842039E+02  0.41800000000E+01 0. -1.
        -11    1    1    2    0    0 -0.18815725817E+02 -0.33578613895E+02 -0.32435120357E+02  0.50334797920E+02  0.00000000000E+00 0.  1.
         11    1    1    2    0    0 -0.22251163892E+02  0.48046395051E+02  0.15148964980E+02  0.55073237710E+02  0.00000000000E+00 0. -1.
</event>
<event>
 7    1  0.2943257E-009  0.1912966E+03  0.7561462E-02  0.1157297E+00
         -3   -1    0    0    0  501 -0.00000000000E+00  0.00000000000E+00  0.52868849297E+03  0.52868849297E+03  0.00000000000E+00 0.  1.
          3   -1    0    0  501    0  0.00000000000E+00 -0.00000000000E+00 -0.11617740226E+03  0.11617740226E+03  0.00000000000E+00 0. -1.
         25    2    1    2    0    0 -0.16967124304E+03 -0.43047920425E+02  0.39052813337E+03  0.44587489418E+03  0.12510293418E+03 0.  0.
          5    1    3    3  502    0 -0.96092679917E+02 -0.79893575724E+02  0.29060047898E+03  0.31635881110E+03  0.41800000000E+01 0.  1.
         -5    1    3    3    0  502 -0.73578563127E+02  0.36845655298E+02  0.99927654384E+02  0.12951608308E+03  0.41800000000E+01 0.  1.
        -11    1    1    2    0    0  0.11858544915E+03  0.33072628465E+02  0.57601569224E+02  0.13592000692E+03  0.00000000000E+00 0.  1.
         11    1    1    2    0    0  0.51085793895E+02  0.99752919607E+01 -0.35618611883E+02  0.63070994126E+02  0.00000000000E+00 0. -1.
</event>
<event>
 7    1  0.2943257E-009  0.2223119E+03  0.7561462E-02  0.1132171E+00
          2   -1    0    0  501    0  0.00000000000E+00  0.00000000000E+00  0.12622880238E+04  0.12622880238E+04  0.00000000000E+00 0. -1.
         -2   -1    0    0    0  501 -0.00000000000E+00 -0.00000000000E+00 -0.42500501303E+02  0.42500501303E+02  0.00000000000E+00 0.  1.
         25    2    1    2    0    0 -0.20180209768E+03  0.21922769441E+02  0.58195025783E+03  0.62890795771E+03  0.12511763358E+03 0.  0.
          5    1    3    3  502    0 -0.99297815191E+01  0.27685996296E+02  0.22039331334E+02  0.36990802608E+02  0.41800000000E+01 0. -1.
         -5    1    3    3    0  502 -0.19187231616E+03 -0.57632268554E+01  0.55991092650E+03  0.59191715510E+03  0.41800000000E+01 0. -1.
        -11    1    1    2    0    0  0.10792973672E+03 -0.57780820226E+02  0.32455584276E+03  0.34687742262E+03  0.00000000000E+00 0. -1.
         11    1    1    2    0    0  0.93872360960E+02  0.35858050785E+02  0.31328142190E+03  0.32900314477E+03  0.00000000000E+00 0.  1.
</event>
<event>
 7    1  0.2943257E-009  0.1430538E+03  0.7561462E-02  0.1209278E+00
         -2   -1    0    0    0  501 -0.00000000000E+00  0.00000000000E+00  0.39973174565E+02  0.39973174565E+02  0.00000000000E+00 0.  1.
          2   -1    0    0  501    0  0.00000000000E+00 -0.00000000000E+00 -0.80426825021E+03  0.80426825021E+03  0.00000000000E+00 0. -1.
         25    2    1    2    0    0  0.93625564195E+02  0.86279246426E+02 -0.25241475085E+03  0.30914418356E+03  0.12508822945E+03 0.  0.
          5    1    3    3  502    0  0.28377276601E+02  0.58140137172E+02 -0.22281465965E+03  0.23205471410E+03  0.41800000000E+01 0.  1.
         -5    1    3    3    0  502  0.65248287593E+02  0.28139109254E+02 -0.29600091197E+02  0.77089469465E+02  0.41800000000E+01 0.  1.
        -11    1    1    2    0    0 -0.10403662787E+01  0.13753857626E+02 -0.17562315500E+02  0.22331275990E+02  0.00000000000E+00 0.  1.
         11    1    1    2    0    0 -0.92585197916E+02 -0.10003310405E+03 -0.49431800929E+03  0.51276596522E+03  0.00000000000E+00 0. -1.
</event>
<event>
 7    1  0.2943257E-009  0.3146387E+03  0.7561462E-02  0.1078144E+00
         -1   -1    0    0    0  501 -0.00000000000E+00  0.00000000000E+00  0.86245486969E+02  0.86245486969E+02  0.00000000000E+00 0.  1.
          1   -1    0    0  501    0  0.00000000000E+00 -0.00000000000E+00 -0.12811918752E+04  0.12811918752E+04  0.00000000000E+00 0. -1.
         25    2    1    2    0    0  0.22848119730E+03  0.20505077598E+03 -0.74315690706E+03  0.81374074027E+03  0.12506928326E+03 0.  0.
          5    1    3    3  502    0  0.89675905049E+02  0.11517204672E+03 -0.49029544380E+03  0.51157938084E+03  0.41800000000E+01 0.  1.
         -5    1    3    3    0  502  0.13880529225E+03  0.89878729260E+02 -0.25286146326E+03  0.30216135943E+03  0.41800000000E+01 0.  1.
        -11    1    1    2    0    0 -0.12768661144E+03 -0.16671672830E+03 -0.26628948382E+03  0.33912892449E+03  0.00000000000E+00 0.  1.
         11    1    1    2    0    0 -0.10079458586E+03 -0.38334047681E+02 -0.18549999731E+03  0.21456769736E+03  0.00000000000E+00 0. -1.
</event>
<event>
 7    1  0.2943257E-009  0.1981025E+03  0.7561462E-02  0.1151350E+00
         -1   -1    0    0    0  501 -0.00000000000E+00  0.00000000000E+00  0.10359206191E+03  0.10359206191E+03  0.00000000000E+00 0.  1.
          1   -1    0    0  501    0  0.00000000000E+00 -0.00000000000E+00 -0.41724362380E+03  0.41724362380E+03  0.00000000000E+00 0. -1.
         25    2    1    2    0    0  0.17450024272E+03  0.24805567380E+02 -0.18650800607E+03  0.28547986176E+03  0.12509142360E+03 0.  0.
          5    1    3    3  502    0  0.16099102028E+03 -0.97339229413E+01 -0.96391697493E+02  0.18794065449E+03  0.41800000000E+01 0.  1.
         -5    1    3    3    0  502  0.13509222446E+02  0.34539490321E+02 -0.90116308579E+02  0.97539207268E+02  0.41800000000E+01 0.  1.
        -11    1    1    2    0    0 -0.11347701163E+02 -0.32283459062E+02 -0.28666359443E+02  0.44640253297E+02  0.00000000000E+00 0. -1.
         11    1    1    2    0    0 -0.16315254156E+03  0.74778916824E+01 -0.98477196382E+02  0.19071557065E+03  0.00000000000E+00 0.  1.
</event>
<event>
 7    1  0.2943257E-009  0.1155337E+03  0.7561462E-02  0.1250652E+00
          1   -1    0    0  501    0  0.00000000000E+00  0.00000000000E+00  0.54369994394E+03  0.54369994394E+03  0.00000000000E+00 0. -1.
         -1   -1    0    0    0  501 -0.00000000000E+00 -0.00000000000E+00 -0.39648731523E+02  0.39648731523E+02  0.00000000000E+00 0.  1.
         25    2    1    2    0    0  0.72035368093E+02 -0.57958212612E+02  0.20634784448E+03  0.25840871745E+03  0.12508950262E+03 0.  0.
          5    1    3    3  502    0  0.71470686208E+02 -0.11899045830E+02  0.19868665949E+03  0.21152661142E+03  0.41800000000E+01 0.  1.
         -5    1    3    3    0  502  0.56468188567E+00 -0.46059166783E+02  0.76611849928E+01  0.46882106030E+02  0.41800000000E+01 0.  1.
        -11    1    1    2    0    0 -0.83735718511E+02  0.54963100678E+02  0.29631094792E+03  0.31278233781E+03  0.00000000000E+00 0. -1.
         11    1    1    2    0    0  0.11700350417E+02  0.29951119343E+01  0.13924200092E+01  0.12157620198E+02  0.00000000000E+00 0.  1.
</event>
<event>
 7    1  0.2943257E-009  0.1300660E+03  0.7561462E-02  0.1227358E+00
         -1   -1    0    0    0  501 -0.00000000000E+00  0.00000000000E+00  0.73551509609E+02  0.73551509609E+02  0.00000000000E+00 0.  1.
          1   -1    0    0  501    0  0.00000000000E+00 -0.00000000000E+00 -0.29612908824E+03  0.29612908824E+03  0.00000000000E+00 0. -1.
         25    2    1    2    0    0 -0.53264264134E+02  0.79275402560E+02 -0.18275853443E+03  0.24118317621E+03  0.12508785432E+03 0.  0.
          5    1    3    3  502    0 -0.57208838360E+01 -0.32871561019E+02 -0.25385032848E+02  0.42132414225E+02  0.41800000000E+01 0.  1.
         -5    1    3    3    0  502 -0.47543380298E+02  0.11214696358E+03 -0.15737350158E+03  0.19905076199E+03  0.41800000000E+01 0.  1.
        -11    1    1    2    0    0  0.16499786548E+02 -0.61714557581E+02  0.94357427211E+01  0.64575249239E+02  0.00000000000E+00 0.  1.
         11    1    1    2    0    0  0.36764477586E+02 -0.17560844979E+02 -0.49254786922E+02  0.63922172392E+02  0.00000000000E+00 0. -1.
</event>
<event>
 7    1  0.2943257E-009  0.2041997E+03  0.7561462E-02  0.1146243E+00
         -2   -1    0    0    0  501 -0.00000000000E+00  0.00000000000E+00  0.52338568826E+02  0.52338568826E+02  0.00000000000E+00 0. -1.
          2   -1    0    0  501    0  0.00000000000E+00 -0.00000000000E+00 -0.82132681793E+03  0.82132681793E+03  0.00000000000E+00 0.  1.
         25    2    1    2    0    0 -0.12830787620E+03 -0.11704874940E+03 -0.46189164039E+03  0.50907245413E+03  0.12509018852E+03 0.  0.
          5    1    3    3  502    0 -0.65899698455E+02  0.13667639955E+02 -0.11822607266E+03  0.13610456015E+03  0.41800000000E+01 0. -1.
         -5    1    3    3    0  502 -0.62408177743E+02 -0.13071638935E+03 -0.34366556773E+03  0.37296789398E+03  0.41800000000E+01 0. -1.
        -11    1    1    2    0    0  0.10172041880E+03  0.31521340080E+02 -0.17918712174E+03  0.20844342897E+03  0.00000000000E+00 0.  1.
         11    1    1    2    0    0  0.26587457399E+02  0.85527409317E+02 -0.12790948698E+03  0.15614950366E+03  0.00000000000E+00 0. -1.
</event>
<event>
 7    1  0.2943257E-009  0.9372749E+02  0.7561462E-02  0.1294068E+00
         -2   -1    0    0    0  501 -0.00000000000E+00  0.00000000000E+00  0.10588607541E+03  0.10588607541E+03  0.00000000000E+00 0.  1.
          2   -1    0    0  501    0  0.00000000000E+00 -0.00000000000E+00 -0.12465211739E+03  0.12465211739E+03  0.00000000000E+00 0. -1.
         25    2    1    2    0    0 -0.26253382775E+02  0.41190208745E+01 -0.49809902209E+02  0.13724022516E+03  0.12509055362E+03 0.  0.
          5    1    3    3  502    0 -0.34916553042E+02  0.55432104359E+02 -0.53808357291E+02  0.84880478229E+02  0.41800000000E+01 0. -1.
         -5    1    3    3    0  502  0.86631702674E+01 -0.51313083485E+02  0.39984550821E+01  0.52359746932E+02  0.41800000000E+01 0. -1.
        -11    1    1    2    0    0  0.19112204038E+02  0.29545824366E+02 -0.12903370333E+02  0.37479715135E+02  0.00000000000E+00 0. -1.
         11    1    1    2    0    0  0.71411787362E+01 -0.33664845240E+02  0.43947230557E+02  0.55818252503E+02  0.00000000000E+00 0.  1.
</event>
<event>
 7    1  0.2943257E-009  0.1007461E+03  0.7561462E-02  0.1278735E+00
          1   -1    0    0  501    0  0.00000000000E+00  0.00000000000E+00  0.11354370030E+03  0.11354370030E+03  0.00000000000E+00 0. -1.
         -1   -1    0    0    0  501 -0.00000000000E+00 -0.00000000000E+00 -0.23664315328E+03  0.23664315328E+03  0.00000000000E+00 0.  1.
         25    2    1    2    0    0  0.31925115453E+02 -0.26480520741E+02 -0.17902350927E+03  0.22230036164E+03  0.12509037908E+03 0.  0.
          5    1    3    3  502    0 -0.26186169169E+02 -0.24170938554E+01 -0.15097716463E+03  0.15330732024E+03  0.41800000000E+01 0.  1.
         -5    1    3    3    0  502  0.58111284622E+02 -0.24063426886E+02 -0.28046344632E+02  0.68993041397E+02  0.41800000000E+01 0.  1.
        -11    1    1    2    0    0 -0.26051402760E+02  0.66479373456E+02  0.49667859158E+02  0.86977462105E+02  0.00000000000E+00 0. -1.
         11    1    1    2    0    0 -0.58737126934E+01 -0.39998852715E+02  0.62561971310E+01  0.40909029832E+02  0.00000000000E+00 0.  1.
</event>
<event>
 7    1  0.2943257E-009  0.9950387E+02  0.7561462E-02  0.1281343E+00
          2   -1    0    0  501    0  0.00000000000E+00  0.00000000000E+00  0.12439419384E+03  0.12439419384E+03  0.00000000000E+00 0. -1.
         -2   -1    0    0    0  501 -0.00000000000E+00 -0.00000000000E+00 -0.16459164668E+03  0.16459164668E+03  0.00000000000E+00 0.  1.
         25    2    1    2    0    0  0.90795605947E+02  0.21039650072E+02 -0.18505869765E+02  0.15708568315E+03  0.12508771203E+03 0.  0.
          5    1    3    3  502    0  0.38453185362E+02 -0.15559644734E+02  0.48813853393E+02  0.64195129813E+02  0.41800000000E+01 0.  1.
         -5    1    3    3    0  502  0.52342420586E+02  0.36599294806E+02 -0.67319723158E+02  0.92890553336E+02  0.41800000000E+01 0.  1.
        -11    1    1    2    0    0 -0.29957521742E+02 -0.47766374877E+01  0.35594686079E+02  0.46768055890E+02  0.00000000000E+00 0. -1.
         11    1    1    2    0    0 -0.60838084205E+02 -0.16263012585E+02 -0.57286269155E+02  0.85132101476E+02  0.00000000000E+00 0.  1.
</event>
<event>
 7    1  0.2943257E-009  0.1331425E+03  0.7561462E-02  0.1222866E+00
         -2   -1    0    0    0  501 -0.00000000000E+00  0.00000000000E+00  0.13071902669E+02  0.13071902669E+02  0.00000000000E+00 0.  1.
          2   -1    0    0  501    0  0.00000000000E+00 -0.00000000000E+00 -0.15478020285E+04  0.15478020285E+04  0.00000000000E+00 0. -1.
         25    2    1    2    0    0  0.18495467257E+02  0.77460899440E+02 -0.10857484912E+04  0.10958280084E+04  0.12508782737E+03 0.  0.
          5    1    3    3  502    0 -0.40698232358E+02 -0.77693884818E+01 -0.41544782544E+03  0.41752973257E+03  0.41800000000E+01 0. -1.
         -5    1    3    3    0  502  0.59193699615E+02  0.85230287922E+02 -0.67030066581E+03  0.67829827586E+03  0.41800000000E+01 0. -1.
        -11    1    1    2    0    0  0.27606621671E+02 -0.68458391971E+02 -0.29215151251E+03  0.30133234684E+03  0.00000000000E+00 0. -1.
         11    1    1    2    0    0 -0.46102088928E+02 -0.90025074689E+01 -0.15683012205E+03  0.16371357587E+03  0.00000000000E+00 0.  1.
</event>
<event>
 7    1  0.2943257E-009  0.1123981E+03  0.7561462E-02  0.1256192E+00
         -1   -1    0    0    0  501 -0.00000000000E+00  0.00000000000E+00  0.15594391480E+03  0.15594391480E+03  0.00000000000E+00 0.  1.
          1   -1    0    0  501    0  0.00000000000E+00 -0.00000000000E+00 -0.10471423862E+03  0.10471423862E+03  0.00000000000E+00 0. -1.
         25    2    1    2    0    0 -0.22171766502E+02 -0.34989496660E+02  0.73305927288E+02  0.15078741493E+03  0.12508890207E+03 0.  0.
          5    1    3    3  502    0  0.14417959151E+02 -0.72303372329E+02  0.63623929750E+02  0.97473750482E+02  0.41800000000E+01 0. -1.
         -5    1    3    3    0  502 -0.36589725654E+02  0.37313875670E+02  0.96819975378E+01  0.53313664451E+02  0.41800000000E+01 0. -1.
        -11    1    1    2    0    0 -0.34528516350E+02  0.67572671845E+01 -0.29739552956E+02  0.46068645641E+02  0.00000000000E+00 0. -1.
         11    1    1    2    0    0  0.56700282853E+02  0.28232229475E+02  0.76633018499E+01  0.63802092849E+02  0.00000000000E+00 0.  1.
</event>
<event>
 7    1  0.2943257E-009  0.1295732E+03  0.7561462E-02  0.1228090E+00
         -2   -1    0    0    0  501 -0.00000000000E+00  0.00000000000E+00  0.18582120574E+03  0.18582120574E+03  0.00000000000E+00 0.  1.
          2   -1    0    0  501    0  0.00000000000E+00 -0.00000000000E+00 -0.16212422858E+03  0.16212422858E+03  0.00000000000E+00 0. -1.
         25    2    1    2    0    0 -0.11558910317E+02 -0.10774172078E+03  0.95808583817E+02  0.19124860988E+03  0.12511937997E+03 0.  0.
          5    1    3    3  502    0  0.26175133629E+02 -0.70842793294E+02 -0.66389040296E+01  0.75930141768E+02  0.41800000000E+01 0.  1.
         -5    1    3    3    0  502 -0.37734043945E+02 -0.36898927484E+02  0.10244748785E+03  0.11531846811E+03  0.41800000000E+01 0.  1.
        -11    1    1    2    0    0 -0.17651897085E+02  0.98290794985E+02 -0.76347342922E+02  0.12570436198E+03  0.00000000000E+00 0. -1.
         11    1    1    2    0    0  0.29210807401E+02  0.94509257920E+01  0.42357362592E+01  0.30992462455E+02  0.00000000000E+00 0.  1.
</event>
<event>
 7    1  0.2943257E-009  0.2862445E+03  0.7561462E-02  0.1092326E+00
         -1   -1    0    0    0  501 -0.00000000000E+00  0.00000000000E+00  0.10836640727E+03  0.10836640727E+03  0.00000000000E+00 0.  1.
          1   -1    0    0  501    0  0.00000000000E+00 -0.00000000000E+00 -0.88885738520E+03  0.88885738520E+03  0.00000000000E+00 0. -1.
         25    2    1    2    0    0  0.96063633565E+02 -0.26009301673E+03 -0.53652515897E+03  0.61675072389E+03  0.12508241346E+03 0.  0.
          5    1    3    3  502    0  0.11381801303E+03 -0.24803878553E+03 -0.52575321593E+03  0.59237800067E+03  0.41800000000E+01 0.  1.
         -5    1    3    3    0  502 -0.17754379465E+02 -0.12054231196E+02 -0.10771943041E+02  0.24372723212E+02  0.41800000000E+01 0.  1.
        -11    1    1    2    0    0 -0.59482664013E+02  0.18149835702E+03 -0.10855880807E+03  0.21969263922E+03  0.00000000000E+00 0.  1.
         11    1    1    2    0    0 -0.36580969552E+02  0.78594659709E+02 -0.13540701089E+03  0.16078042936E+03  0.00000000000E+00 0. -1.
</event>
<event>
 7    1  0.2943257E-009  0.4987625E+02  0.7561462E-02  0.1446010E+00
          1   -1    0    0  501    0  0.00000000000E+00  0.00000000000E+00  0.94123106973E+02  0.94123106973E+02  0.00000000000E+00 0. -1.
         -1   -1    0    0    0  501 -0.00000000000E+00 -0.00000000000E+00 -0.12534552694E+03  0.12534552694E+03  0.00000000000E+00 0.  1.
         25    2    1    2    0    0  0.21387656999E+01 -0.47848303566E+02 -0.83130295500E+01  0.13420164088E+03  0.12508772714E+03 0.  0.
          5    1    3    3  502    0  0.53065533604E+01 -0.25845196421E+02 -0.66557982753E+02  0.71718694597E+02  0.41800000000E+01 0.  1.
         -5    1    3    3    0  502 -0.31677876605E+01 -0.22003107144E+02  0.58244953203E+02  0.62482946283E+02  0.41800000000E+01 0.  1.
        -11    1    1    2    0    0 -0.88253521695E+01  0.32520957632E+02 -0.45836034218E+02  0.56889731579E+02  0.00000000000E+00 0.  1.
         11    1    1    2    0    0  0.66865864696E+01  0.15327345933E+02  0.22926643798E+02  0.28377261457E+02  0.00000000000E+00 0. -1.
</event>
<event>
 7    1  0.2943257E-009  0.1059838E+03  0.7561462E-02  0.1268193E+00
         -1   -1    0    0    0  501 -0.00000000000E+00  0.00000000000E+00  0.60746452722E+03  0.60746452722E+03  0.00000000000E+00 0.  1.
          1   -1    0    0  501    0  0.00000000000E+00 -0.00000000000E+00 -0.29650912154E+02  0.29650912154E+02  0.00000000000E+00 0. -1.
         25    2    1    2    0    0  0.31156947906E+02 -0.63886131256E+02  0.40084791689E+03  0.42588527272E+03  0.12508804851E+03 0.  0.
          5    1    3    3  502    0  0.79210416726E+00 -0.89928819818E+02  0.17839049179E+03  0.19982107002E+03  0.41800000000E+01 0. -1.
         -5    1    3    3    0  502  0.30364843738E+02  0.26042688562E+02  0.22245742509E+03  0.22606420270E+03  0.41800000000E+01 0. -1.
        -11    1    1    2    0    0 -0.20262309342E+02  0.37551256981E+01 -0.33163544184E+01  0.20872478423E+02  0.00000000000E+00 0. -1.
         11    1    1    2    0    0 -0.10894638564E+02  0.60131005558E+02  0.18028205259E+03  0.19035768823E+03  0.00000000000E+00 0.  1.
</event>
<event>
 7    1  0.2943257E-009  0.1195509E+03  0.7561462E-02  0.1243840E+00
         -2   -1    0    0    0  501 -0.00000000000E+00  0.00000000000E+00  0.51546315603E+02  0.51546315603E+02  0.00000000000E+00 0.  1.
          2   -1    0    0  501    0  0.00000000000E+00 -0.00000000000E+00 -0.48413481687E+03  0.48413481687E+03  0.00000000000E+00 0. -1.
         25    2    1    2    0    0 -0.36872596684E+02 -0.75411329288E+02 -0.36361643374E+03  0.39358743901E+03  0.12509078420E+03 0.  0.
          5    1    3    3  502    0 -0.52745861628E+02 -0.18116232700E+02 -0.30467217858E+03  0.30976270370E+03  0.41800000000E+01 0. -1.
         -5    1    3    3    0  502  0.15873264944E+02 -0.57295096588E+02 -0.58944255161E+02  0.83824735308E+02  0.41800000000E+01 0. -1.
        -11    1    1    2    0    0 -0.16808163007E+02 -0.12239500295E+02 -0.63661299472E+01  0.21745052808E+02  0.00000000000E+00 0. -1.
         11    1    1    2    0    0  0.53680759691E+02  0.87650829583E+02 -0.62605937586E+02  0.12034864066E+03  0.00000000000E+00 0.  1.
</event>
<event>
 7    1  0.2943257E-009  0.7127006E+02  0.7561462E-02  0.1355827E+00
         -1   -1    0    0    0  501 -0.00000000000E+00  0.00000000000E+00  0.30520641709E+02  0.30520641709E+02  0.00000000000E+00 0.  1.
          1   -1    0    0  501    0  0.00000000000E+00 -0.00000000000E+00 -0.44963429658E+03  0.44963429658E+03  0.00000000000E+00 0. -1.
         25    2    1    2    0    0  0.52592454293E+01  0.35038591907E+02 -0.27289258914E+03  0.30227951102E+03  0.12508866853E+03 0.  0.
          5    1    3    3  502    0 -0.28615372030E+02  0.38808167070E+00 -0.42056210079E+01  0.29225840824E+02  0.41800000000E+01 0.  1.
         -5    1    3    3    0  502  0.33874617459E+02  0.34650510236E+02 -0.26868696813E+03  0.27305367020E+03  0.41800000000E+01 0.  1.
        -11    1    1    2    0    0  0.44109228800E+01  0.14165042553E+02  0.71832054925E+01  0.16483419315E+02  0.00000000000E+00 0.  1.
         11    1    1    2    0    0 -0.96701683093E+01 -0.49203634460E+02 -0.15340427123E+03  0.16139200795E+03  0.00000000000E+00 0. -1.
</event>
<event>
 7    1  0.2943257E-009  0.1866804E+03  0.7561462E-02  0.1161490E+00
          1   -1    0    0  501    0  0.00000000000E+00  0.00000000000E+00  0.13410854500E+03  0.13410854500E+03  0.00000000000E+00 0. -1.
         -1   -1    0    0    0  501 -0.00000000000E+00 -0.00000000000E+00 -0.54261326958E+03  0.54261326958E+03  0.00000000000E+00 0.  1.
         25    2    1    2    0    0 -0.10433440472E+02 -0.17674929342E+03  0.54965282856E+01  0.21685726397E+03  0.12509073391E+03 0.  0.
          5    1    3    3  502    0  0.32565928125E+02 -0.36612541888E+02  0.43183660489E+02  0.65447068929E+02  0.41800000000E+01 0.  1.
         -5    1    3    3    0  502 -0.42999368597E+02 -0.14013675153E+03 -0.37687132203E+02  0.15141019505E+03  0.41800000000E+01 0.  1.
        -11    1    1    2    0    0  0.13518002425E+00  0.10987963796E+03 -0.34958147078E+03  0.36644338966E+03  0.00000000000E+00 0.  1.
         11    1    1    2    0    0  0.10298260448E+02  0.66869655462E+02 -0.64419782081E+02  0.93421160950E+02  0.00000000000E+00 0. -1.
</event>
<event>
 7    1  0.2943257E-009  0.1442282E+03  0.7561462E-02  0.1207750E+00
         -2   -1    0    0    0  501 -0.00000000000E+00  0.00000000000E+00  0.39823427249E+02  0.39823427249E+02  0.00000000000E+00 0.  1.
          2   -1    0    0  501    0  0.00000000000E+00 -0.00000000000E+00 -0.58624728472E+03  0.58624728472E+03  0.00000000000E+00 0. -1.
         25    2    1    2    0    0  0.29320009739E+02 -0.10039116356E+03 -0.24213979287E+03  0.29192060178E+03  0.12509160549E+03 0.  0.
          5    1    3    3  502    0 -0.39489717001E+02 -0.24339975025E-01 -0.78256268728E+02  0.87755081542E+02  0.41800000000E+01 0. -1.
         -5    1    3    3    0  502  0.68809726740E+02 -0.10036682359E+03 -0.16388352414E+03  0.20416552024E+03  0.41800000000E+01 0. -1.
        -11    1    1    2    0    0  0.18048457708E+02  0.66066845100E+02 -0.96805796525E+02  0.11858303879E+03  0.00000000000E+00 0.  1.
         11    1    1    2    0    0 -0.47368467448E+02  0.34324318463E+02 -0.20747826808E+03  0.21556707140E+03  0.00000000000E+00 0. -1.
</event>
<event>
 7    1  0.2943257E-009  0.8620451E+02  0.7561462E-02  0.1312312E+00
         -1   -1    0    0    0  501 -0.00000000000E+00  0.00000000000E+00  0.33627256659E+02  0.33627256659E+02  0.00000000000E+00 0.  1.
          1   -1    0    0  501    0  0.00000000000E+00 -0.00000000000E+00 -0.51186139424E+03  0.51186139424E+03  0.00000000000E+00 0. -1.
         25    2    1    2    0    0  0.52613584824E+02 -0.42901832774E+02 -0.20625505837E+03  0.25059525393E+03  0.12509226845E+03 0.  0.
          5    1    3    3  502    0  0.20830250454E+02  0.85231111779E+01 -0.18494909762E+03  0.18636036024E+03  0.41800000000E+01 0. -1.
         -5    1    3    3    0  502  0.31783334370E+02 -0.51424943952E+02 -0.21305960751E+02  0.64234893692E+02  0.41800000000E+01 0. -1.
        -11    1    1    2    0    0 -0.60327604826E+02  0.18158460282E+02 -0.25772648223E+03  0.26531507539E+03  0.00000000000E+00 0. -1.
         11    1    1    2    0    0  0.77140200015E+01  0.24743372493E+02 -0.14252596978E+02  0.29578321580E+02  0.00000000000E+00 0.  1.
</event>
<event>
 7    1  0.2943257E-009  0.1332040E+03  0.7561462E-02  0.1222778E+00
          2   -1    0    0  501    0  0.00000000000E+00  0.00000000000E+00  0.55190432970E+03  0.55190432970E+03  0.00000000000E+00 0. -1.
         -2   -1    0    0    0  501 -0.00000000000E+00 -0.00000000000E+00 -0.37293535197E+02  0.37293535197E+02  0.00000000000E+00 0.  1.
         25    2    1    2    0    0 -0.89192933777E+02 -0.13674614540E+02  0.21806031387E+03  0.26709750819E+03  0.12509358048E+03 0.  0.
          5    1    3    3  502    0 -0.95923498195E+02  0.26630997654E+02  0.19739069577E+03  0.22111328933E+03  0.41800000000E+01 0. -1.
         -5    1    3    3    0  502  0.67305644187E+01 -0.40305612194E+02  0.20669618100E+02  0.45984218860E+02  0.41800000000E+01 0. -1.
        -11    1    1    2    0    0  0.21615945831E+02  0.45966716728E+02  0.11629071279E+03  0.12690042570E+03  0.00000000000E+00 0. -1.
         11    1    1    2    0    0  0.67576987945E+02 -0.32292102188E+02  0.18025976784E+03  0.19519993101E+03  0.00000000000E+00 0.  1.
</event>
<event>
 7    1  0.2943257E-009  0.1218236E+03  0.7561462E-02  0.1240119E+00
         -1   -1    0    0    0  501 -0.00000000000E+00  0.00000000000E+00  0.22554628525E+02  0.22554628525E+02  0.00000000000E+00 0. -1.
          1   -1    0    0  501    0  0.00000000000E+00 -0.00000000000E+00 -0.17456837322E+04  0.17456837322E+04  0.00000000000E+00 0.  1.
         25    2    1    2    0    0  0.73364608519E+02  0.95926314408E+02 -0.14073630070E+04  0.14180629022E+04  0.12509011790E+03 0.  0.
          5    1    3    3  502    0  0.62856623951E+02  0.90010622623E+02 -0.56387430581E+03  0.57447765188E+03  0.41800000000E+01 0. -1.
         -5    1    3    3    0  502  0.10507984568E+02  0.59156917851E+01 -0.84348870122E+03  0.84358525036E+03  0.41800000000E+01 0. -1.
        -11    1    1    2    0    0 -0.30896937177E+02 -0.34133477085E+02 -0.23699101688E+03  0.24142174109E+03  0.00000000000E+00 0.  1.
         11    1    1    2    0    0 -0.42467671343E+02 -0.61792837323E+02 -0.78775079735E+02  0.10875371737E+03  0.00000000000E+00 0. -1.
</event>
<event>
 7    1  0.2943257E-009  0.1297098E+03  0.7561462E-02  0.1227887E+00
         -2   -1    0    0    0  501 -0.00000000000E+00  0.00000000000E+00  0.23529602835E+02  0.23529602835E+02  0.00000000000E+00 0.  1.
          2   -1    0    0  501    0  0.00000000000E+00 -0.00000000000E+00 -0.88709780657E+03  0.88709780657E+03  0.00000000000E+00 0. -1.
         25    2    1    2    0    0 -0.69492795283E+01 -0.77716955920E+02 -0.62398652274E+03  0.64116838330E+03  0.12509795145E+03 0.  0.
          5    1    3    3  502    0 -0.33300762086E+02 -0.99785548701E+02 -0.54265746412E+03  0.55277544469E+03  0.41800000000E+01 0. -1.
         -5    1    3    3    0  502  0.26351482557E+02  0.22068592780E+02 -0.81329058616E+02  0.88392938607E+02  0.41800000000E+01 0. -1.
        -11    1    1    2    0    0  0.46711666120E+02  0.59857653341E+02 -0.18229121000E+03  0.19747152620E+03  0.00000000000E+00 0. -1.
         11    1    1    2    0    0 -0.39762386591E+02  0.17859302580E+02 -0.57290470988E+02  0.71987499902E+02  0.00000000000E+00 0.  1.
</event>
<event>
 7    1  0.2943257E-009  0.6712750E+02  0.7561462E-02  0.1370143E+00
         -1   -1    0    0    0  501 -0.00000000000E+00  0.00000000000E+00  0.63971187050E+02  0.63971187050E+02  0.00000000000E+00 0.  1.
          1   -1    0    0  501    0  0.00000000000E+00 -0.00000000000E+00 -0.45387146187E+03  0.45387146187E+03  0.00000000000E+00 0. -1.
         25    2    1    2    0    0  0.28071289916E+01 -0.34325147185E+02 -0.39877025929E+03  0.41934539020E+03  0.12508693332E+03 0.  0.
          5    1    3    3  502    0  0.27398490167E+02 -0.30943826829E+02 -0.33927534612E+02  0.53635321264E+02  0.41800000000E+01 0.  1.
         -5    1    3    3    0  502 -0.24591361175E+02 -0.33813203560E+01 -0.36484272468E+03  0.36571006894E+03  0.41800000000E+01 0.  1.
        -11    1    1    2    0    0  0.23285987207E+02  0.34289011939E+02 -0.30362809818E+02  0.51379701829E+02  0.00000000000E+00 0. -1.
         11    1    1    2    0    0 -0.26093116199E+02  0.36135245938E-01  0.39232794293E+02  0.47117556885E+02  0.00000000000E+00 0.  1.
</event>
<event>
 7    1  0.2943257E-009  0.7214250E+02  0.7561462E-02  0.1352955E+00
          2   -1    0    0  501    0  0.00000000000E+00  0.00000000000E+00  0.14506984129E+04  0.14506984129E+04  0.00000000000E+00 0. -1.
         -2   -1    0    0    0  501 -0.00000000000E+00 -0.00000000000E+00 -0.11407063255E+02  0.11407063255E+02  0.00000000000E+00 0.  1.
         25    2    1    2    0    0  0.36832883579E+02 -0.24729444864E+02  0.11055435863E+04  0.11134813477E+04  0.12508350679E+03 0.  0.
          5    1    3    3  502    0  0.68927354757E+01  0.43514790592E+01  0.99806497014E+03  0.99810700939E+03  0.41800000000E+01 0.  1.
         -5    1    3    3    0  502  0.29940148103E+02 -0.29080923924E+02  0.10747861616E+03  0.11537433829E+03  0.41800000000E+01 0.  1.
        -11    1    1    2    0    0  0.18627529264E+02  0.32215861786E+02  0.72996626943E+02  0.81935060518E+02  0.00000000000E+00 0.  1.
         11    1    1    2    0    0 -0.55460412843E+02 -0.74864169219E+01  0.26075113639E+03  0.26668906795E+03  0.00000000000E+00 0. -1.
</event>
<event>
 7    1  0.2943257E-009  0.8990277E+02  0.7561462E-02  0.1303087E+00
         -4   -1    0    0    0  501 -0.00000000000E+00  0.00000000000E+00  0.29981613520E+03  0.29981613520E+03  0.00000000000E+00 0.  1.
          4   -1    0    0  501    0  0.00000000000E+00 -0.00000000000E+00 -0.40369781058E+02  0.40369781058E+02  0.00000000000E+00 0. -1.
         25    2    1    2    0    0 -0.13824151625E+02 -0.27898902478E+01  0.18570527375E+03  0.22434990324E+03  0.12509012642E+03 0.  0.
          5    1    3    3  502    0 -0.35980611705E+02 -0.47386351312E+02  0.44077389500E+02  0.74164407733E+02  0.41800000000E+01 0. -1.
         -5    1    3    3    0  502  0.22156460080E+02  0.44596461064E+02  0.14162788425E+03  0.15018549550E+03  0.41800000000E+01 0. -1.
        -11    1    1    2    0    0  0.19549382667E+02  0.33587682415E+02  0.75015654467E+02  0.84484668359E+02  0.00000000000E+00 0.  1.
         11    1    1    2    0    0 -0.57252310417E+01 -0.30797792167E+02 -0.12745740773E+01  0.31351344659E+02  0.00000000000E+00 0. -1.
</event>
<event>
 7    1  0.2943257E-009  0.1437187E+03  0.7561462E-02  0.1208411E+00
         -4   -1    0    0    0  501 -0.00000000000E+00  0.00000000000E+00  0.29847095450E+03  0.29847095450E+03  0.00000000000E+00 0.  1.
          4   -1    0    0  501    0  0.00000000000E+00 -0.00000000000E+00 -0.15001324385E+03  0.15001324385E+03  0.00000000000E+00 0. -1.
         25    2    1    2    0    0  0.10365221548E+03 -0.77200026756E+02 -0.56999167068E+02  0.18867873880E+03  0.12508851076E+03 0.  0.
          5    1    3    3  502    0  0.77132340361E+02 -0.58083638357E+02 -0.96946149595E+02  0.13689096134E+03  0.41800000000E+01 0.  1.
         -5    1    3    3    0  502  0.26519875122E+02 -0.19116388399E+02  0.39946982527E+02  0.51787777466E+02  0.41800000000E+01 0.  1.
        -11    1    1    2    0    0 -0.77471335794E+02  0.12331056959E+01  0.11670689029E+03  0.14008506937E+03  0.00000000000E+00 0. -1.
         11    1    1    2    0    0 -0.26180879689E+02  0.75966921060E+02  0.88749987422E+02  0.11972039018E+03  0.00000000000E+00 0.  1.
</event>
<event>
 7    1  0.3330473E-009  0.1051497E+03  0.7561462E-02  0.1269825E+00
         -1   -1    0    0    0  501 -0.00000000000E+00  0.00000000000E+00  0.10436436569E+03  0.10436436569E+03  0.00000000000E+00 0.  1.
          1   -1    0    0  501    0  0.00000000000E+00 -0.00000000000E+00 -0.12280167694E+03  0.12280167694E+03  0.00000000000E+00 0. -1.
         25    2    1    2    0    0  0.18317722513E+02  0.22568362744E-02  0.16734487566E+02  0.12752232734E+03  0.12508541854E+03 0.  0.
          5    1    3    3  502    0  0.67291474459E+02 -0.90455968383E+01 -0.13159550363E+02  0.69286445448E+02  0.41800000000E+01 0. -1.
         -5    1    3    3    0  502 -0.48973751946E+02  0.90478536746E+01  0.29894037929E+02  0.58235881890E+02  0.41800000000E+01 0. -1.
        -11    1    1    2    0    0 -0.46976764334E+02  0.25920000676E+02 -0.13448093697E+02  0.55312874147E+02  0.00000000000E+00 0. -1.
         11    1    1    2    0    0  0.28659041821E+02 -0.25922257512E+02 -0.21723705121E+02  0.44330841147E+02  0.00000000000E+00 0.  1.
</event>
<event>
 7    1  0.2943257E-009  0.7595014E+02  0.7561462E-02  0.1340954E+00
          2   -1    0    0  501    0  0.00000000000E+00  0.00000000000E+00  0.80314336707E+03  0.80314336707E+03  0.00000000000E+00 0. -1.
         -2   -1    0    0    0  501 -0.00000000000E+00 -0.00000000000E+00 -0.18068541040E+02  0.18068541040E+02  0.00000000000E+00 0.  1.
         25    2    1    2    0    0 -0.17035098364E+02 -0.37927013177E+02  0.57157636776E+03  0.58658039650E+03  0.12509342296E+03 0.  0.
          5    1    3    3  502    0  0.15971234253E+02 -0.85854425639E+01  0.64181115076E+01  0.19683869104E+02  0.41800000000E+01 0.  1.
         -5    1    3    3    0  502 -0.33006332617E+02 -0.29341570613E+02  0.56515825625E+03  0.56689652739E+03  0.41800000000E+01 0.  1.
        -11    1    1    2    0    0  0.25061996314E+02 -0.18994916100E+02  0.12654696874E+03  0.13039572767E+03  0.00000000000E+00 0. -1.
         11    1    1    2    0    0 -0.80268979506E+01  0.56921929277E+02  0.86951489529E+02  0.10423578395E+03  0.00000000000E+00 0.  1.
</event>
<event>
 7    1  0.2943257E-009  0.1208069E+03  0.7561462E-02  0.1241772E+00
          1   -1    0    0  501    0  0.00000000000E+00  0.00000000000E+00  0.50549792882E+03  0.50549792882E+03  0.00000000000E+00 0. -1.
         -1   -1    0    0    0  501 -0.00000000000E+00 -0.00000000000E+00 -0.34021996707E+02  0.34021996707E+02  0.00000000000E+00 0.  1.
         25    2    1    2    0    0  0.71932050551E+02  0.10946012684E+02  0.27871291022E+03  0.31404031249E+03  0.12508555653E+03 0.  0.
          5    1    3    3  502    0  0.62754051918E+02  0.56071270950E+02  0.10690089036E+03  0.13611513956E+03  0.41800000000E+01 0.  1.
         -5    1    3    3    0  502  0.91779986328E+01 -0.45125258266E+02  0.17181201986E+03  0.17792517292E+03  0.41800000000E+01 0.  1.
        -11    1    1    2    0    0 -0.77861747669E+02  0.19362735895E+02  0.10305983163E+03  0.13060894375E+03  0.00000000000E+00 0. -1.
         11    1    1    2    0    0  0.59296971183E+01 -0.30308748579E+02  0.89703190264E+02  0.94870669292E+02  0.00000000000E+00 0.  1.
</event>
<event>
 7    1  0.2943257E-009  0.9144067E+02  0.7561462E-02  0.1299400E+00
          2   -1    0    0  501    0  0.00000000000E+00  0.00000000000E+00  0.33723890938E+03  0.33723890938E+03  0.00000000000E+00 0. -1.
         -2   -1    0    0    0  501 -0.00000000000E+00 -0.00000000000E+00 -0.55594688158E+02  0.55594688158E+02  0.00000000000E+00 0.  1.
         25    2    1    2    0    0 -0.67033351053E+02  0.46137536829E+01  0.85901453076E+02  0.16595631288E+03  0.12509069217E+03 0.  0.
          5    1    3    3  502    0 -0.30467214981E+02 -0.12087648721E+02  0.11271211790E+03  0.11745576342E+03  0.41800000000E+01 0.  1.
         -5    1    3    3    0  502 -0.36566136072E+02  0.16701402404E+02 -0.26810664822E+02  0.48500549457E+02  0.41800000000E+01 0.  1.
        -11    1    1    2    0    0  0.28967200763E+02  0.40880363495E+02  0.56439104195E+02  0.75469698038E+02  0.00000000000E+00 0.  1.
         11    1    1    2    0    0  0.38066150289E+02 -0.45494117178E+02  0.13930366395E+03  0.15140758662E+03  0.00000000000E+00 0. -1.
</event>
<event>
 7    1  0.2943257E-009  0.1673508E+03  0.7561462E-02  0.1180639E+00
         -2   -1    0    0    0  501 -0.00000000000E+00  0.00000000000E+00  0.10078654438E+03  0.10078654438E+03  0.00000000000E+00 0.  1.
          2   -1    0    0  501    0  0.00000000000E+00 -0.00000000000E+00 -0.33100470904E+03  0.33100470904E+03  0.00000000000E+00 0. -1.
         25    2    1    2    0    0  0.64255051430E+02  0.12657919607E+03 -0.16502386160E+03  0.25106006397E+03  0.12508907351E+03 0.  0.
          5    1    3    3  502    0 -0.83982429244E+01  0.10634831388E+03 -0.62479316828E+02  0.12369976467E+03  0.41800000000E+01 0.  1.
         -5    1    3    3    0  502  0.72653294354E+02  0.20230882194E+02 -0.10254454477E+03  0.12736029930E+03  0.41800000000E+01 0.  1.
        -11    1    1    2    0    0  0.64399349198E+01 -0.40545763990E+02  0.14781430314E+02  0.43633959497E+02  0.00000000000E+00 0.  1.
         11    1    1    2    0    0 -0.70694986350E+02 -0.86033432082E+02 -0.79975733378E+02  0.13709722995E+03  0.00000000000E+00 0. -1.
</event>
<event>
 7    1  0.2943257E-009  0.1137781E+03  0.7561462E-02  0.1253729E+00
          1   -1    0    0  501    0  0.00000000000E+00  0.00000000000E+00  0.21527716276E+03  0.21527716276E+03  0.00000000000E+00 0. -1.
         -1   -1    0    0    0  501 -0.00000000000E+00 -0.00000000000E+00 -0.11201076798E+03  0.11201076798E+03  0.00000000000E+00 0.  1.
         25    2    1    2    0    0 -0.62793957709E+02 -0.77464376022E+02  0.63885190871E+01  0.16010082872E+03  0.12509057320E+03 0.  0.
          5    1    3    3  502    0 -0.23787509546E+02 -0.11076908568E+02  0.60378794306E+02  0.65966769783E+02  0.41800000000E+01 0. -1.
         -5    1    3    3    0  502 -0.39006448163E+02 -0.66387467454E+02 -0.53990275219E+02  0.94134058935E+02  0.41800000000E+01 0. -1.
        -11    1    1    2    0    0 -0.92519753100E+01  0.43044366395E+02  0.70459956259E+02  0.83084426708E+02  0.00000000000E+00 0. -1.
         11    1    1    2    0    0  0.72045933019E+02  0.34420009627E+02  0.26417919437E+02  0.84102675312E+02  0.00000000000E+00 0.  1.
</event>
<event>
 7    1  0.2943257E-009  0.9501930E+02  0.7561462E-02  0.1291133E+00
         -2   -1    0    0    0  501 -0.00000000000E+00  0.00000000000E+00  0.29605267296E+03  0.29605267296E+03  0.00000000000E+00 0.  1.
          2   -1    0    0  501    0  0.00000000000E+00 -0.00000000000E+00 -0.59345307671E+02  0.59345307671E+02  0.00000000000E+00 0. -1.
         25    2    1    2    0    0  0.15136170264E+02  0.53358710867E+02  0.20037584370E+03  0.24264481731E+03  0.12509905257E+03 0.  0.
          5    1    3    3  502    0 -0.11817026514E+02 -0.23640506037E+02  0.54615292445E+00  0.26763526007E+02  0.41800000000E+01 0.  1.
         -5    1    3    3    0  502  0.26953196777E+02  0.76999216904E+02  0.19982969078E+03  0.21588129131E+03  0.41800000000E+01 0.  1.
        -11    1    1    2    0    0 -0.38431414845E+02 -0.32990919852E+02 -0.14993157872E+02  0.52822052427E+02  0.00000000000E+00 0. -1.
         11    1    1    2    0    0  0.23295244581E+02 -0.20367791014E+02  0.51324679465E+02  0.59931110895E+02  0.00000000000E+00 0.  1.
</event>
<event>
 7    1  0.2943257E-009  0.1391930E+03  0.7561462E-02  0.1214419E+00
         -1   -1    0    0    0  501 -0.00000000000E+00  0.00000000000E+00  0.65805846968E+02  0.65805846968E+02  0.00000000000E+00 0.  1.
          1   -1    0    0  501    0  0.00000000000E+00 -0.00000000000E+00 -0.33407782151E+03  0.33407782151E+03  0.00000000000E+00 0. -1.
         25    2    1    2    0    0 -0.75736291727E+02  0.57381897009E+02 -0.17694149089E+03  0.23661176131E+03  0.12509263128E+03 0.  0.
          5    1    3    3  502    0 -0.14593462645E+02 -0.39574676751E+02 -0.48027722072E+02  0.64056683331E+02  0.41800000000E+01 0. -1.
         -5    1    3    3    0  502 -0.61142829082E+02  0.96956573760E+02 -0.12891376882E+03  0.17255507797E+03  0.41800000000E+01 0. -1.
        -11    1    1    2    0    0  0.67691037710E+02 -0.75543518125E+02 -0.99225691261E+02  0.14189657333E+03  0.00000000000E+00 0. -1.
         11    1    1    2    0    0  0.80452540166E+01  0.18161621117E+02  0.78952076077E+01  0.21375333844E+02  0.00000000000E+00 0.  1.
</event>
<event>
 7    1  0.2943257E-009  0.1447261E+03  0.7561462E-02  0.1207107E+00
         -1   -1    0    0    0  501 -0.00000000000E+00  0.00000000000E+00  0.39377949592E+03  0.39377949592E+03  0.00000000000E+00 0.  1.
          1   -1    0    0  501    0  0.00000000000E+00 -0.00000000000E+00 -0.56196596075E+02  0.56196596075E+02  0.00000000000E+00 0. -1.
         25    2    1    2    0    0  0.80676754580E+02 -0.61439407701E+02  0.17277281724E+03  0.23618123345E+03  0.12509032380E+03 0.  0.
          5    1    3    3  502    0 -0.28323320805E+02 -0.27480240345E+02  0.78896562509E+02  0.88314857677E+02  0.41800000000E+01 0.  1.
         -5    1    3    3    0  502  0.10900007538E+03 -0.33959167357E+02  0.93876254729E+02  0.14786637577E+03  0.41800000000E+01 0.  1.
        -11    1    1    2    0    0 -0.36035019276E+02 -0.21047589768E+02  0.41346586369E+02  0.58745756047E+02  0.00000000000E+00 0. -1.
         11    1    1    2    0    0 -0.44641735304E+02  0.82486997470E+02  0.12346349624E+03  0.15504910250E+03  0.00000000000E+00 0.  1.
</event>
<event>
 7    1  0.2943257E-009  0.1298759E+03  0.7561462E-02  0.1227640E+00
         -2   -1    0    0    0  501 -0.00000000000E+00  0.00000000000E+00  0.24126540763E+02  0.24126540763E+02  0.00000000000E+00 0.  1.
          2   -1    0    0  501    0  0.00000000000E+00 -0.00000000000E+00 -0.11744411084E+04  0.11744411084E+04  0.00000000000E+00 0. -1.
         25    2    1    2    0    0  0.61489828683E+02  0.81191957467E+02 -0.88278426907E+03  0.89740196189E+03  0.12509629293E+03 0.  0.
          5    1    3    3  502    0  0.95739599583E+02  0.56123646793E+02 -0.74307119809E+03  0.75132430580E+03  0.41800000000E+01 0. -1.
         -5    1    3    3    0  502 -0.34249770900E+02  0.25068310674E+02 -0.13971307098E+03  0.14607765609E+03  0.41800000000E+01 0. -1.
        -11    1    1    2    0    0 -0.51843418252E+02 -0.45187209982E+02 -0.62999455836E+02  0.93266046328E+02  0.00000000000E+00 0.  1.
         11    1    1    2    0    0 -0.96464104315E+01 -0.36004747485E+02 -0.20453084276E+03  0.20789964097E+03  0.00000000000E+00 0. -1.
</event>
<event>
 7    1  0.2943257E-009  0.1550544E+03  0.7561462E-02  0.1194396E+00
         -2   -1    0    0    0  501 -0.00000000000E+00  0.00000000000E+00  0.13317472413E+03  0.13317472413E+03  0.00000000000E+00 0.  1.
          2   -1    0    0  501    0  0.00000000000E+00 -0.00000000000E+00 -0.23705702110E+03  0.23705702110E+03  0.00000000000E+00 0. -1.
         25    2    1    2    0    0  0.46680508208E+02  0.12525225597E+03 -0.99458553553E+02  0.20833477010E+03  0.12507667683E+03 0.  0.
          5    1    3    3  502    0 -0.34871288197E+00  0.89792052044E+02 -0.11624621411E+03  0.14694689145E+03  0.41800000000E+01 0.  1.
         -5    1    3    3    0  502  0.47029221090E+02  0.35460203925E+02  0.16787660558E+02  0.61387878655E+02  0.41800000000E+01 0.  1.
        -11    1    1    2    0    0 -0.54866329468E+01 -0.11944362083E+03  0.31535644844E+01  0.11961114775E+03  0.00000000000E+00 0.  1.
         11    1    1    2    0    0 -0.41193875261E+02 -0.58086351386E+01 -0.75773079015E+01  0.42285827368E+02  0.00000000000E+00 0. -1.
</event>
<event>
 7    1  0.2943257E-009  0.1274709E+03  0.7561462E-02  0.1231257E+00
         -2   -1    0    0    0  501 -0.00000000000E+00  0.00000000000E+00  0.47643876703E+02  0.47643876703E+02  0.00000000000E+00 0. -1.
          2   -1    0    0  501    0  0.00000000000E+00 -0.00000000000E+00 -0.36788399717E+03  0.36788399717E+03  0.00000000000E+00 0.  1.
         25    2    1    2    0    0  0.55635805400E+02 -0.47675216346E+02 -0.21625196963E+03  0.26034709996E+03  0.12508968380E+03 0.  0.
          5    1    3    3  502    0  0.28494923172E+02  0.40592414807E+02 -0.52762563329E+02  0.72533201195E+02  0.41800000000E+01 0. -1.
         -5    1    3    3    0  502  0.27140882228E+02 -0.88267631153E+02 -0.16348940630E+03  0.18781389876E+03  0.41800000000E+01 0. -1.
        -11    1    1    2    0    0 -0.53427440766E+02 -0.10553171671E+02 -0.66235386744E+02  0.85749561610E+02  0.00000000000E+00 0.  1.
         11    1    1    2    0    0 -0.22083646345E+01  0.58228388016E+02 -0.37752764099E+02  0.69431212307E+02  0.00000000000E+00 0. -1.
</event>
<event>
 7    1  0.2943257E-009  0.1107774E+03  0.7561462E-02  0.1259137E+00
          2   -1    0    0  501    0  0.00000000000E+00  0.00000000000E+00  0.58280289745E+03  0.58280289745E+03  0.00000000000E+00 0.  1.
         -2   -1    0    0    0  501 -0.00000000000E+00 -0.00000000000E+00 -0.26133507712E+02  0.26133507712E+02  0.00000000000E+00 0. -1.
         25    2    1    2    0    0  0.55516992743E+02  0.52766422327E+01  0.36822910268E+03  0.39287577212E+03  0.12509484732E+03 0.  0.
          5    1    3    3  502    0  0.87871361323E+02 -0.23071976773E+02  0.20994084491E+03  0.22879318830E+03  0.41800000000E+01 0.  1.
         -5    1    3    3    0  502 -0.32354368580E+02  0.28348619006E+02  0.15828825777E+03  0.16408258382E+03  0.41800000000E+01 0.  1.
        -11    1    1    2    0    0 -0.50932883871E+02  0.25020957162E+02  0.17234762888E+03  0.18144947544E+03  0.00000000000E+00 0.  1.
         11    1    1    2    0    0 -0.45841088724E+01 -0.30297599394E+02  0.16092658185E+02  0.34611157604E+02  0.00000000000E+00 0. -1.
</event>
<event>
 7    1  0.2943257E-009  0.1522844E+03  0.7561462E-02  0.1197694E+00
         -1   -1    0    0    0  501 -0.00000000000E+00  0.00000000000E+00  0.88580957563E+02  0.88580957563E+02  0.00000000000E+00 0.  1.
          1   -1    0    0  501    0  0.00000000000E+00 -0.00000000000E+00 -0.60642095856E+03  0.60642095856E+03  0.00000000000E+00 0. -1.
         25    2    1    2    0    0  0.12988084977E+03  0.73914040398E+02 -0.58209786639E+02  0.20338862916E+03  0.12508490999E+03 0.  0.
          5    1    3    3  502    0  0.13558025308E+02  0.86930961354E+01 -0.67615239738E+02  0.69632485347E+02  0.41800000000E+01 0.  1.
         -5    1    3    3    0  502  0.11632282446E+03  0.65220944263E+02  0.94054530993E+01  0.13375614382E+03  0.41800000000E+01 0.  1.
        -11    1    1    2    0    0 -0.49702060439E+02 -0.72415236608E+01 -0.58276477025E+02  0.76934272280E+02  0.00000000000E+00 0.  1.
         11    1    1    2    0    0 -0.80178789327E+02 -0.66672516737E+02 -0.40135373733E+03  0.41467901468E+03  0.00000000000E+00 0. -1.
</event>
<event>
 7    1  0.2943257E-009  0.1071133E+03  0.7561462E-02  0.1266011E+00
         -4   -1    0    0    0  501 -0.00000000000E+00  0.00000000000E+00  0.26548558524E+03  0.26548558524E+03  0.00000000000E+00 0.  1.
          4   -1    0    0  501    0  0.00000000000E+00 -0.00000000000E+00 -0.82232629942E+02  0.82232629942E+02  0.00000000000E+00 0. -1.
         25    2    1    2    0    0  0.88657958983E+02 -0.90962662118E+01  0.46308477295E+02  0.16042257051E+03  0.12509176755E+03 0.  0.
          5    1    3    3  502    0  0.63339967708E+02 -0.81970973116E+01  0.89586105418E+02  0.11010125611E+03  0.41800000000E+01 0. -1.
         -5    1    3    3    0  502  0.25317991275E+02 -0.89916890021E+00 -0.43277628122E+02  0.50321314398E+02  0.41800000000E+01 0. -1.
        -11    1    1    2    0    0 -0.19216686407E+02 -0.36655279148E+02  0.66418721451E+02  0.78258143890E+02  0.00000000000E+00 0.  1.
         11    1    1    2    0    0 -0.69441272575E+02  0.45751545360E+02  0.70525756554E+02  0.10903750078E+03  0.00000000000E+00 0. -1.
</event>
<event>
 7    1  0.2943257E-009  0.1197620E+03  0.7561462E-02  0.1243490E+00
         -2   -1    0    0    0  501 -0.00000000000E+00  0.00000000000E+00  0.15320184919E+03  0.15320184919E+03  0.00000000000E+00 0.  1.
          2   -1    0    0  501    0  0.00000000000E+00 -0.00000000000E+00 -0.19906944030E+03  0.19906944030E+03  0.00000000000E+00 0. -1.
         25    2    1    2    0    0 -0.62641387329E+02 -0.62305158893E+02  0.80580008536E+02  0.17304803330E+03  0.12508640143E+03 0.  0.
          5    1    3    3  502    0 -0.30300680658E+02 -0.72586208096E+02 -0.69529383031E+01  0.79074045079E+02  0.41800000000E+01 0.  1.
         -5    1    3    3    0  502 -0.32340706671E+02  0.10281049202E+02  0.87532946839E+02  0.93973988225E+02  0.41800000000E+01 0.  1.
        -11    1    1    2    0    0  0.85598690594E+02  0.57474683256E+02 -0.10858414404E+03  0.14973640634E+03  0.00000000000E+00 0. -1.
         11    1    1    2    0    0 -0.22957303265E+02  0.48304756376E+01 -0.17863455604E+02  0.29486849852E+02  0.00000000000E+00 0.  1.
</event>
<event>
 7    1  0.2943257E-009  0.1311428E+03  0.7561462E-02  0.1225770E+00
          1   -1    0    0  501    0  0.00000000000E+00  0.00000000000E+00  0.85604228938E+03  0.85604228938E+03  0.00000000000E+00 0. -1.
         -1   -1    0    0    0  501 -0.00000000000E+00 -0.00000000000E+00 -0.26550848760E+02  0.26550848760E+02  0.00000000000E+00 0.  1.
         25    2    1    2    0    0  0.66214608431E+02 -0.55524643988E+02  0.27935405164E+03  0.31804647237E+03  0.12509001543E+03 0.  0.
          5    1    3    3  502    0 -0.13813187477E+02 -0.55553781872E+02  0.18779512966E+03  0.19637084802E+03  0.41800000000E+01 0.  1.
         -5    1    3    3    0  502  0.80027795908E+02  0.29137884275E-01  0.91558921974E+02  0.12167562435E+03  0.41800000000E+01 0.  1.
        -11    1    1    2    0    0  0.21051231740E+02 -0.48554347492E+00  0.60797204386E+02  0.64340424084E+02  0.00000000000E+00 0.  1.
         11    1    1    2    0    0 -0.87265840170E+02  0.56010187463E+02  0.48934018460E+03  0.50020624169E+03  0.00000000000E+00 0. -1.
</event>
<event>
 7    1  0.2943257E-009  0.9850184E+02  0.7561462E-02  0.1283478E+00
         -1   -1    0    0    0  501 -0.00000000000E+00  0.00000000000E+00  0.88878490733E+03  0.88878490733E+03  0.00000000000E+00 0.  1.
          1   -1    0    0  501    0  0.00000000000E+00 -0.00000000000E+00 -0.31229645683E+02  0.31229645683E+02  0.00000000000E+00 0. -1.
         25    2    1    2    0    0 -0.74297801538E+02 -0.41308473346E+02  0.71662407960E+03  0.73240985383E+03  0.12509024441E+03 0.  0.
          5    1    3    3  502    0 -0.22804925415E+01 -0.15424050366E+02  0.53543057550E+03  0.53567385185E+03  0.41800000000E+01 0. -1.
         -5    1    3    3    0  502 -0.72017308997E+02 -0.25884422980E+02  0.18119350409E+03  0.19673600198E+03  0.41800000000E+01 0. -1.
        -11    1    1    2    0    0  0.83365105696E+01 -0.15217510391E+02  0.79094034715E+02  0.80974911908E+02  0.00000000000E+00 0.  1.
         11    1    1    2    0    0  0.65961290969E+02  0.56525983737E+02  0.61837147333E+02  0.10662978727E+03  0.00000000000E+00 0. -1.
</event>
<event>
 7    1  0.2943257E-009  0.5856831E+02  0.7561462E-02  0.1403940E+00
          2   -1    0    0  501    0  0.00000000000E+00  0.00000000000E+00  0.18139806603E+03  0.18139806603E+03  0.00000000000E+00 0. -1.
         -2   -1    0    0    0  501 -0.00000000000E+00 -0.00000000000E+00 -0.11867002549E+03  0.11867002549E+03  0.00000000000E+00 0.  1.
         25    2    1    2    0    0 -0.12561894137E+02 -0.84191041135E+01 -0.62235332450E+02  0.14053101074E+03  0.12508815242E+03 0.  0.
          5    1    3    3  502    0 -0.17014798167E+02  0.22361080363E+02  0.31064652790E+02  0.42095205483E+02  0.41800000000E+01 0.  1.
         -5    1    3    3    0  502  0.44529040302E+01 -0.30780184476E+02 -0.93299985240E+02  0.98435805256E+02  0.41800000000E+01 0.  1.
        -11    1    1    2    0    0  0.29128343828E+02  0.21530286909E+02  0.13230276037E+03  0.13717154978E+03  0.00000000000E+00 0. -1.
         11    1    1    2    0    0 -0.16566449691E+02 -0.13111182796E+02 -0.73393873780E+01  0.22365530996E+02  0.00000000000E+00 0.  1.
</event>
<event>
 7    1  0.2943257E-009  0.8680316E+02  0.7561462E-02  0.1310783E+00
         -2   -1    0    0    0  501 -0.00000000000E+00  0.00000000000E+00  0.87664481547E+02  0.87664481547E+02  0.00000000000E+00 0.  1.
          2   -1    0    0  501    0  0.00000000000E+00 -0.00000000000E+00 -0.18104429088E+03  0.18104429088E+03  0.00000000000E+00 0. -1.
         25    2    1    2    0    0  0.44444675320E+02 -0.35194353683E+02 -0.66583601995E+02  0.15261413077E+03  0.12507487821E+03 0.  0.
          5    1    3    3  502    0  0.58616323076E+02 -0.30648503889E+02 -0.97589785938E+02  0.11796797379E+03  0.41800000000E+01 0.  1.
         -5    1    3    3    0  502 -0.14171647756E+02 -0.45458497938E+01  0.31006183943E+02  0.34646156975E+02  0.41800000000E+01 0.  1.
        -11    1    1    2    0    0 -0.36773267755E+02  0.57516195814E+02  0.13315645034E+02  0.69553521873E+02  0.00000000000E+00 0.  1.
         11    1    1    2    0    0 -0.76714075656E+01 -0.22321842131E+02 -0.40111852375E+02  0.46541119788E+02  0.00000000000E+00 0. -1.
</event>
<event>
 7    1  0.2943257E-009  0.1338956E+03  0.7561462E-02  0.1221787E+00
          1   -1    0    0  501    0  0.00000000000E+00  0.00000000000E+00  0.22946198152E+03  0.22946198152E+03  0.00000000000E+00 0. -1.
         -1   -1    0    0    0  501 -0.00000000000E+00 -0.00000000000E+00 -0.12104981465E+03  0.12104981465E+03  0.00000000000E+00 0.  1.
         25    2    1    2    0    0 -0.68660932654E+02 -0.87416237496E+02  0.11886036431E+03  0.20525887315E+03  0.12508995383E+03 0.  0.
          5    1    3    3  502    0  0.20023794402E+02 -0.60160228448E+02  0.13781399763E+02  0.65020033902E+02  0.41800000000E+01 0.  1.
         -5    1    3    3    0  502 -0.88684727056E+02 -0.27256009048E+02  0.10507896455E+03  0.14023883924E+03  0.41800000000E+01 0.  1.
        -11    1    1    2    0    0  0.60415907821E+02  0.72895481207E+02  0.31759297475E+02  0.99862335614E+02  0.00000000000E+00 0.  1.
         11    1    1    2    0    0  0.82450248337E+01  0.14520756289E+02 -0.42207494923E+02  0.45390587410E+02  0.00000000000E+00 0. -1.
</event>
<event>
 7    1  0.2943257E-009  0.9304205E+02  0.7561462E-02  0.1295648E+00
         -2   -1    0    0    0  501 -0.00000000000E+00  0.00000000000E+00  0.79966460623E+02  0.79966460623E+02  0.00000000000E+00 0.  1.
          2   -1    0    0  501    0  0.00000000000E+00 -0.00000000000E+00 -0.20054211196E+03  0.20054211196E+03  0.00000000000E+00 0. -1.
         25    2    1    2    0    0  0.45784396569E+02 -0.23160440056E+02 -0.19818816555E+02  0.13664783340E+03  0.12508888012E+03 0.  0.
          5    1    3    3  502    0  0.79205829917E+01  0.47338364014E+02 -0.28612967153E+02  0.56034191631E+02  0.41800000000E+01 0. -1.
         -5    1    3    3    0  502  0.37863813578E+02 -0.70498804070E+02  0.87941505985E+01  0.80613641765E+02  0.41800000000E+01 0. -1.
        -11    1    1    2    0    0 -0.24687322950E+02  0.26719286693E+02 -0.11334314162E+03  0.11903802732E+03  0.00000000000E+00 0. -1.
         11    1    1    2    0    0 -0.21097073619E+02 -0.35588466370E+01  0.12586306837E+02  0.24822711868E+02  0.00000000000E+00 0.  1.
</event>
<event>
 7    1  0.2943257E-009  0.1117319E+03  0.7561462E-02  0.1257396E+00
          1   -1    0    0  501    0  0.00000000000E+00  0.00000000000E+00  0.43449268807E+03  0.43449268807E+03  0.00000000000E+00 0. -1.
         -1   -1    0    0    0  501 -0.00000000000E+00 -0.00000000000E+00 -0.31944831165E+02  0.31944831165E+02  0.00000000000E+00 0.  1.
         25    2    1    2    0    0 -0.19847332028E+02 -0.28701935943E+02  0.29070073427E+03  0.31839182805E+03  0.12509485021E+03 0.  0.
          5    1    3    3  502    0 -0.71036005980E+02 -0.24867663247E+02  0.13807396468E+03  0.15730990733E+03  0.41800000000E+01 0. -1.
         -5    1    3    3    0  502  0.51188673952E+02 -0.38342726962E+01  0.15262676959E+03  0.16108192072E+03  0.41800000000E+01 0. -1.
        -11    1    1    2    0    0  0.54747767434E+02  0.62944625966E+01  0.70487618070E+02  0.89473138984E+02  0.00000000000E+00 0.  1.
         11    1    1    2    0    0 -0.34900435407E+02  0.22407473347E+02  0.41359504561E+02  0.58572552197E+02  0.00000000000E+00 0. -1.
</event>
<event>
 7    1  0.2943257E-009  0.1137858E+03  0.7561462E-02  0.1253715E+00
          2   -1    0    0  501    0  0.00000000000E+00  0.00000000000E+00  0.51722813510E+03  0.51722813510E+03  0.00000000000E+00 0.  1.
         -2   -1    0    0    0  501 -0.00000000000E+00 -0.00000000000E+00 -0.37633077618E+02  0.37633077618E+02  0.00000000000E+00 0. -1.
         25    2    1    2    0    0  0.12713210725E+02  0.66168349108E+02  0.37577695462E+03  0.40174257067E+03  0.12509555273E+03 0.  0.
          5    1    3    3  502    0  0.43520079968E+02  0.86797564716E+02  0.32157555960E+03  0.33594066074E+03  0.41800000000E+01 0. -1.
         -5    1    3    3    0  502 -0.30806869243E+02 -0.20629215608E+02  0.54201395011E+02  0.65801909929E+02  0.41800000000E+01 0. -1.
        -11    1    1    2    0    0 -0.38195863143E+02 -0.28768648831E+02  0.98520913017E+01  0.48822359835E+02  0.00000000000E+00 0. -1.
         11    1    1    2    0    0  0.25482652419E+02 -0.37399700277E+02  0.93966011566E+02  0.10429628222E+03  0.00000000000E+00 0.  1.
</event>
<event>
 7    1  0.2943257E-009  0.1645234E+03  0.7561462E-02  0.1183682E+00
         -3   -1    0    0    0  501 -0.00000000000E+00  0.00000000000E+00  0.16611220228E+03  0.16611220228E+03  0.00000000000E+00 0.  1.
          3   -1    0    0  501    0  0.00000000000E+00 -0.00000000000E+00 -0.18273573657E+03  0.18273573657E+03  0.00000000000E+00 0. -1.
         25    2    1    2    0    0  0.13235824304E+03 -0.13891624196E+02  0.12408638015E+02  0.18306885699E+03  0.12509416605E+03 0.  0.
          5    1    3    3  502    0  0.12448885345E+03  0.24922660911E+02  0.41628497233E+02  0.13367504570E+03  0.41800000000E+01 0.  1.
         -5    1    3    3    0  502  0.78693895835E+01 -0.38814285107E+02 -0.29219859218E+02  0.49393811287E+02  0.41800000000E+01 0.  1.
        -11    1    1    2    0    0 -0.83077634917E+02 -0.37362477945E+02 -0.70904669804E+01  0.91368062820E+02  0.00000000000E+00 0.  1.
         11    1    1    2    0    0 -0.49280608118E+02  0.51254102140E+02 -0.21941705325E+02  0.74411019045E+02  0.00000000000E+00 0. -1.
</event>
<event>
 7    1  0.2943257E-009  0.1070319E+03  0.7561462E-02  0.1266167E+00
         -1   -1    0    0    0  501 -0.00000000000E+00  0.00000000000E+00  0.10474012427E+03  0.10474012427E+03  0.00000000000E+00 0.  1.
          1   -1    0    0  501    0  0.00000000000E+00 -0.00000000000E+00 -0.35224514364E+03  0.35224514364E+03  0.00000000000E+00 0. -1.
         25    2    1    2    0    0 -0.31428232534E+02 -0.97130232069E+02 -0.27629687118E+03  0.32000024438E+03  0.12505270728E+03 0.  0.
          5    1    3    3  502    0 -0.34164231112E+02 -0.87677016556E+02 -0.80477778711E+02  0.12388946358E+03  0.41800000000E+01 0. -1.
         -5    1    3    3    0  502  0.27359985782E+01 -0.94532155122E+01 -0.19581909247E+03  0.19611078080E+03  0.41800000000E+01 0. -1.
        -11    1    1    2    0    0 -0.81768718381E+01  0.31341628708E+02  0.47927774828E+02  0.57846612028E+02  0.00000000000E+00 0.  1.
         11    1    1    2    0    0  0.39605104372E+02  0.65788603360E+02 -0.19135923020E+02  0.79138411497E+02  0.00000000000E+00 0. -1.
</event>
<event>
 7    1  0.2943257E-009  0.1428302E+03  0.7561462E-02  0.1209571E+00
         -4   -1    0    0    0  501 -0.00000000000E+00  0.00000000000E+00  0.10324723803E+03  0.10324723803E+03  0.00000000000E+00 0.  1.
          4   -1    0    0  501    0  0.00000000000E+00 -0.00000000000E+00 -0.19866153384E+03  0.19866153384E+03  0.00000000000E+00 0. -1.
         25    2    1    2    0    0  0.91687395253E+02 -0.15085710510E+02 -0.57536764544E+02  0.16610893476E+03  0.12509013479E+03 0.  0.
          5    1    3    3  502    0  0.12135019117E+03  0.71464171592E+00 -0.39193943258E+02  0.12759317065E+03  0.41800000000E+01 0.  1.
         -5    1    3    3    0  502 -0.29662795913E+02 -0.15800352226E+02 -0.18342821287E+02  0.38515764105E+02  0.41800000000E+01 0.  1.
        -11    1    1    2    0    0 -0.11338484426E+00  0.36356476834E+02 -0.90253646725E+01  0.37460158454E+02  0.00000000000E+00 0. -1.
         11    1    1    2    0    0 -0.91574010409E+02 -0.21270766324E+02 -0.28852166585E+02  0.98339678660E+02  0.00000000000E+00 0.  1.
</event>
<event>
 7    1  0.2943257E-009  0.1213088E+03  0.7561462E-02  0.1240953E+00
          2   -1    0    0  501    0  0.00000000000E+00  0.00000000000E+00  0.11237624075E+03  0.11237624075E+03  0.00000000000E+00 0. -1.
         -2   -1    0    0    0  501 -0.00000000000E+00 -0.00000000000E+00 -0.29188236566E+03  0.29188236566E+03  0.00000000000E+00 0.  1.
         25    2    1    2    0    0  0.89841854995E+02 -0.55603409613E+02  0.22098798636E+02  0.16522442381E+03  0.12508978876E+03 0.  0.
          5    1    3    3  502    0  0.99679675185E+02 -0.36536429886E+02  0.59596869017E+02  0.12182039054E+03  0.41800000000E+01 0. -1.
         -5    1    3    3    0  502 -0.98378201909E+01 -0.19066979728E+02 -0.37498070381E+02  0.43404033273E+02  0.41800000000E+01 0. -1.
        -11    1    1    2    0    0 -0.25034860368E+02  0.41064515174E+02 -0.14152844768E+03  0.14947688833E+03  0.00000000000E+00 0.  1.
         11    1    1    2    0    0 -0.64806994626E+02  0.14538894439E+02 -0.60076475864E+02  0.89557294266E+02  0.00000000000E+00 0. -1.
</event>
<event>
 7    1  0.2943257E-009  0.1220421E+03  0.7561462E-02  0.1239766E+00
         -1   -1    0    0    0  501 -0.00000000000E+00  0.00000000000E+00  0.14843655452E+03  0.14843655452E+03  0.00000000000E+00 0.  1.
          1   -1    0    0  501    0  0.00000000000E+00 -0.00000000000E+00 -0.11914699387E+03  0.11914699387E+03  0.00000000000E+00 0. -1.
         25    2    1    2    0    0 -0.68803515914E+02 -0.30931711655E+02  0.55550012584E+00  0.14607836902E+03  0.12509151341E+03 0.  0.
          5    1    3    3  502    0  0.20895079498E+02  0.29918261675E+02 -0.68105030868E+01  0.37357222611E+02  0.41800000000E+01 0.  1.
         -5    1    3    3    0  502 -0.89698595411E+02 -0.60849973330E+02  0.73660032126E+01  0.10872114641E+03  0.41800000000E+01 0.  1.
        -11    1    1    2    0    0 -0.91220946808E+01 -0.76709155514E+01 -0.18905027472E+02  0.22348503764E+02  0.00000000000E+00 0. -1.
         11    1    1    2    0    0  0.77925610594E+02  0.38602627206E+02  0.47639087991E+02  0.99156675612E+02  0.00000000000E+00 0.  1.
</event>
<event>
 7    1  0.2943257E-009  0.1010379E+03  0.7561462E-02  0.1278128E+00
         -2   -1    0    0    0  501 -0.00000000000E+00  0.00000000000E+00  0.14318353004E+02  0.14318353004E+02  0.00000000000E+00 0.  1.
          2   -1    0    0  501    0  0.00000000000E+00 -0.00000000000E+00 -0.11410280897E+04  0.11410280897E+04  0.00000000000E+00 0. -1.
         25    2    1    2    0    0  0.64163421617E+02 -0.91507293030E+01 -0.68683613725E+03  0.70113636358E+03  0.12509052878E+03 0.  0.
          5    1    3    3  502    0  0.17715493003E+02  0.26181382062E+02 -0.37734355760E+02  0.49403010674E+02  0.41800000000E+01 0.  1.
         -5    1    3    3    0  502  0.46447928613E+02 -0.35332111365E+02 -0.64910178149E+03  0.65173335291E+03  0.41800000000E+01 0.  1.
        -11    1    1    2    0    0 -0.37841631176E+02  0.50231586211E+02 -0.28395088041E+03  0.29083208865E+03  0.00000000000E+00 0.  1.
         11    1    1    2    0    0 -0.26321790441E+02 -0.41080856908E+02 -0.15592271899E+03  0.16337799042E+03  0.00000000000E+00 0. -1.
</event>
<event>
 7    1  0.2943257E-009  0.1047513E+03  0.7561462E-02  0.1270610E+00
          2   -1    0    0  501    0  0.00000000000E+00  0.00000000000E+00  0.11777930925E+04  0.11777930925E+04  0.00000000000E+00 0. -1.
         -2   -1    0    0    0  501 -0.00000000000E+00 -0.00000000000E+00 -0.12922601827E+02  0.12922601827E+02  0.00000000000E+00 0.  1.
         25    2    1    2    0    0 -0.11692306125E+02 -0.56091624792E+02  0.77150110490E+03  0.78367331274E+03  0.12508767267E+03 0.  0.
          5    1    3    3  502    0  0.33047358333E+02  0.23866343789E+00  0.60789791149E+02  0.69318510954E+02  0.41800000000E+01 0. -1.
         -5    1    3    3    0  502 -0.44739664458E+02 -0.56330288230E+02  0.71071131375E+03  0.71435480179E+03  0.41800000000E+01 0. -1.
        -11    1    1    2    0    0 -0.14261436592E+02 -0.19529865706E+02  0.10878567315E+03  0.11144113653E+03  0.00000000000E+00 0. -1.
         11    1    1    2    0    0  0.25953742717E+02  0.75621490498E+02  0.28458371264E+03  0.29560124507E+03  0.00000000000E+00 0.  1.
</event>
<event>
 7    1  0.2943257E-009  0.1780514E+03  0.7561462E-02  0.1169702E+00
         -1   -1    0    0    0  501 -0.00000000000E+00  0.00000000000E+00  0.19720561270E+02  0.19720561270E+02  0.00000000000E+00 0.  1.
          1   -1    0    0  501    0  0.00000000000E+00 -0.00000000000E+00 -0.17265530310E+04  0.17265530310E+04  0.00000000000E+00 0. -1.
         25    2    1    2    0    0  0.12659270424E+03 -0.74124254654E+02 -0.98048909923E+03  0.99926338125E+03  0.12509321925E+03 0.  0.
          5    1    3    3  502    0  0.95228403908E+02 -0.10920066121E+03 -0.77192643020E+03  0.78541779924E+03  0.41800000000E+01 0.  1.
         -5    1    3    3    0  502  0.31364300330E+02  0.35076406559E+02 -0.20856266903E+03  0.21384558201E+03  0.41800000000E+01 0.  1.
        -11    1    1    2    0    0 -0.44261560738E+01  0.35516176673E+02 -0.73960255028E+02  0.82165132427E+02  0.00000000000E+00 0.  1.
         11    1    1    2    0    0 -0.12216654816E+03  0.38608077981E+02 -0.65238311546E+03  0.66484507858E+03  0.00000000000E+00 0. -1.
</event>
<event>
 7    1  0.2943257E-009  0.1236887E+03  0.7561462E-02  0.1237133E+00
         -1   -1    0    0    0  501 -0.00000000000E+00  0.00000000000E+00  0.10612502352E+03  0.10612502352E+03  0.00000000000E+00 0.  1.
          1   -1    0    0  501    0  0.00000000000E+00 -0.00000000000E+00 -0.26879078662E+03  0.26879078662E+03  0.00000000000E+00 0. -1.
         25    2    1    2    0    0 -0.10902938283E+03  0.37882265421E+02 -0.22165016463E+02  0.17164379627E+03  0.12509129661E+03 0.  0.
          5    1    3    3  502    0 -0.52911737865E+02  0.40075631288E+02  0.47746535090E+02  0.81871315124E+02  0.41800000000E+01 0.  1.
         -5    1    3    3    0  502 -0.56117644963E+02 -0.21933658664E+01 -0.69911551553E+02  0.89772481143E+02  0.41800000000E+01 0.  1.
        -11    1    1    2    0    0  0.99813612225E+02 -0.16364431883E+02 -0.14749205477E+03  0.17884199182E+03  0.00000000000E+00 0. -1.
         11    1    1    2    0    0  0.92157706034E+01 -0.21517833539E+02  0.69913081322E+01  0.24430022051E+02  0.00000000000E+00 0.  1.
</event>
<event>
 6    1  0.2943257E-009  0.1217688E+03  0.7561462E-02  0.1240207E+00
         -2   -1    0    0    0  501 -0.00000000000E+00  0.00000000000E+00  0.24498839340E+03  0.24498839340E+03  0.00000000000E+00 0.  1.
          2   -1    0    0  501    0  0.00000000000E+00 -0.00000000000E+00 -0.64580611610E+02  0.64580611610E+02  0.00000000000E+00 0. -1.
          5    1    1    2  502    0 -0.14333771674E+02 -0.36643479793E+02  0.24454800158E+02  0.46515709954E+02  0.41800000000E+01 0.  1.
         -5    1    1    2    0  502  0.57934173420E+02  0.77927096330E+02  0.10643905068E+03  0.14413793637E+03  0.41800000000E+01 0.  1.
        -11    1    1    2    0    0 -0.51438101434E+02  0.12082033314E+02  0.15174391454E+02  0.54973775240E+02  0.00000000000E+00 0. -1.
         11    1    1    2    0    0  0.78376996888E+01 -0.53365649852E+02  0.34339539508E+02  0.63941583450E+02  0.00000000000E+00 0.  1.
</event>
<event>
 7    1  0.2943257E-009  0.1782045E+03  0.7561462E-02  0.1169552E+00
         -2   -1    0    0    0  501 -0.00000000000E+00  0.00000000000E+00  0.59491076655E+03  0.59491076655E+03  0.00000000000E+00 0.  1.
          2   -1    0    0  501    0  0.00000000000E+00 -0.00000000000E+00 -0.66975280003E+02  0.66975280003E+02  0.00000000000E+00 0. -1.
         25    2    1    2    0    0  0.12933989327E+03 -0.81814738930E+02  0.38929111191E+03  0.43659824883E+03  0.12509197246E+03 0.  0.
          5    1    3    3  502    0  0.10533891194E+03  0.47935478073E+00  0.15842642944E+03  0.19029693138E+03  0.41800000000E+01 0.  1.
         -5    1    3    3    0  502  0.24000981330E+02 -0.82294093711E+02  0.23086468247E+03  0.24630131745E+03  0.41800000000E+01 0.  1.
        -11    1    1    2    0    0 -0.34148649081E+02  0.57562290195E+02  0.98682295263E+02  0.11923817713E+03  0.00000000000E+00 0.  1.
         11    1    1    2    0    0 -0.95191244190E+02  0.24252448735E+02  0.39962079377E+02  0.10604962059E+03  0.00000000000E+00 0. -1.
</event>
<event>
 7    1  0.2943257E-009  0.5932093E+02  0.7561462E-02  0.1400704E+00
         -2   -1    0    0    0  501 -0.00000000000E+00  0.00000000000E+00  0.85257029214E+02  0.85257029214E+02  0.00000000000E+00 0.  1.
          2   -1    0    0  501    0  0.00000000000E+00 -0.00000000000E+00 -0.14866440942E+03  0.14866440942E+03  0.00000000000E+00 0. -1.
         25    2    1    2    0    0 -0.18821255165E+02  0.96784743847E+01 -0.20340567616E+02  0.12848920713E+03  0.12509126726E+03 0.  0.
          5    1    3    3  502    0  0.21131534902E+02  0.23753781896E+02 -0.61449833647E+02  0.69313334770E+02  0.41800000000E+01 0. -1.
         -5    1    3    3    0  502 -0.39952790066E+02 -0.14075307512E+02  0.41109266031E+02  0.59175872357E+02  0.41800000000E+01 0. -1.
        -11    1    1    2    0    0  0.10641663167E+02  0.14784323844E+02 -0.67492993890E+02  0.69907978448E+02  0.00000000000E+00 0. -1.
         11    1    1    2    0    0  0.81795919981E+01 -0.24462798228E+02  0.24426181300E+02  0.35524253058E+02  0.00000000000E+00 0.  1.
</event>
<event>
 7    1  0.2943257E-009  0.1304700E+03  0.7561462E-02  0.1226760E+00
         -2   -1    0    0    0  501 -0.00000000000E+00  0.00000000000E+00  0.23215922451E+02  0.23215922451E+02  0.00000000000E+00 0.  1.
          2   -1    0    0  501    0  0.00000000000E+00 -0.00000000000E+00 -0.84437781389E+03  0.84437781389E+03  0.00000000000E+00 0. -1.
         25    2    1    2    0    0  0.65512252924E+02  0.54964628522E+02 -0.54036460039E+03  0.56120416228E+03  0.12507295767E+03 0.  0.
          5    1    3    3  502    0  0.88194542454E+02  0.68527985630E+02 -0.50287418274E+03  0.51514490990E+03  0.41800000000E+01 0. -1.
         -5    1    3    3    0  502 -0.22682289530E+02 -0.13563357109E+02 -0.37490417651E+02  0.46059252382E+02  0.41800000000E+01 0. -1.
        -11    1    1    2    0    0  0.21804330902E+02 -0.76705759923E+01 -0.59583054342E+02  0.63909365095E+02  0.00000000000E+00 0.  1.
         11    1    1    2    0    0 -0.87316583826E+02 -0.47294052529E+02 -0.22121423671E+03  0.24248020896E+03  0.00000000000E+00 0. -1.
</event>
<event>
 7    1  0.2943257E-009  0.8450882E+02  0.7561462E-02  0.1316722E+00
          1   -1    0    0  501    0  0.00000000000E+00  0.00000000000E+00  0.13009387127E+03  0.13009387127E+03  0.00000000000E+00 0. -1.
         -1   -1    0    0    0  501 -0.00000000000E+00 -0.00000000000E+00 -0.11196844223E+03  0.11196844223E+03  0.00000000000E+00 0.  1.
         25    2    1    2    0    0  0.35735120045E+02 -0.15138103375E+02 -0.30401073905E+02  0.13445318488E+03  0.12508905888E+03 0.  0.
          5    1    3    3  502    0 -0.77367411452E+01  0.16735182417E+02 -0.66702913916E+02  0.69330185482E+02  0.41800000000E+01 0. -1.
         -5    1    3    3    0  502  0.43471861190E+02 -0.31873285792E+02  0.36301840012E+02  0.65122999399E+02  0.41800000000E+01 0. -1.
        -11    1    1    2    0    0 -0.65288497972E+02  0.10016743987E+02  0.33303589649E+02  0.73973320941E+02  0.00000000000E+00 0.  1.
         11    1    1    2    0    0  0.29553377927E+02  0.51213593879E+01  0.15222913295E+02  0.33635807677E+02  0.00000000000E+00 0. -1.
</event>
<event>
 7    1  0.2943257E-009  0.9439174E+02  0.7561462E-02  0.1292552E+00
         -1   -1    0    0    0  501 -0.00000000000E+00  0.00000000000E+00  0.20172580581E+03  0.20172580581E+03  0.00000000000E+00 0.  1.
          1   -1    0    0  501    0  0.00000000000E+00 -0.00000000000E+00 -0.62295693298E+02  0.62295693298E+02  0.00000000000E+00 0. -1.
         25    2    1    2    0    0 -0.25813183448E+02  0.11514096580E+01  0.10275680525E+03  0.16392777985E+03  0.12508281176E+03 0.  0.
          5    1    3    3  502    0 -0.67788628360E+02 -0.20832406240E+02  0.30255891896E+02  0.77215145400E+02  0.41800000000E+01 0. -1.
         -5    1    3    3    0  502  0.41975444912E+02  0.21983815898E+02  0.72500913353E+02  0.86712634454E+02  0.41800000000E+01 0. -1.
        -11    1    1    2    0    0 -0.19853468980E+02  0.11296488234E+02  0.46449189820E+02  0.51761936902E+02  0.00000000000E+00 0.  1.
         11    1    1    2    0    0  0.45666652428E+02 -0.12447897892E+02 -0.97758825544E+01  0.48331782355E+02  0.00000000000E+00 0. -1.
</event>
<event>
 7    1  0.2943257E-009  0.2814627E+03  0.7561462E-02  0.1094893E+00
          1   -1    0    0  501    0  0.00000000000E+00  0.00000000000E+00  0.19312796968E+03  0.19312796968E+03  0.00000000000E+00 0. -1.
         -1   -1    0    0    0  501 -0.00000000000E+00 -0.00000000000E+00 -0.48669285106E+03  0.48669285106E+03  0.00000000000E+00 0.  1.
         25    2    1    2    0    0 -0.25527339120E+03 -0.10540012704E+03 -0.23432313783E+03  0.38317923063E+03  0.12508116896E+03 0.  0.
          5    1    3    3  502    0 -0.93819808683E+02 -0.56985199643E+02 -0.17064926290E+03  0.20294854719E+03  0.41800000000E+01 0.  1.
         -5    1    3    3    0  502 -0.16145358252E+03 -0.48414927401E+02 -0.63673874932E+02  0.18023068344E+03  0.41800000000E+01 0.  1.
        -11    1    1    2    0    0  0.25226422177E+03  0.88555278794E+02 -0.39079804436E+02  0.27019716154E+03  0.00000000000E+00 0. -1.
         11    1    1    2    0    0  0.30091694297E+01  0.16844848250E+02 -0.20161939116E+02  0.26444428566E+02  0.00000000000E+00 0.  1.
</event>
<event>
 7    1  0.2943257E-009  0.1015461E+03  0.7561462E-02  0.1277078E+00
          3   -1    0    0  501    0  0.00000000000E+00  0.00000000000E+00  0.70473578451E+02  0.70473578451E+02  0.00000000000E+00 0. -1.
         -3   -1    0    0    0  501 -0.00000000000E+00 -0.00000000000E+00 -0.31392153740E+03  0.31392153740E+03  0.00000000000E+00 0.  1.
         25    2    1    2    0    0 -0.42410361455E+02 -0.22366530209E+02 -0.24271417544E+03  0.27723453224E+03  0.12509961821E+03 0.  0.
          5    1    3    3  502    0  0.20021115909E+02  0.24679096986E+02 -0.16066202723E+03  0.16382814869E+03  0.41800000000E+01 0. -1.
         -5    1    3    3    0  502 -0.62431477364E+02 -0.47045627194E+02 -0.82052148211E+02  0.11340638355E+03  0.41800000000E+01 0. -1.
        -11    1    1    2    0    0  0.61670928816E+02 -0.19904500702E+01  0.25251639491E+02  0.66670163113E+02  0.00000000000E+00 0. -1.
         11    1    1    2    0    0 -0.19260567360E+02  0.24356980279E+02 -0.25985422996E+02  0.40490420492E+02  0.00000000000E+00 0.  1.
</event>
<event>
 7    1  0.2943257E-009  0.1184727E+03  0.7561462E-02  0.1245638E+00
         -2   -1    0    0    0  501 -0.00000000000E+00  0.00000000000E+00  0.16304886444E+03  0.16304886444E+03  0.00000000000E+00 0.  1.
          2   -1    0    0  501    0  0.00000000000E+00 -0.00000000000E+00 -0.11603009050E+03  0.11603009050E+03  0.00000000000E+00 0. -1.
         25    2    1    2    0    0 -0.21809894306E+02  0.61966941052E+02  0.20224432436E+02  0.14270814442E+03  0.12506403777E+03 0.  0.
          5    1    3    3  502    0 -0.67274785363E+02  0.63225906837E+01  0.20478174370E+02  0.70729766889E+02  0.41800000000E+01 0. -1.
         -5    1    3    3    0  502  0.45464891057E+02  0.55644350368E+02 -0.25374193359E+00  0.71978377529E+02  0.41800000000E+01 0. -1.
        -11    1    1    2    0    0 -0.23455296671E+02 -0.41191678703E+01  0.53223247283E+02  0.58308082950E+02  0.00000000000E+00 0.  1.
         11    1    1    2    0    0  0.45265190977E+02 -0.57847773181E+02 -0.26428905778E+02  0.78062727578E+02  0.00000000000E+00 0. -1.
</event>
<event>
 7    1  0.2943257E-009  0.1044484E+03  0.7561462E-02  0.1271210E+00
          2   -1    0    0  501    0  0.00000000000E+00  0.00000000000E+00  0.10509419344E+03  0.10509419344E+03  0.00000000000E+00 0.  1.
         -2   -1    0    0    0  501 -0.00000000000E+00 -0.00000000000E+00 -0.25694102071E+03  0.25694102071E+03  0.00000000000E+00 0. -1.
         25    2    1    2    0    0 -0.54223805203E+02 -0.10977942304E+02 -0.20177377861E+03  0.24376464169E+03  0.12509119287E+03 0.  0.
          5    1    3    3  502    0 -0.38733751735E+02 -0.56468594542E+02 -0.51059670159E+02  0.85519401365E+02  0.41800000000E+01 0.  1.
         -5    1    3    3    0  502 -0.15490053467E+02  0.45490652238E+02 -0.15071410845E+03  0.15824524032E+03  0.41800000000E+01 0.  1.
        -11    1    1    2    0    0 -0.92548239887E+01 -0.19541113869E+02 -0.11785796257E+02  0.24625431808E+02  0.00000000000E+00 0. -1.
         11    1    1    2    0    0  0.63478629191E+02  0.30519056173E+02  0.61712747599E+02  0.93645140664E+02  0.00000000000E+00 0.  1.
</event>
<event>
 7    1  0.2943257E-009  0.2617567E+03  0.7561462E-02  0.1106092E+00
         -1   -1    0    0    0  501 -0.00000000000E+00  0.00000000000E+00  0.92608121906E+02  0.92608121906E+02  0.00000000000E+00 0.  1.
          1   -1    0    0  501    0  0.00000000000E+00 -0.00000000000E+00 -0.94147523084E+03  0.94147523084E+03  0.00000000000E+00 0. -1.
         25    2    1    2    0    0  0.43997920801E+00 -0.25718045063E+03 -0.60008303113E+03  0.66474708352E+03  0.12508822097E+03 0.  0.
          5    1    3    3  502    0 -0.10093588826E+02 -0.14183459878E+03 -0.18258448946E+03  0.23145950431E+03  0.41800000000E+01 0. -1.
         -5    1    3    3    0  502  0.10533568034E+02 -0.11534585186E+03 -0.41749854168E+03  0.43328757921E+03  0.41800000000E+01 0. -1.
        -11    1    1    2    0    0 -0.24408892446E+02  0.40006596372E+02 -0.14676592063E+02  0.49109308062E+02  0.00000000000E+00 0.  1.
         11    1    1    2    0    0  0.23968913238E+02  0.21717385426E+03 -0.23410748573E+03  0.32022696116E+03  0.00000000000E+00 0. -1.
</event>
<event>
 7    1  0.2943257E-009  0.1086627E+03  0.7561462E-02  0.1263067E+00
         -2   -1    0    0    0  501 -0.00000000000E+00  0.00000000000E+00  0.22174268195E+02  0.22174268195E+02  0.00000000000E+00 0.  1.
          2   -1    0    0  501    0  0.00000000000E+00 -0.00000000000E+00 -0.90314341560E+03  0.90314341560E+03  0.00000000000E+00 0. -1.
         25    2    1    2    0    0 -0.59664537930E+02 -0.73013374781E+02 -0.54964339133E+03  0.57152863228E+03  0.12508521053E+03 0.  0.
          5    1    3    3  502    0 -0.31694187130E+02 -0.38759463305E+02 -0.50851808114E+03  0.51099405940E+03  0.41800000000E+01 0. -1.
         -5    1    3    3    0  502 -0.27970350800E+02 -0.34253911476E+02 -0.41125310193E+02  0.60534572880E+02  0.41800000000E+01 0. -1.
        -11    1    1    2    0    0 -0.16004869659E+02  0.33887221189E+02 -0.78264429610E+02  0.86774538632E+02  0.00000000000E+00 0. -1.
         11    1    1    2    0    0  0.75669407589E+02  0.39126153593E+02 -0.25306132646E+03  0.26701451288E+03  0.00000000000E+00 0.  1.
</event>
<event>
 7    1  0.2943257E-009  0.3191297E+03  0.7561462E-02  0.1076051E+00
          1   -1    0    0  501    0  0.00000000000E+00  0.00000000000E+00  0.10810068814E+04  0.10810068814E+04  0.00000000000E+00 0. -1.
         -1   -1    0    0    0  501 -0.00000000000E+00 -0.00000000000E+00 -0.99866979113E+02  0.99866979113E+02  0.00000000000E+00 0.  1.
         25    2    1    2    0    0 -0.24824010142E+03  0.17914275143E+03  0.58686891123E+03  0.67363112538E+03  0.12509396775E+03 0.  0.
          5    1    3    3  502    0 -0.16297247420E+03  0.18055340454E+03  0.46561036699E+03  0.52532851197E+03  0.41800000000E+01 0.  1.
         -5    1    3    3    0  502 -0.85267627221E+02 -0.14106531041E+01  0.12125854424E+03  0.14830261341E+03  0.41800000000E+01 0.  1.
        -11    1    1    2    0    0  0.20222973150E+03 -0.12173104349E+03  0.24158611120E+03  0.33775606638E+03  0.00000000000E+00 0.  1.
         11    1    1    2    0    0  0.46010369914E+02 -0.57411707945E+02  0.15268487990E+03  0.16948666879E+03  0.00000000000E+00 0. -1.
</event>
<event>
 7    1  0.2943257E-009  0.1153861E+03  0.7561462E-02  0.1250909E+00
          1   -1    0    0  501    0  0.00000000000E+00  0.00000000000E+00  0.62577741633E+03  0.62577741633E+03  0.00000000000E+00 0. -1.
         -1   -1    0    0    0  501 -0.00000000000E+00 -0.00000000000E+00 -0.35600080533E+02  0.35600080533E+02  0.00000000000E+00 0.  1.
         25    2    1    2    0    0 -0.31695759273E+02  0.92442891226E+02  0.25107195700E+03  0.29704344466E+03  0.12508945250E+03 0.  0.
          5    1    3    3  502    0 -0.41301057842E+02  0.17946598860E+02  0.12542991296E+02  0.46932470851E+02  0.41800000000E+01 0. -1.
         -5    1    3    3    0  502  0.96052985690E+01  0.74496292367E+02  0.23852896571E+03  0.25011097380E+03  0.41800000000E+01 0. -1.
        -11    1    1    2    0    0 -0.74029865833E+01 -0.57207945936E+02  0.27692221879E+03  0.28286652073E+03  0.00000000000E+00 0. -1.
         11    1    1    2    0    0  0.39098745857E+02 -0.35234945290E+02  0.62183160001E+02  0.81467531477E+02  0.00000000000E+00 0.  1.
</event>
<event>
 7    1  0.2943257E-009  0.1477257E+03  0.7561462E-02  0.1203296E+00
          1   -1    0    0  501    0  0.00000000000E+00  0.00000000000E+00  0.17201466518E+03  0.17201466518E+03  0.00000000000E+00 0. -1.
         -1   -1    0    0    0  501 -0.00000000000E+00 -0.00000000000E+00 -0.21736745090E+03  0.21736745090E+03  0.00000000000E+00 0.  1.
         25    2    1    2    0    0  0.74843620517E+02 -0.11350253395E+03 -0.10911422521E+03  0.21456341219E+03  0.12508857247E+03 0.  0.
          5    1    3    3  502    0  0.59208512219E+02 -0.11405827618E+03 -0.27666291616E+02  0.13152123166E+03  0.41800000000E+01 0.  1.
         -5    1    3    3    0  502  0.15635108298E+02  0.55574223064E+00 -0.81447933598E+02  0.83042180536E+02  0.41800000000E+01 0.  1.
        -11    1    1    2    0    0 -0.36398135968E+02  0.10523905496E+03  0.15287319944E+02  0.11240011184E+03  0.00000000000E+00 0.  1.
         11    1    1    2    0    0 -0.38445484549E+02  0.82634789933E+01  0.48474119546E+02  0.62418592046E+02  0.00000000000E+00 0. -1.
</event>
<event>
 7    1  0.2943257E-009  0.1085161E+03  0.7561462E-02  0.1263343E+00
          2   -1    0    0  501    0  0.00000000000E+00  0.00000000000E+00  0.61085251671E+02  0.61085251671E+02  0.00000000000E+00 0. -1.
         -2   -1    0    0    0  501 -0.00000000000E+00 -0.00000000000E+00 -0.23773660448E+03  0.23773660448E+03  0.00000000000E+00 0.  1.
         25    2    1    2    0    0 -0.50201075324E+02  0.11545483814E+02 -0.10504028700E+03  0.17127217840E+03  0.12508897250E+03 0.  0.
          5    1    3    3  502    0 -0.55624219337E+02 -0.44583268491E+02 -0.85609880706E+02  0.11148204196E+03  0.41800000000E+01 0. -1.
         -5    1    3    3    0  502  0.54231440133E+01  0.56128752305E+02 -0.19430406294E+02  0.59790136436E+02  0.41800000000E+01 0. -1.
        -11    1    1    2    0    0  0.23384118787E+02 -0.42263806350E+02 -0.38364117723E+01  0.48453734572E+02  0.00000000000E+00 0. -1.
         11    1    1    2    0    0  0.26816956536E+02  0.30718322536E+02 -0.67774654038E+02  0.79095943178E+02  0.00000000000E+00 0.  1.
</event>
<event>
 7    1  0.2943257E-009  0.1373765E+03  0.7561462E-02  0.1216903E+00
          2   -1    0    0  501    0  0.00000000000E+00  0.00000000000E+00  0.71392933450E+03  0.71392933450E+03  0.00000000000E+00 0.  1.
         -2   -1    0    0    0  501 -0.00000000000E+00 -0.00000000000E+00 -0.29123716649E+02  0.29123716649E+02  0.00000000000E+00 0. -1.
         25    2    1    2    0    0  0.93010691899E+02  0.13683079025E+02  0.34518934071E+03  0.37899955284E+03  0.12508702829E+03 0.  0.
          5    1    3    3  502    0  0.49118600434E+02 -0.47527391228E+02  0.23985832124E+03  0.24944132876E+03  0.41800000000E+01 0. -1.
         -5    1    3    3    0  502  0.43892091465E+02  0.61210470253E+02  0.10533101947E+03  0.12955822407E+03  0.41800000000E+01 0. -1.
        -11    1    1    2    0    0 -0.51448804851E+02 -0.52831547182E+02  0.20336679005E+03  0.21632430098E+03  0.00000000000E+00 0.  1.
         11    1    1    2    0    0 -0.41561887048E+02  0.39148468157E+02  0.13624948708E+03  0.14772919733E+03  0.00000000000E+00 0. -1.
</event>
<event>
 7    1  0.2943257E-009  0.1721059E+03  0.7561462E-02  0.1175669E+00
          2   -1    0    0  501    0  0.00000000000E+00  0.00000000000E+00  0.22557300979E+03  0.22557300979E+03  0.00000000000E+00 0. -1.
         -2   -1    0    0    0  501 -0.00000000000E+00 -0.00000000000E+00 -0.14970157062E+03  0.14970157062E+03  0.00000000000E+00 0.  1.
         25    2    1    2    0    0 -0.44299518078E+02  0.12568958466E+03 -0.25134363415E+02  0.18449485731E+03  0.12508515961E+03 0.  0.
          5    1    3    3  502    0  0.20291679369E+02  0.11523850249E+03 -0.12846085036E+02  0.11778862003E+03  0.41800000000E+01 0. -1.
         -5    1    3    3    0  502 -0.64591197447E+02  0.10451082169E+02 -0.12288278379E+02  0.66706237277E+02  0.41800000000E+01 0. -1.
        -11    1    1    2    0    0  0.54425228696E+02 -0.13637862749E+03  0.88375824851E+02  0.17138121827E+03  0.00000000000E+00 0.  1.
         11    1    1    2    0    0 -0.10125710618E+02  0.10689042832E+02  0.12629977740E+02  0.19398504837E+02  0.00000000000E+00 0. -1.
</event>
<event>
 7    1  0.2943257E-009  0.1530240E+03  0.7561462E-02  0.1196806E+00
          2   -1    0    0  501    0  0.00000000000E+00  0.00000000000E+00  0.66551757184E+03  0.66551757184E+03  0.00000000000E+00 0. -1.
         -2   -1    0    0    0  501 -0.00000000000E+00 -0.00000000000E+00 -0.42328139696E+02  0.42328139696E+02  0.00000000000E+00 0.  1.
         25    2    1    2    0    0  0.51020636822E+02 -0.10842406704E+03  0.29481190700E+03  0.34193638399E+03  0.12509015344E+03 0.  0.
          5    1    3    3  502    0  0.22569219883E+02 -0.12003065177E+03  0.28386077157E+03  0.30904876167E+03  0.41800000000E+01 0.  1.
         -5    1    3    3    0  502  0.28451416939E+02  0.11606584724E+02  0.10951135433E+02  0.32887622323E+02  0.41800000000E+01 0.  1.
        -11    1    1    2    0    0  0.23029707157E+02  0.60221501440E+02  0.82943368995E+02  0.10505521933E+03  0.00000000000E+00 0. -1.
         11    1    1    2    0    0 -0.74050343979E+02  0.48202565603E+02  0.24543415615E+03  0.26085410823E+03  0.00000000000E+00 0.  1.
</event>
<event>
 7    1  0.2943257E-009  0.1220878E+03  0.7561462E-02  0.1239692E+00
          2   -1    0    0  501    0  0.00000000000E+00  0.00000000000E+00  0.23362757212E+03  0.23362757212E+03  0.00000000000E+00 0. -1.
         -2   -1    0    0    0  501 -0.00000000000E+00 -0.00000000000E+00 -0.11507454425E+03  0.11507454425E+03  0.00000000000E+00 0.  1.
         25    2    1    2    0    0 -0.82473998639E+02 -0.40169007530E+02  0.15025393736E+03  0.21596063312E+03  0.12508892735E+03 0.  0.
          5    1    3    3  502    0 -0.10221600088E+03 -0.60457383391E+02  0.89367117650E+02  0.14868476774E+03  0.41800000000E+01 0. -1.
         -5    1    3    3    0  502  0.19742002236E+02  0.20288375861E+02  0.60886819715E+02  0.67275865378E+02  0.41800000000E+01 0. -1.
        -11    1    1    2    0    0  0.49869585604E+02  0.72438949822E+01 -0.60071311441E+02  0.78409259919E+02  0.00000000000E+00 0. -1.
         11    1    1    2    0    0  0.32604413036E+02  0.32925112548E+02  0.28370401949E+02  0.54332223334E+02  0.00000000000E+00 0.  1.
</event>
<event>
 7    1  0.2943257E-009  0.1712292E+03  0.7561462E-02  0.1176572E+00
         -2   -1    0    0    0  501 -0.00000000000E+00  0.00000000000E+00  0.35559548201E+03  0.35559548201E+03  0.00000000000E+00 0.  1.
          2   -1    0    0  501    0  0.00000000000E+00 -0.00000000000E+00 -0.10583357812E+03  0.10583357812E+03  0.00000000000E+00 0. -1.
         25    2    1    2    0    0  0.13713723938E+03 -0.85616146301E+02  0.13963203913E+03  0.24755321629E+03  0.12509493039E+03 0.  0.
          5    1    3    3  502    0  0.71949992231E+02 -0.10159224457E+02  0.12777203243E+03  0.14704820943E+03  0.41800000000E+01 0.  1.
         -5    1    3    3    0  502  0.65187247152E+02 -0.75456921844E+02  0.11860006701E+02  0.10050500686E+03  0.41800000000E+01 0.  1.
        -11    1    1    2    0    0 -0.11891621332E+03  0.92226819547E+02  0.11967197084E+03  0.19227124756E+03  0.00000000000E+00 0.  1.
         11    1    1    2    0    0 -0.18221026065E+02 -0.66106732465E+01 -0.95421060933E+01  0.21604596278E+02  0.00000000000E+00 0. -1.
</event>
<event>
 7    1  0.2943257E-009  0.1142058E+03  0.7561462E-02  0.1252974E+00
         -1   -1    0    0    0  501 -0.00000000000E+00  0.00000000000E+00  0.28822804983E+02  0.28822804983E+02  0.00000000000E+00 0.  1.
          1   -1    0    0  501    0  0.00000000000E+00 -0.00000000000E+00 -0.75760792807E+03  0.75760792807E+03  0.00000000000E+00 0. -1.
         25    2    1    2    0    0  0.74202485579E+02 -0.15096769693E+02 -0.57192229103E+03  0.59031943457E+03  0.12509199227E+03 0.  0.
          5    1    3    3  502    0  0.10296829787E+03  0.14743437563E+02 -0.42896405128E+03  0.44141530219E+03  0.41800000000E+01 0.  1.
         -5    1    3    3    0  502 -0.28765812295E+02 -0.29840207256E+02 -0.14295823976E+03  0.14890413238E+03  0.41800000000E+01 0.  1.
        -11    1    1    2    0    0 -0.66615379320E+02  0.97742557592E+00 -0.16513939767E+03  0.17807185287E+03  0.00000000000E+00 0. -1.
         11    1    1    2    0    0 -0.75871062597E+01  0.14119344117E+02  0.82765656137E+01  0.18039445614E+02  0.00000000000E+00 0.  1.
</event>
<event>
 7    1  0.2943257E-009  0.1207533E+03  0.7561462E-02  0.1241860E+00
          2   -1    0    0  501    0  0.00000000000E+00  0.00000000000E+00  0.18951387728E+03  0.18951387728E+03  0.00000000000E+00 0. -1.
         -2   -1    0    0    0  501 -0.00000000000E+00 -0.00000000000E+00 -0.10720455212E+03  0.10720455212E+03  0.00000000000E+00 0.  1.
         25    2    1    2    0    0  0.51171840722E+02  0.75874315517E+02  0.36997455171E+02  0.15935147489E+03  0.12509441163E+03 0.  0.
          5    1    3    3  502    0 -0.32092449696E+02  0.77803585250E+01 -0.18671331970E+02  0.38164778839E+02  0.41800000000E+01 0.  1.
         -5    1    3    3    0  502  0.83264290418E+02  0.68093956992E+02  0.55668787142E+02  0.12118669605E+03  0.41800000000E+01 0.  1.
        -11    1    1    2    0    0 -0.51546289744E+02 -0.41433943360E+02 -0.15090771183E+02  0.67834526782E+02  0.00000000000E+00 0.  1.
         11    1    1    2    0    0  0.37444902244E+00 -0.34440372157E+02  0.60402641169E+02  0.69532427735E+02  0.00000000000E+00 0. -1.
</event>
<event>
 7    1  0.2943257E-009  0.1293351E+03  0.7561462E-02  0.1228446E+00
          4   -1    0    0  501    0  0.00000000000E+00  0.00000000000E+00  0.14453244123E+03  0.14453244123E+03  0.00000000000E+00 0.  1.
         -4   -1    0    0    0  501 -0.00000000000E+00 -0.00000000000E+00 -0.13717726012E+03  0.13717726012E+03  0.00000000000E+00 0. -1.
         25    2    1    2    0    0  0.26813935035E+02  0.69384667807E+02 -0.49968606539E+02  0.15387083080E+03  0.12508457816E+03 0.  0.
          5    1    3    3  502    0  0.46775572150E+02 -0.21914262599E+02 -0.21271836186E+02  0.56019215185E+02  0.41800000000E+01 0. -1.
         -5    1    3    3    0  502 -0.19961637115E+02  0.91298930407E+02 -0.28696770353E+02  0.97851615614E+02  0.41800000000E+01 0. -1.
        -11    1    1    2    0    0  0.24053904632E+02 -0.55623111659E+02  0.38912088801E+02  0.72018549927E+02  0.00000000000E+00 0.  1.
         11    1    1    2    0    0 -0.50867839667E+02 -0.13761556148E+02  0.18411698853E+02  0.55820320625E+02  0.00000000000E+00 0. -1.
</event>
<event>
 7    1  0.2943257E-009  0.1654913E+03  0.7561462E-02  0.1182633E+00
          2   -1    0    0  501    0  0.00000000000E+00  0.00000000000E+00  0.37737613094E+03  0.37737613094E+03  0.00000000000E+00 0. -1.
         -2   -1    0    0    0  501 -0.00000000000E+00 -0.00000000000E+00 -0.11238756628E+03  0.11238756628E+03  0.00000000000E+00 0.  1.
         25    2    1    2    0    0  0.71782575631E+02 -0.11439809538E+03  0.60269076906E+01  0.18417956873E+03  0.12508448157E+03 0.  0.
          5    1    3    3  502    0  0.87409185497E+02 -0.23158211092E+02  0.12056592974E+02  0.91320875403E+02  0.41800000000E+01 0.  1.
         -5    1    3    3    0  502 -0.15626609866E+02 -0.91239884293E+02 -0.60296852830E+01  0.92858693326E+02  0.41800000000E+01 0.  1.
        -11    1    1    2    0    0 -0.98392936581E+01  0.72153376565E+02  0.64909259409E+02  0.97550670968E+02  0.00000000000E+00 0.  1.
         11    1    1    2    0    0 -0.61943281973E+02  0.42244718820E+02  0.19405239756E+03  0.20803345752E+03  0.00000000000E+00 0. -1.
</event>
<event>
 7    1  0.2943257E-009  0.1349039E+03  0.7561462E-02  0.1220355E+00
          2   -1    0    0  501    0  0.00000000000E+00  0.00000000000E+00  0.37517266603E+03  0.37517266603E+03  0.00000000000E+00 0. -1.
         -2   -1    0    0    0  501 -0.00000000000E+00 -0.00000000000E+00 -0.65661018508E+02  0.65661018508E+02  0.00000000000E+00 0.  1.
         25    2    1    2    0    0  0.66807567401E+02 -0.87739148886E+02  0.12768249096E+03  0.21002610705E+03  0.12508692113E+03 0.  0.
          5    1    3    3  502    0  0.86506187758E+02 -0.76601423687E+02  0.44783626998E+02  0.12399251703E+03  0.41800000000E+01 0.  1.
         -5    1    3    3    0  502 -0.19698620358E+02 -0.11137725198E+02  0.82898863962E+02  0.86033590026E+02  0.41800000000E+01 0.  1.
        -11    1    1    2    0    0 -0.55302973503E+02  0.14686085030E+02  0.12522264393E+03  0.13767647048E+03  0.00000000000E+00 0. -1.
         11    1    1    2    0    0 -0.11504593898E+02  0.73053063855E+02  0.56606512635E+02  0.93131107006E+02  0.00000000000E+00 0.  1.
</event>
<event>
 7    1  0.2943257E-009  0.1707122E+03  0.7561462E-02  0.1177107E+00
         -1   -1    0    0    0  501 -0.00000000000E+00  0.00000000000E+00  0.20480110510E+02  0.20480110510E+02  0.00000000000E+00 0.  1.
          1   -1    0    0  501    0  0.00000000000E+00 -0.00000000000E+00 -0.21594285634E+04  0.21594285634E+04  0.00000000000E+00 0. -1.
         25    2    1    2    0    0  0.12871208890E+03  0.81054382395E+02 -0.16083031574E+04  0.16203158712E+04  0.12509141312E+03 0.  0.
          5    1    3    3  502    0  0.14843007245E+03  0.65641199561E+02 -0.15132572659E+04  0.15219412863E+04  0.41800000000E+01 0. -1.
         -5    1    3    3    0  502 -0.19717983548E+02  0.15413182835E+02 -0.95045891444E+02  0.98374584933E+02  0.41800000000E+01 0. -1.
        -11    1    1    2    0    0 -0.91167955087E+02 -0.45087953094E+02 -0.46426404697E+03  0.47527426278E+03  0.00000000000E+00 0. -1.
         11    1    1    2    0    0 -0.37544133811E+02 -0.35966429301E+02 -0.66381248502E+02  0.84318539913E+02  0.00000000000E+00 0.  1.
</event>
<event>
 7    1  0.2943257E-009  0.9828377E+02  0.7561462E-02  0.1283947E+00
         -2   -1    0    0    0  501 -0.00000000000E+00  0.00000000000E+00  0.58291475244E+02  0.58291475244E+02  0.00000000000E+00 0.  1.
          2   -1    0    0  501    0  0.00000000000E+00 -0.00000000000E+00 -0.57422589468E+03  0.57422589468E+03  0.00000000000E+00 0. -1.
         25    2    1    2    0    0  0.44919513538E+02 -0.54115434734E+02 -0.48874547527E+03  0.50937886532E+03  0.12509374831E+03 0.  0.
          5    1    3    3  502    0  0.59185524661E+02 -0.77309004372E+02 -0.45731849495E+03  0.46758666224E+03  0.41800000000E+01 0. -1.
         -5    1    3    3    0  502 -0.14266011123E+02  0.23193569638E+02 -0.31426980324E+02  0.41792203079E+02  0.41800000000E+01 0. -1.
        -11    1    1    2    0    0 -0.90276142460E+01  0.20459559628E+02 -0.59977732574E+02  0.64011091257E+02  0.00000000000E+00 0. -1.
         11    1    1    2    0    0 -0.35891899292E+02  0.33655875106E+02  0.32788788408E+02  0.59127413347E+02  0.00000000000E+00 0.  1.
</event>
<event>
 7    1  0.2943257E-009  0.1472691E+03  0.7561462E-02  0.1203869E+00
         -1   -1    0    0    0  501 -0.00000000000E+00  0.00000000000E+00  0.46383098968E+02  0.46383098968E+02  0.00000000000E+00 0.  1.
          1   -1    0    0  501    0  0.00000000000E+00 -0.00000000000E+00 -0.76204060847E+03  0.76204060847E+03  0.00000000000E+00 0. -1.
         25    2    1    2    0    0  0.42895721266E+02 -0.11520762690E+03 -0.57672287426E+03  0.60280081524E+03  0.12508680568E+03 0.  0.
          5    1    3    3  502    0  0.10036370006E+02 -0.12961859827E+03 -0.51603242589E+03  0.53217351185E+03  0.41800000000E+01 0.  1.
         -5    1    3    3    0  502  0.32859351260E+02  0.14410971365E+02 -0.60690448373E+02  0.70627303393E+02  0.41800000000E+01 0.  1.
        -11    1    1    2    0    0 -0.49597438384E+02  0.97108267793E+02 -0.14837842779E+03  0.18413603504E+03  0.00000000000E+00 0. -1.
         11    1    1    2    0    0  0.67017171182E+01  0.18099359108E+02  0.94437925552E+01  0.21486857153E+02  0.00000000000E+00 0.  1.
</event>
<event>
 7    1  0.2943257E-009  0.1219469E+03  0.7561462E-02  0.1239919E+00
          2   -1    0    0  501    0  0.00000000000E+00  0.00000000000E+00  0.30928127897E+03  0.30928127897E+03  0.00000000000E+00 0.  1.
         -2   -1    0    0    0  501 -0.00000000000E+00 -0.00000000000E+00 -0.60799408907E+02  0.60799408907E+02  0.00000000000E+00 0. -1.
         25    2    1    2    0    0 -0.31071815080E+02 -0.51171460830E+02  0.21157542709E+03  0.25297427809E+03  0.12509135833E+03 0.  0.
          5    1    3    3  502    0 -0.12189955846E+02  0.38736476520E+02  0.34530474190E+02  0.53469016117E+02  0.41800000000E+01 0.  1.
         -5    1    3    3    0  502 -0.18881859234E+02 -0.89907937350E+02  0.17704495290E+03  0.19950526197E+03  0.41800000000E+01 0.  1.
        -11    1    1    2    0    0  0.53121007443E+02  0.65859104435E+02  0.29317594977E+02  0.89547665765E+02  0.00000000000E+00 0. -1.
         11    1    1    2    0    0 -0.22049192363E+02 -0.14687643605E+02  0.75888480018E+01  0.27558744030E+02  0.00000000000E+00 0.  1.
</event>
<event>
 7    1  0.2943257E-009  0.1056215E+03  0.7561462E-02  0.1268900E+00
          2   -1    0    0  501    0  0.00000000000E+00  0.00000000000E+00  0.43770080628E+03  0.43770080628E+03  0.00000000000E+00 0. -1.
         -2   -1    0    0    0  501 -0.00000000000E+00 -0.00000000000E+00 -0.42271802218E+02  0.42271802218E+02  0.00000000000E+00 0.  1.
         25    2    1    2    0    0 -0.46646182233E+02  0.44902777676E+02  0.30837391415E+03  0.33901977269E+03  0.12509120505E+03 0.  0.
          5    1    3    3  502    0 -0.16043938691E+01 -0.24895437510E+02  0.20398176870E+03  0.20554413455E+03  0.41800000000E+01 0.  1.
         -5    1    3    3    0  502 -0.45041788364E+02  0.69798215185E+02  0.10439214546E+03  0.13347563813E+03  0.41800000000E+01 0.  1.
        -11    1    1    2    0    0  0.69323360891E+02 -0.29378826754E+02  0.84765840772E+02  0.11337588627E+03  0.00000000000E+00 0. -1.
         11    1    1    2    0    0 -0.22677178659E+02 -0.15523950922E+02  0.22892491371E+01  0.27576949537E+02  0.00000000000E+00 0.  1.
</event>
<event>
 7    1  0.2943257E-009  0.2171510E+03  0.7561462E-02  0.1136025E+00
          1   -1    0    0  501    0  0.00000000000E+00  0.00000000000E+00  0.55430527512E+03  0.55430527512E+03  0.00000000000E+00 0. -1.
         -1   -1    0    0    0  501 -0.00000000000E+00 -0.00000000000E+00 -0.92916161212E+02  0.92916161212E+02  0.00000000000E+00 0.  1.
         25    2    1    2    0    0 -0.78081342101E+02  0.18110057581E+03  0.31443703113E+03  0.39167726538E+03  0.12508524744E+03 0.  0.
          5    1    3    3  502    0 -0.91068210327E+02  0.56335523580E+02  0.16169438437E+03  0.19398365005E+03  0.41800000000E+01 0.  1.
         -5    1    3    3    0  502  0.12986868226E+02  0.12476505223E+03  0.15274264675E+03  0.19769361533E+03  0.41800000000E+01 0.  1.
        -11    1    1    2    0    0  0.62246593598E+02 -0.17296488239E+03  0.15027742788E+03  0.23743376820E+03  0.00000000000E+00 0. -1.
         11    1    1    2    0    0  0.15834748502E+02 -0.81356934218E+01 -0.33253451015E+01  0.18110402746E+02  0.00000000000E+00 0.  1.
</event>
<event>
 7    1  0.2943257E-009  0.8463937E+02  0.7561462E-02  0.1316378E+00
          1   -1    0    0  501    0  0.00000000000E+00  0.00000000000E+00  0.29351682949E+02  0.29351682949E+02  0.00000000000E+00 0.  1.
         -1   -1    0    0    0  501 -0.00000000000E+00 -0.00000000000E+00 -0.57331108053E+03  0.57331108053E+03  0.00000000000E+00 0. -1.
         25    2    1    2    0    0  0.11053881686E+02  0.54375707178E+02 -0.40574418024E+03  0.42819878045E+03  0.12508776899E+03 0.  0.
          5    1    3    3  502    0  0.26388617931E+02 -0.64043060997E+01 -0.12881000650E+02  0.30344140632E+02  0.41800000000E+01 0. -1.
         -5    1    3    3    0  502 -0.15334736246E+02  0.60780013278E+02 -0.39286317959E+03  0.39785463982E+03  0.41800000000E+01 0. -1.
        -11    1    1    2    0    0 -0.32749088844E+02 -0.44218435789E+02 -0.14001697803E+03  0.15044110815E+03  0.00000000000E+00 0. -1.
         11    1    1    2    0    0  0.21695207158E+02 -0.10157271389E+02  0.18017606932E+01  0.24022874876E+02  0.00000000000E+00 0.  1.
</event>
<event>
 7    1  0.2943257E-009  0.1203107E+03  0.7561462E-02  0.1242585E+00
          1   -1    0    0  501    0  0.00000000000E+00  0.00000000000E+00  0.18367938157E+03  0.18367938157E+03  0.00000000000E+00 0. -1.
         -1   -1    0    0    0  501 -0.00000000000E+00 -0.00000000000E+00 -0.11651587643E+03  0.11651587643E+03  0.00000000000E+00 0.  1.
         25    2    1    2    0    0  0.61007020630E+02 -0.38106956522E+02  0.10295349468E+03  0.17725761946E+03  0.12508734904E+03 0.  0.
          5    1    3    3  502    0  0.89492725062E+01  0.33199904188E+02  0.78110672221E+02  0.85446314322E+02  0.41800000000E+01 0. -1.
         -5    1    3    3    0  502  0.52057748124E+02 -0.71306860710E+02  0.24842822459E+02  0.91811305142E+02  0.41800000000E+01 0. -1.
        -11    1    1    2    0    0  0.24835945308E+02  0.13641018451E+02 -0.77657106393E+01  0.29380398661E+02  0.00000000000E+00 0.  1.
         11    1    1    2    0    0 -0.85842965938E+02  0.24465938071E+02 -0.28024278901E+02  0.93557239884E+02  0.00000000000E+00 0. -1.
</event>
<event>
 7    1  0.2943257E-009  0.1108021E+03  0.7561462E-02  0.1259092E+00
         -3   -1    0    0    0  501 -0.00000000000E+00  0.00000000000E+00  0.20442620471E+03  0.20442620471E+03  0.00000000000E+00 0.  1.
          3   -1    0    0  501    0  0.00000000000E+00 -0.00000000000E+00 -0.82343242205E+02  0.82343242205E+02  0.00000000000E+00 0. -1.
         25    2    1    2    0    0 -0.38454397643E+02 -0.57392893627E+02  0.34176272177E+02  0.14691548513E+03  0.12507380723E+03 0.  0.
          5    1    3    3  502    0  0.20710949603E+02  0.29784383962E+02  0.15840478472E+01  0.36551806645E+02  0.41800000000E+01 0. -1.
         -5    1    3    3    0  502 -0.59165347246E+02 -0.87177277589E+02  0.32592224329E+02  0.11036367849E+03  0.41800000000E+01 0. -1.
        -11    1    1    2    0    0  0.30596699239E+02  0.10880261881E+02  0.86793024407E+02  0.92669127484E+02  0.00000000000E+00 0.  1.
         11    1    1    2    0    0  0.78576984038E+01  0.46512631746E+02  0.11136659231E+01  0.47184834300E+02  0.00000000000E+00 0. -1.
</event>
<event>
 7    1  0.2943257E-009  0.1205971E+03  0.7561462E-02  0.1242115E+00
          2   -1    0    0  501    0  0.00000000000E+00  0.00000000000E+00  0.12492236114E+03  0.12492236114E+03  0.00000000000E+00 0. -1.
         -2   -1    0    0    0  501 -0.00000000000E+00 -0.00000000000E+00 -0.14112835367E+03  0.14112835367E+03  0.00000000000E+00 0.  1.
         25    2    1    2    0    0 -0.29619878557E+02 -0.36769995490E+02  0.97285680117E+01  0.13405952019E+03  0.12509172692E+03 0.  0.
          5    1    3    3  502    0 -0.45865166386E+02  0.28664936717E+02  0.31938706459E+02  0.62951135454E+02  0.41800000000E+01 0.  1.
         -5    1    3    3    0  502  0.16245287829E+02 -0.65434932208E+02 -0.22210138448E+02  0.71108384734E+02  0.41800000000E+01 0.  1.
        -11    1    1    2    0    0 -0.27302775258E+01 -0.37911179870E+02 -0.32949152306E+02  0.50302670030E+02  0.00000000000E+00 0.  1.
         11    1    1    2    0    0  0.32350156083E+02  0.74681175361E+02  0.70145917609E+01  0.81688524588E+02  0.00000000000E+00 0. -1.
</event>
<event>
 7    1  0.2943257E-009  0.9754503E+02  0.7561462E-02  0.1285545E+00
          2   -1    0    0  501    0  0.00000000000E+00  0.00000000000E+00  0.42630964249E+03  0.42630964249E+03  0.00000000000E+00 0. -1.
         -2   -1    0    0    0  501 -0.00000000000E+00 -0.00000000000E+00 -0.32898919438E+02  0.32898919438E+02  0.00000000000E+00 0.  1.
         25    2    1    2    0    0 -0.25144290638E+02  0.21700433462E+02  0.15401660832E+03  0.20117589925E+03  0.12508989822E+03 0.  0.
          5    1    3    3  502    0  0.86814789886E+01 -0.45323598055E+02  0.27161937323E+02  0.53710705238E+02  0.41800000000E+01 0. -1.
         -5    1    3    3    0  502 -0.33825769627E+02  0.67024031516E+02  0.12685467100E+03  0.14746519401E+03  0.41800000000E+01 0. -1.
        -11    1    1    2    0    0 -0.16162621824E+02  0.12098144004E+02  0.10034896254E+02  0.22545389227E+02  0.00000000000E+00 0.  1.
         11    1    1    2    0    0  0.41306912462E+02 -0.33798577465E+02  0.22935921848E+03  0.23548727345E+03  0.00000000000E+00 0. -1.
</event>
<event>
 7    1  0.2943257E-009  0.1878749E+03  0.7561462E-02  0.1160392E+00
         -2   -1    0    0    0  501 -0.00000000000E+00  0.00000000000E+00  0.23503307477E+03  0.23503307477E+03  0.00000000000E+00 0.  1.
          2   -1    0    0  501    0  0.00000000000E+00 -0.00000000000E+00 -0.16004542119E+03  0.16004542119E+03  0.00000000000E+00 0. -1.
         25    2    1    2    0    0  0.88148858597E+02  0.12705982375E+03  0.82909809427E+02  0.21549053847E+03  0.12509082935E+03 0.  0.
          5    1    3    3  502    0  0.11632263642E+03  0.76129886328E+02  0.70089204273E+02  0.15574557551E+03  0.41800000000E+01 0. -1.
         -5    1    3    3    0  502 -0.28173777818E+02  0.50929937424E+02  0.12820605154E+02  0.59744962959E+02  0.41800000000E+01 0. -1.
        -11    1    1    2    0    0 -0.75284677791E+01  0.13968175772E+02  0.49798370578E+01  0.16630891095E+02  0.00000000000E+00 0.  1.
         11    1    1    2    0    0 -0.80620390818E+02 -0.14102799952E+03 -0.12901992905E+02  0.16295706639E+03  0.00000000000E+00 0. -1.
</event>
<event>
 7    1  0.2943257E-009  0.7200307E+02  0.7561462E-02  0.1353411E+00
          2   -1    0    0  501    0  0.00000000000E+00  0.00000000000E+00  0.62606396947E+03  0.62606396947E+03  0.00000000000E+00 0. -1.
         -2   -1    0    0    0  501 -0.00000000000E+00 -0.00000000000E+00 -0.27880934021E+02  0.27880934021E+02  0.00000000000E+00 0.  1.
         25    2    1    2    0    0  0.51599369863E+01 -0.45787020886E+02  0.47385931156E+03  0.49226740352E+03  0.12514580767E+03 0.  0.
          5    1    3    3  502    0 -0.70629066107E+01 -0.15479952721E+02  0.25935195445E+00  0.17522934956E+02  0.41800000000E+01 0. -1.
         -5    1    3    3    0  502  0.12222843597E+02 -0.30307068165E+02  0.47359995961E+03  0.47474446856E+03  0.41800000000E+01 0. -1.
        -11    1    1    2    0    0 -0.34610052103E+02  0.52925132724E+02  0.11268536310E+03  0.12921654862E+03  0.00000000000E+00 0. -1.
         11    1    1    2    0    0  0.29450115117E+02 -0.71381118384E+01  0.11638360784E+02  0.32460951353E+02  0.00000000000E+00 0.  1.
</event>
<event>
 7    1  0.2943257E-009  0.1183343E+03  0.7561462E-02  0.1245870E+00
         -1   -1    0    0    0  501 -0.00000000000E+00  0.00000000000E+00  0.91160110342E+02  0.91160110342E+02  0.00000000000E+00 0.  1.
          1   -1    0    0  501    0  0.00000000000E+00 -0.00000000000E+00 -0.22523225591E+03  0.22523225591E+03  0.00000000000E+00 0. -1.
         25    2    1    2    0    0  0.51545282216E+02 -0.59766637895E+01  0.11092680069E+02  0.13589197985E+03  0.12510374098E+03 0.  0.
          5    1    3    3  502    0  0.59605931576E+01 -0.62373524026E+02  0.57348755199E+01  0.63058277548E+02  0.41800000000E+01 0.  1.
         -5    1    3    3    0  502  0.45584689058E+02  0.56396860236E+02  0.53578045491E+01  0.72833702299E+02  0.41800000000E+01 0.  1.
        -11    1    1    2    0    0  0.19245463914E+02  0.21403010217E+02 -0.71964655065E+02  0.77507343563E+02  0.00000000000E+00 0. -1.
         11    1    1    2    0    0 -0.70790746130E+02 -0.15426346427E+02 -0.73200170568E+02  0.10299304284E+03  0.00000000000E+00 0.  1.
</event>
<event>
 7    1  0.2943257E-009  0.2158806E+03  0.7561462E-02  0.1136992E+00
          1   -1    0    0  501    0  0.00000000000E+00  0.00000000000E+00  0.18587072674E+04  0.18587072674E+04  0.00000000000E+00 0. -1.
         -1   -1    0    0    0  501 -0.00000000000E+00 -0.00000000000E+00 -0.44493756984E+02  0.44493756984E+02  0.00000000000E+00 0.  1.
         25    2    1    2    0    0 -0.19497011727E+03 -0.48166275320E+01  0.15265886300E+04  0.15440708571E+04  0.12508165337E+03 0.  0.
          5    1    3    3  502    0 -0.21091928935E+03 -0.13059701527E+02  0.13391163852E+04  0.13556945334E+04  0.41800000000E+01 0.  1.
         -5    1    3    3    0  502  0.15949172079E+02  0.82430739946E+01  0.18747224479E+03  0.18837632369E+03  0.41800000000E+01 0.  1.
        -11    1    1    2    0    0  0.12419647271E+03 -0.22280891257E+02  0.23542945061E+03  0.26711089113E+03  0.00000000000E+00 0. -1.
         11    1    1    2    0    0  0.70773644566E+02  0.27097518789E+02  0.52195429829E+02  0.92019276158E+02  0.00000000000E+00 0.  1.
</event>
<event>
 7    1  0.2943257E-009  0.1589577E+03  0.7561462E-02  0.1189878E+00
         -1   -1    0    0    0  501 -0.00000000000E+00  0.00000000000E+00  0.74417100250E+02  0.74417100250E+02  0.00000000000E+00 0.  1.
          1   -1    0    0  501    0  0.00000000000E+00 -0.00000000000E+00 -0.40626046258E+03  0.40626046258E+03  0.00000000000E+00 0. -1.
         25    2    1    2    0    0  0.32043517232E+02  0.13068035178E+03 -0.18524495573E+03  0.26089693344E+03  0.12508946764E+03 0.  0.
          5    1    3    3  502    0  0.58934485069E+02  0.11843737291E+03 -0.87416482889E+02  0.15861840597E+03  0.41800000000E+01 0.  1.
         -5    1    3    3    0  502 -0.26890967837E+02  0.12242978878E+02 -0.97828472842E+02  0.10227852747E+03  0.41800000000E+01 0.  1.
        -11    1    1    2    0    0  0.22643293535E+02 -0.72131328352E+02 -0.10534822061E+03  0.12966840347E+03  0.00000000000E+00 0. -1.
         11    1    1    2    0    0 -0.54686810767E+02 -0.58549023433E+02 -0.41250185991E+02  0.90112225924E+02  0.00000000000E+00 0.  1.
</event>
<event>
 7    1  0.2943257E-009  0.1090430E+03  0.7561462E-02  0.1262353E+00
          3   -1    0    0  501    0  0.00000000000E+00  0.00000000000E+00  0.43319829907E+02  0.43319829907E+02  0.00000000000E+00 0. -1.
         -3   -1    0    0    0  501 -0.00000000000E+00 -0.00000000000E+00 -0.42761067428E+03  0.42761067428E+03  0.00000000000E+00 0.  1.
         25    2    1    2    0    0  0.75322649927E+01 -0.84218575254E+02 -0.20100736230E+03  0.25139748701E+03  0.12508890175E+03 0.  0.
          5    1    3    3  502    0 -0.32992567649E+02 -0.35560455409E+02 -0.17695508703E+03  0.18353100756E+03  0.41800000000E+01 0.  1.
         -5    1    3    3    0  502  0.40524832641E+02 -0.48658119845E+02 -0.24052275272E+02  0.67866479452E+02  0.41800000000E+01 0.  1.
        -11    1    1    2    0    0 -0.34442670742E+02  0.62472001275E+02 -0.16637402894E+03  0.18102310907E+03  0.00000000000E+00 0.  1.
         11    1    1    2    0    0  0.26910405749E+02  0.21746573979E+02 -0.16909453129E+02  0.38509908109E+02  0.00000000000E+00 0. -1.
</event>
<event>
 7    1  0.2943257E-009  0.1021629E+03  0.7561462E-02  0.1275812E+00
         -2   -1    0    0    0  501 -0.00000000000E+00  0.00000000000E+00  0.23241421081E+03  0.23241421081E+03  0.00000000000E+00 0.  1.
          2   -1    0    0  501    0  0.00000000000E+00 -0.00000000000E+00 -0.74896930738E+02  0.74896930738E+02  0.00000000000E+00 0. -1.
         25    2    1    2    0    0 -0.56774231831E+02 -0.47039950755E+02  0.63720854753E+02  0.15856769421E+03  0.12508915201E+03 0.  0.
          5    1    3    3  502    0 -0.55180592993E+02 -0.58333419418E+02  0.95326059462E+02  0.12470852287E+03  0.41800000000E+01 0. -1.
         -5    1    3    3    0  502 -0.15936388378E+01  0.11293468663E+02 -0.31605204709E+02  0.33859171341E+02  0.41800000000E+01 0. -1.
        -11    1    1    2    0    0  0.37347604982E+02 -0.19726409657E+02  0.18085871598E+02  0.45946420832E+02  0.00000000000E+00 0. -1.
         11    1    1    2    0    0  0.19426626848E+02  0.66766360412E+02  0.75710553726E+02  0.10279702651E+03  0.00000000000E+00 0.  1.
</event>
<event>
 6    1  0.2943257E-009  0.1455217E+03  0.7561462E-02  0.1206086E+00
          1   -1    0    0  501    0  0.00000000000E+00  0.00000000000E+00  0.71763763805E+02  0.71763763805E+02  0.00000000000E+00 0. -1.
         -1   -1    0    0    0  501 -0.00000000000E+00 -0.00000000000E+00 -0.31281295465E+03  0.31281295465E+03  0.00000000000E+00 0.  1.
          5    1    1    2  502    0  0.95140947135E+01 -0.10891365464E+03 -0.13001044650E+03  0.16992024825E+03  0.41800000000E+01 0.  1.
         -5    1    1    2    0  502 -0.44781827344E+02  0.17373690036E+02 -0.37747324333E+02  0.61233896332E+02  0.41800000000E+01 0.  1.
        -11    1    1    2    0    0 -0.17117230659E+02  0.77245725700E+02 -0.54027934902E+02  0.95806677607E+02  0.00000000000E+00 0. -1.
         11    1    1    2    0    0  0.52384963289E+02  0.14294238902E+02 -0.19263485110E+02  0.57615896272E+02  0.00000000000E+00 0.  1.
</event>
<event>
 6    1  0.2943257E-009  0.1099792E+03  0.7561462E-02  0.1260608E+00
          2   -1    0    0  501    0  0.00000000000E+00  0.00000000000E+00  0.17924353208E+03  0.17924353208E+03  0.00000000000E+00 0. -1.
         -2   -1    0    0    0  501 -0.00000000000E+00 -0.00000000000E+00 -0.15018336788E+03  0.15018336788E+03  0.00000000000E+00 0.  1.
          5    1    1    2  502    0  0.76563851362E+02 -0.57351762285E+02 -0.93768071420E+02  0.13401929559E+03  0.41800000000E+01 0.  1.
         -5    1    1    2    0  502 -0.18865289062E+01 -0.33451977865E+01  0.34306478412E+02  0.34772923382E+02  0.41800000000E+01 0.  1.
        -11    1    1    2    0    0 -0.10185581617E+02  0.52545548806E+02  0.35386695051E+01  0.53640497332E+02  0.00000000000E+00 0. -1.
         11    1    1    2    0    0 -0.64491740839E+02  0.81514112660E+01  0.84983087704E+02  0.10699418366E+03  0.00000000000E+00 0.  1.
</event>
<event>
 7    1  0.2943257E-009  0.7615590E+02  0.7561462E-02  0.1340328E+00
         -1   -1    0    0    0  501 -0.00000000000E+00  0.00000000000E+00  0.36249606803E+02  0.36249606803E+02  0.00000000000E+00 0.  1.
          1   -1    0    0  501    0  0.00000000000E+00 -0.00000000000E+00 -0.44556086704E+03  0.44556086704E+03  0.00000000000E+00 0. -1.
         25    2    1    2    0    0  0.33705217778E+02  0.39470459219E+02 -0.14648142648E+03  0.19949422703E+03  0.12508868637E+03 0.  0.
          5    1    3    3  502    0  0.46523823588E+02  0.48872124948E+02 -0.16283275215E+03  0.17630918391E+03  0.41800000000E+01 0. -1.
         -5    1    3    3    0  502 -0.12818605809E+02 -0.94016657289E+01  0.16351325669E+02  0.23185043121E+02  0.41800000000E+01 0. -1.
        -11    1    1    2    0    0 -0.13443047572E+02  0.86990365466E+01 -0.18070520224E+01  0.16113789184E+02  0.00000000000E+00 0.  1.
         11    1    1    2    0    0 -0.20262170206E+02 -0.48169495766E+02 -0.26102278173E+03  0.26620245763E+03  0.00000000000E+00 0. -1.
</event>
<event>
 7    1  0.2943257E-009  0.1305419E+03  0.7561462E-02  0.1226654E+00
          2   -1    0    0  501    0  0.00000000000E+00  0.00000000000E+00  0.48360437390E+03  0.48360437390E+03  0.00000000000E+00 0. -1.
         -2   -1    0    0    0  501 -0.00000000000E+00 -0.00000000000E+00 -0.55890847967E+02  0.55890847967E+02  0.00000000000E+00 0.  1.
         25    2    1    2    0    0 -0.14986490809E+02 -0.81600363609E+02  0.82681624876E+02  0.17136737758E+03  0.12508921920E+03 0.  0.
          5    1    3    3  502    0 -0.39930808148E+02  0.15847488427E+02  0.35404862747E+01  0.43308426107E+02  0.41800000000E+01 0. -1.
         -5    1    3    3    0  502  0.24944317339E+02 -0.97447852036E+02  0.79141138601E+02  0.12805895148E+03  0.41800000000E+01 0. -1.
        -11    1    1    2    0    0  0.97017598306E-01 -0.17264075365E+02  0.13698658877E+02  0.22038851278E+02  0.00000000000E+00 0.  1.
         11    1    1    2    0    0  0.14889473210E+02  0.98864438974E+02  0.33133324218E+03  0.34608899300E+03  0.00000000000E+00 0. -1.
</event>
<event>
 7    1  0.2943257E-009  0.1362663E+03  0.7561462E-02  0.1218443E+00
          2   -1    0    0  501    0  0.00000000000E+00  0.00000000000E+00  0.14093122927E+03  0.14093122927E+03  0.00000000000E+00 0. -1.
         -2   -1    0    0    0  501 -0.00000000000E+00 -0.00000000000E+00 -0.16059156573E+03  0.16059156573E+03  0.00000000000E+00 0.  1.
         25    2    1    2    0    0  0.23623249042E+02 -0.85260775562E+02  0.45827826995E+02  0.15992278969E+03  0.12509057195E+03 0.  0.
          5    1    3    3  502    0 -0.88841529991E+01 -0.10742556519E+03  0.13276304889E+02  0.10868722511E+03  0.41800000000E+01 0. -1.
         -5    1    3    3    0  502  0.32507402041E+02  0.22164789626E+02  0.32551522105E+02  0.51235564582E+02  0.41800000000E+01 0. -1.
        -11    1    1    2    0    0 -0.46235589812E+02  0.11083096199E+02 -0.30783246302E+02  0.56640736572E+02  0.00000000000E+00 0. -1.
         11    1    1    2    0    0  0.22612340769E+02  0.74177679363E+02 -0.34704917153E+02  0.84959268743E+02  0.00000000000E+00 0.  1.
</event>
<event>
 7    1  0.2943257E-009  0.1433890E+03  0.7561462E-02  0.1208840E+00
         -2   -1    0    0    0  501 -0.00000000000E+00  0.00000000000E+00  0.67802403530E+02  0.67802403530E+02  0.00000000000E+00 0.  1.
          2   -1    0    0  501    0  0.00000000000E+00 -0.00000000000E+00 -0.34651383114E+03  0.34651383114E+03  0.00000000000E+00 0. -1.
         25    2    1    2    0    0 -0.60892605282E+02  0.80162726586E+02 -0.18760076049E+03  0.24693185480E+03  0.12508926199E+03 0.  0.
          5    1    3    3  502    0 -0.28328661272E+02  0.10890281100E+03 -0.10729579649E+03  0.15553840567E+03  0.41800000000E+01 0.  1.
         -5    1    3    3    0  502 -0.32563944010E+02 -0.28740084411E+02 -0.80304963998E+02  0.91393449132E+02  0.41800000000E+01 0.  1.
        -11    1    1    2    0    0  0.77923769102E+02 -0.41485126976E+02 -0.88563356766E+02  0.12504638225E+03  0.00000000000E+00 0. -1.
         11    1    1    2    0    0 -0.17031163821E+02 -0.38677599610E+02 -0.25473103524E+01  0.42337997623E+02  0.00000000000E+00 0.  1.
</event>
<event>
 7    1  0.2943257E-009  0.1451617E+03  0.7561462E-02  0.1206548E+00
          2   -1    0    0  501    0  0.00000000000E+00  0.00000000000E+00  0.90328279457E+02  0.90328279457E+02  0.00000000000E+00 0. -1.
         -2   -1    0    0    0  501 -0.00000000000E+00 -0.00000000000E+00 -0.29447790150E+03  0.29447790150E+03  0.00000000000E+00 0.  1.
         25    2    1    2    0    0 -0.44518639586E+02 -0.10459321443E+03 -0.59716336679E+02  0.17926102214E+03  0.12508726321E+03 0.  0.
          5    1    3    3  502    0 -0.81522151336E+02 -0.10305257165E+03 -0.42142638746E+02  0.13805494588E+03  0.41800000000E+01 0.  1.
         -5    1    3    3    0  502  0.37003511750E+02 -0.15406427837E+01 -0.17573697933E+02  0.41206076264E+02  0.41800000000E+01 0.  1.
        -11    1    1    2    0    0  0.24437650965E+02  0.12729472623E+02  0.59440069245E+01  0.28188108774E+02  0.00000000000E+00 0. -1.
         11    1    1    2    0    0  0.20080988621E+02  0.91863741806E+02 -0.15037729229E+03  0.17735705004E+03  0.00000000000E+00 0.  1.
</event>
<event>
 7    1  0.2943257E-009  0.1471959E+03  0.7561462E-02  0.1203962E+00
          2   -1    0    0  501    0  0.00000000000E+00  0.00000000000E+00  0.82332980017E+02  0.82332980017E+02  0.00000000000E+00 0. -1.
         -2   -1    0    0    0  501 -0.00000000000E+00 -0.00000000000E+00 -0.29076522826E+03  0.29076522826E+03  0.00000000000E+00 0.  1.
         25    2    1    2    0    0 -0.85093182434E+02 -0.64742294316E+02 -0.80800231888E+02  0.18332280641E+03  0.12508460939E+03 0.  0.
          5    1    3    3  502    0 -0.53474543972E+02  0.28931353159E+02 -0.52402240701E+02  0.80374232681E+02  0.41800000000E+01 0. -1.
         -5    1    3    3    0  502 -0.31618638462E+02 -0.93673647474E+02 -0.28397991187E+02  0.10294857373E+03  0.41800000000E+01 0. -1.
        -11    1    1    2    0    0  0.10132491698E+03  0.59152028117E+02 -0.12655498390E+03  0.17257423093E+03  0.00000000000E+00 0.  1.
         11    1    1    2    0    0 -0.16231734550E+02  0.55902661987E+01 -0.10770324580E+01  0.17201170936E+02  0.00000000000E+00 0. -1.
</event>
<event>
 7    1  0.2943257E-009  0.1364518E+03  0.7561462E-02  0.1218185E+00
          2   -1    0    0  501    0  0.00000000000E+00  0.00000000000E+00  0.18694378498E+03  0.18694378498E+03  0.00000000000E+00 0. -1.
         -2   -1    0    0    0  501 -0.00000000000E+00 -0.00000000000E+00 -0.11144170607E+03  0.11144170607E+03  0.00000000000E+00 0.  1.
         25    2    1    2    0    0  0.46002101679E+02 -0.80143255134E+02  0.67653821342E+02  0.16959240658E+03  0.12508161385E+03 0.  0.
          5    1    3    3  502    0  0.68574199843E+02 -0.96214426201E+02  0.75766100993E+02  0.14041941160E+03  0.41800000000E+01 0.  1.
         -5    1    3    3    0  502 -0.22572098164E+02  0.16071171067E+02 -0.81122796516E+01  0.29172994981E+02  0.41800000000E+01 0.  1.
        -11    1    1    2    0    0 -0.56776897611E+02  0.93565429451E+02  0.14376412431E+02  0.11038472234E+03  0.00000000000E+00 0.  1.
         11    1    1    2    0    0  0.10774795932E+02 -0.13422174317E+02 -0.65281548673E+01  0.18408362142E+02  0.00000000000E+00 0. -1.
</event>
<event>
 7    1  0.2943257E-009  0.1433972E+03  0.7561462E-02  0.1208829E+00
          1   -1    0    0  501    0  0.00000000000E+00  0.00000000000E+00  0.46932642545E+03  0.46932642545E+03  0.00000000000E+00 0. -1.
         -1   -1    0    0    0  501 -0.00000000000E+00 -0.00000000000E+00 -0.61595329936E+02  0.61595329936E+02  0.00000000000E+00 0.  1.
         25    2    1    2    0    0 -0.11770333231E+03  0.48997606078E+02  0.17969745237E+03  0.25336666202E+03  0.12509456901E+03 0.  0.
          5    1    3    3  502    0 -0.86116283616E+02  0.77654896874E+02  0.17538787591E+03  0.21029663984E+03  0.41800000000E+01 0. -1.
         -5    1    3    3    0  502 -0.31587048691E+02 -0.28657290796E+02  0.43095764582E+01  0.43070022173E+02  0.41800000000E+01 0. -1.
        -11    1    1    2    0    0  0.82851836108E+02 -0.29336789939E+02  0.64035048700E+02  0.10874539739E+03  0.00000000000E+00 0.  1.
         11    1    1    2    0    0  0.34851496199E+02 -0.19660816139E+02  0.16399859445E+03  0.16880969599E+03  0.00000000000E+00 0. -1.
</event>
<event>
 7    1  0.2943257E-009  0.1019130E+03  0.7561462E-02  0.1276324E+00
         -1   -1    0    0    0  501 -0.00000000000E+00  0.00000000000E+00  0.19338599155E+03  0.19338599155E+03  0.00000000000E+00 0.  1.
          1   -1    0    0  501    0  0.00000000000E+00 -0.00000000000E+00 -0.70314703125E+02  0.70314703125E+02  0.00000000000E+00 0. -1.
         25    2    1    2    0    0 -0.14819265174E+02 -0.12054324549E+02  0.11156558665E+03  0.16869598735E+03  0.12508612499E+03 0.  0.
          5    1    3    3  502    0  0.26784217770E+02  0.44857300281E+02  0.67484147619E+02  0.85446792157E+02  0.41800000000E+01 0.  1.
         -5    1    3    3    0  502 -0.41603482943E+02 -0.56911624830E+02  0.44081439027E+02  0.83249195194E+02  0.41800000000E+01 0.  1.
        -11    1    1    2    0    0 -0.16335484707E+02 -0.26557774855E+02  0.28817802544E+02  0.42457381094E+02  0.00000000000E+00 0.  1.
         11    1    1    2    0    0  0.31154749881E+02  0.38612099404E+02 -0.17312100769E+02  0.52547326226E+02  0.00000000000E+00 0. -1.
</event>
<event>
 7    1  0.4572462E-009  0.1129707E+03  0.7561462E-02  0.1255165E+00
          1   -1    0    0  501    0  0.00000000000E+00  0.00000000000E+00  0.21600911000E+03  0.21600911000E+03  0.00000000000E+00 0.  1.
         -1   -1    0    0    0  501 -0.00000000000E+00 -0.00000000000E+00 -0.11170213132E+03  0.11170213132E+03  0.00000000000E+00 0. -1.
         25    2    1    2    0    0  0.98836054203E+02  0.19167875398E+02  0.78688144807E+01  0.16076012320E+03  0.12508367565E+03 0.  0.
          5    1    3    3  502    0  0.10353204389E+03  0.34082506905E+02 -0.35307413754E+02  0.11464984629E+03  0.41800000000E+01 0.  1.
         -5    1    3    3    0  502 -0.46959896869E+01 -0.14914631507E+02  0.43176228235E+02  0.46110276910E+02  0.41800000000E+01 0.  1.
        -11    1    1    2    0    0 -0.38377684438E+02 -0.72914146033E+01 -0.13159867947E+02  0.41221275018E+02  0.00000000000E+00 0. -1.
         11    1    1    2    0    0 -0.60458369765E+02 -0.11876460795E+02  0.10959803214E+03  0.12572984310E+03  0.00000000000E+00 0.  1.
</event>
<event>
 7    1  0.2943257E-009  0.1259014E+03  0.7561462E-02  0.1233667E+00
          2   -1    0    0  501    0  0.00000000000E+00  0.00000000000E+00  0.81739518061E+03  0.81739518061E+03  0.00000000000E+00 0. -1.
         -2   -1    0    0    0  501 -0.00000000000E+00 -0.00000000000E+00 -0.23383878132E+02  0.23383878132E+02  0.00000000000E+00 0.  1.
         25    2    1    2    0    0 -0.70462641437E+02  0.42357227464E+02  0.49609496704E+03  0.51818528715E+03  0.12508659779E+03 0.  0.
          5    1    3    3  502    0 -0.43946023084E+02 -0.28913950374E+02  0.34467603195E+03  0.34869228393E+03  0.41800000000E+01 0. -1.
         -5    1    3    3    0  502 -0.26516618353E+02  0.71271177838E+02  0.15141893509E+03  0.16949300323E+03  0.41800000000E+01 0. -1.
        -11    1    1    2    0    0  0.83911809347E+02 -0.60206727554E+01  0.22097449390E+03  0.23644696489E+03  0.00000000000E+00 0.  1.
         11    1    1    2    0    0 -0.13449167910E+02 -0.36336554709E+02  0.76941841537E+02  0.86146806701E+02  0.00000000000E+00 0. -1.
</event>
<event>
 7    1  0.2943257E-009  0.1090491E+03  0.7561462E-02  0.1262341E+00
          2   -1    0    0  501    0  0.00000000000E+00  0.00000000000E+00  0.42628936616E+03  0.42628936616E+03  0.00000000000E+00 0. -1.
         -2   -1    0    0    0  501 -0.00000000000E+00 -0.00000000000E+00 -0.47736023386E+02  0.47736023386E+02  0.00000000000E+00 0.  1.
         25    2    1    2    0    0 -0.68776455084E+02  0.13488215552E+02  0.10578388476E+03  0.17818603376E+03  0.12509156494E+03 0.  0.
          5    1    3    3  502    0 -0.84288533801E+02 -0.13333385516E+02  0.11708284424E+03  0.14494206055E+03  0.41800000000E+01 0. -1.
         -5    1    3    3    0  502  0.15512078717E+02  0.26821601067E+02 -0.11298959479E+02  0.33243973217E+02  0.41800000000E+01 0. -1.
        -11    1    1    2    0    0  0.40027716531E+02  0.29468535986E+02  0.65514547860E+02  0.82236054655E+02  0.00000000000E+00 0.  1.
         11    1    1    2    0    0  0.28748738553E+02 -0.42956751537E+02  0.20725491015E+03  0.21360330113E+03  0.00000000000E+00 0. -1.
</event>
<event>
 7    1  0.2943257E-009  0.1173050E+03  0.7561462E-02  0.1247610E+00
         -1   -1    0    0    0  501 -0.00000000000E+00  0.00000000000E+00  0.13773242586E+02  0.13773242586E+02  0.00000000000E+00 0. -1.
          1   -1    0    0  501    0  0.00000000000E+00 -0.00000000000E+00 -0.13171325590E+04  0.13171325590E+04  0.00000000000E+00 0.  1.
         25    2    1    2    0    0 -0.67392423160E+02 -0.40058810512E+02 -0.76465414416E+03  0.77877454046E+03  0.12508947870E+03 0.  0.
          5    1    3    3  502    0 -0.20967137916E+02 -0.61255674907E+02 -0.64969750625E+03  0.65292893993E+03  0.41800000000E+01 0.  1.
         -5    1    3    3    0  502 -0.46425285245E+02  0.21196864394E+02 -0.11495663792E+03  0.12584560052E+03  0.41800000000E+01 0.  1.
        -11    1    1    2    0    0  0.70723924968E+02 -0.72532704804E+01 -0.37563232168E+03  0.38230109153E+03  0.00000000000E+00 0.  1.
         11    1    1    2    0    0 -0.33315018079E+01  0.47312080993E+02 -0.16307285060E+03  0.16983016962E+03  0.00000000000E+00 0. -1.
</event>
<event>
 7    1  0.2943257E-009  0.1147044E+03  0.7561462E-02  0.1252098E+00
          2   -1    0    0  501    0  0.00000000000E+00  0.00000000000E+00  0.35483584598E+03  0.35483584598E+03  0.00000000000E+00 0. -1.
         -2   -1    0    0    0  501 -0.00000000000E+00 -0.00000000000E+00 -0.66128965936E+02  0.66128965936E+02  0.00000000000E+00 0.  1.
         25    2    1    2    0    0 -0.91745754299E+02 -0.46343129682E+02  0.11154036620E+03  0.19660428490E+03  0.12508805877E+03 0.  0.
          5    1    3    3  502    0 -0.67992653367E+02 -0.45934475108E+02 -0.33115159130E+00  0.82161785379E+02  0.41800000000E+01 0.  1.
         -5    1    3    3    0  502 -0.23753100932E+02 -0.40865457373E+00  0.11187151779E+03  0.11444249952E+03  0.41800000000E+01 0.  1.
        -11    1    1    2    0    0  0.11902799618E+02  0.41459242170E+02  0.19034020711E+02  0.47146997195E+02  0.00000000000E+00 0.  1.
         11    1    1    2    0    0  0.79842954681E+02  0.48838875123E+01  0.15813249313E+03  0.17721352982E+03  0.00000000000E+00 0. -1.
</event>
<event>
 7    1  0.2943257E-009  0.1063045E+03  0.7561462E-02  0.1267570E+00
         -3   -1    0    0    0  501 -0.00000000000E+00  0.00000000000E+00  0.33806814766E+03  0.33806814766E+03  0.00000000000E+00 0.  1.
          3   -1    0    0  501    0  0.00000000000E+00 -0.00000000000E+00 -0.78270303841E+02  0.78270303841E+02  0.00000000000E+00 0. -1.
         25    2    1    2    0    0  0.55070944416E+02  0.40526040044E+02  0.26669687789E+03  0.30240629055E+03  0.12508865275E+03 0.  0.
          5    1    3    3  502    0  0.67647676305E+02  0.12729990446E+02  0.26240399477E+03  0.27131455847E+03  0.41800000000E+01 0.  1.
         -5    1    3    3    0  502 -0.12576731889E+02  0.27796049597E+02  0.42928831197E+01  0.31091732080E+02  0.41800000000E+01 0.  1.
        -11    1    1    2    0    0 -0.48198436388E+02 -0.68661994660E+02  0.10546030907E+01  0.83896787594E+02  0.00000000000E+00 0. -1.
         11    1    1    2    0    0 -0.68725080288E+01  0.28135954616E+02 -0.79536371591E+01  0.30035373359E+02  0.00000000000E+00 0.  1.
</event>
<event>
 7    1  0.2943257E-009  0.1117629E+03  0.7561462E-02  0.1257340E+00
         -2   -1    0    0    0  501 -0.00000000000E+00  0.00000000000E+00  0.46987270828E+02  0.46987270828E+02  0.00000000000E+00 0.  1.
          2   -1    0    0  501    0  0.00000000000E+00 -0.00000000000E+00 -0.40836450065E+03  0.40836450065E+03  0.00000000000E+00 0. -1.
         25    2    1    2    0    0  0.81508853753E+02  0.19197978386E+02 -0.21271262481E+03  0.26058885736E+03  0.12509051209E+03 0.  0.
          5    1    3    3  502    0  0.55895630909E+02  0.60680592563E+02 -0.18889561940E+03  0.20616857980E+03  0.41800000000E+01 0.  1.
         -5    1    3    3    0  502  0.25613222844E+02 -0.41482614177E+02 -0.23817005410E+02  0.54420277564E+02  0.41800000000E+01 0.  1.
        -11    1    1    2    0    0 -0.71630903381E+01 -0.16048418829E+02  0.94929312806E+01  0.19974417498E+02  0.00000000000E+00 0.  1.
         11    1    1    2    0    0 -0.74345763415E+02 -0.31495595574E+01 -0.15815753630E+03  0.17478849662E+03  0.00000000000E+00 0. -1.
</event>
<event>
 7    1  0.2943257E-009  0.1006474E+03  0.7561462E-02  0.1278940E+00
          2   -1    0    0  501    0  0.00000000000E+00  0.00000000000E+00  0.27820097119E+03  0.27820097119E+03  0.00000000000E+00 0.  1.
         -2   -1    0    0    0  501 -0.00000000000E+00 -0.00000000000E+00 -0.46993078230E+02  0.46993078230E+02  0.00000000000E+00 0. -1.
         25    2    1    2    0    0  0.23010713965E+02  0.12761717996E+01  0.82449253804E+02  0.15158251114E+03  0.12509299205E+03 0.  0.
          5    1    3    3  502    0 -0.42829760404E+02  0.12623351296E+02  0.70541145625E+02  0.83589849864E+02  0.41800000000E+01 0. -1.
         -5    1    3    3    0  502  0.65840474369E+02 -0.11347179497E+02  0.11908108180E+02  0.67992661281E+02  0.41800000000E+01 0. -1.
        -11    1    1    2    0    0 -0.19721841690E+02  0.41845278582E+02  0.77499102066E+02  0.90255687911E+02  0.00000000000E+00 0.  1.
         11    1    1    2    0    0 -0.32888722753E+01 -0.43121450381E+02  0.71259537092E+02  0.83355850367E+02  0.00000000000E+00 0. -1.
</event>
<event>
 7    1  0.2943257E-009  0.1125777E+03  0.7561462E-02  0.1255869E+00
         -1   -1    0    0    0  501 -0.00000000000E+00  0.00000000000E+00  0.48048450794E+02  0.48048450794E+02  0.00000000000E+00 0.  1.
          1   -1    0    0  501    0  0.00000000000E+00 -0.00000000000E+00 -0.27574916928E+03  0.27574916928E+03  0.00000000000E+00 0. -1.
         25    2    1    2    0    0 -0.37038999960E+02 -0.15700509315E+02 -0.13327619459E+03  0.18715968730E+03  0.12509121070E+03 0.  0.
          5    1    3    3  502    0 -0.81806353793E+02 -0.18357061247E+02 -0.68944920578E+02  0.10862842948E+03  0.41800000000E+01 0. -1.
         -5    1    3    3    0  502  0.44767353834E+02  0.26565519324E+01 -0.64331274014E+02  0.78531257813E+02  0.41800000000E+01 0. -1.
        -11    1    1    2    0    0  0.60919614635E+02 -0.92673352847E+01 -0.74767082155E+02  0.96887561248E+02  0.00000000000E+00 0. -1.
         11    1    1    2    0    0 -0.23880614675E+02  0.24967844599E+02 -0.19657441745E+02  0.39750371535E+02  0.00000000000E+00 0.  1.
</event>
<event>
 7    1  0.2943257E-009  0.7062896E+02  0.7561462E-02  0.1357967E+00
          3   -1    0    0  501    0  0.00000000000E+00  0.00000000000E+00  0.36032159918E+02  0.36032159918E+02  0.00000000000E+00 0. -1.
         -3   -1    0    0    0  501 -0.00000000000E+00 -0.00000000000E+00 -0.40821755204E+03  0.40821755204E+03  0.00000000000E+00 0.  1.
         25    2    1    2    0    0  0.45559422294E+02  0.19460751633E+02 -0.24386738150E+03  0.27852168299E+03  0.12509454954E+03 0.  0.
          5    1    3    3  502    0  0.43477047631E+02  0.35157222517E+02 -0.25342960105E+03  0.25955793006E+03  0.41800000000E+01 0. -1.
         -5    1    3    3    0  502  0.20823746636E+01 -0.15696470884E+02  0.95622195575E+01  0.18963752933E+02  0.41800000000E+01 0. -1.
        -11    1    1    2    0    0  0.15758770240E+01 -0.21572207820E+02  0.67481369430E+01  0.22657910116E+02  0.00000000000E+00 0. -1.
         11    1    1    2    0    0 -0.47135299318E+02  0.21114561866E+01 -0.13506614756E+03  0.14307011885E+03  0.00000000000E+00 0.  1.
</event>
<event>
 7    1  0.2943257E-009  0.1501195E+03  0.7561462E-02  0.1200326E+00
          4   -1    0    0  501    0  0.00000000000E+00  0.00000000000E+00  0.99925148391E+02  0.99925148391E+02  0.00000000000E+00 0. -1.
         -4   -1    0    0    0  501 -0.00000000000E+00 -0.00000000000E+00 -0.29764090172E+03  0.29764090172E+03  0.00000000000E+00 0.  1.
         25    2    1    2    0    0  0.11078581341E+03 -0.52242563507E+02 -0.42654090903E+02  0.18019515276E+03  0.12509252461E+03 0.  0.
          5    1    3    3  502    0  0.14940284484E+02 -0.50953634271E+02  0.28813977992E+02  0.60557432852E+02  0.41800000000E+01 0. -1.
         -5    1    3    3    0  502  0.95845528924E+02 -0.12889292363E+01 -0.71468068895E+02  0.11963771991E+03  0.41800000000E+01 0. -1.
        -11    1    1    2    0    0 -0.86526871104E+02 -0.72024900967E+01 -0.74909527203E+02  0.11467437618E+03  0.00000000000E+00 0. -1.
         11    1    1    2    0    0 -0.24258942304E+02  0.59445053604E+02 -0.80152135226E+02  0.10269652117E+03  0.00000000000E+00 0.  1.
</event>
<event>
 7    1  0.2943257E-009  0.7579955E+02  0.7561462E-02  0.1341413E+00
         -2   -1    0    0    0  501 -0.00000000000E+00  0.00000000000E+00  0.19333198905E+03  0.19333198905E+03  0.00000000000E+00 0.  1.
          2   -1    0    0  501    0  0.00000000000E+00 -0.00000000000E+00 -0.89400413202E+02  0.89400413202E+02  0.00000000000E+00 0. -1.
         25    2    1    2    0    0  0.15192036888E+02 -0.11839276046E+02  0.13285528864E+03  0.18349068938E+03  0.12508932379E+03 0.  0.
          5    1    3    3  502    0 -0.44054349657E+01 -0.39130428568E+02 -0.64581316457E+01  0.40122040844E+02  0.41800000000E+01 0.  1.
         -5    1    3    3    0  502  0.19597471853E+02  0.27291152523E+02  0.13931342029E+03  0.14336864853E+03  0.41800000000E+01 0.  1.
        -11    1    1    2    0    0 -0.50030764327E+01  0.44063134946E+02  0.12217979627E+02  0.45998583252E+02  0.00000000000E+00 0.  1.
         11    1    1    2    0    0 -0.10188960455E+02 -0.32223858900E+02 -0.41141692418E+02  0.53243129628E+02  0.00000000000E+00 0. -1.
</event>
<event>
 7    1  0.2943257E-009  0.1392988E+03  0.7561462E-02  0.1214276E+00
          1   -1    0    0  501    0  0.00000000000E+00  0.00000000000E+00  0.45201443084E+03  0.45201443084E+03  0.00000000000E+00 0. -1.
         -1   -1    0    0    0  501 -0.00000000000E+00 -0.00000000000E+00 -0.89628690136E+02  0.89628690136E+02  0.00000000000E+00 0.  1.
         25    2    1    2    0    0 -0.96825748608E+00  0.12594904286E+03  0.34119302538E+03  0.38460673137E+03  0.12508220628E+03 0.  0.
          5    1    3    3  502    0 -0.12355059079E+01  0.28983043885E+02  0.24907875132E+03  0.25079720905E+03  0.41800000000E+01 0.  1.
         -5    1    3    3    0  502  0.26724842184E+00  0.96965998974E+02  0.92114274063E+02  0.13380952232E+03  0.41800000000E+01 0.  1.
        -11    1    1    2    0    0  0.19914694183E+02 -0.13109526204E+03  0.69498102720E+01  0.13278125861E+03  0.00000000000E+00 0.  1.
         11    1    1    2    0    0 -0.18946436697E+02  0.51462191833E+01  0.14242905050E+02  0.24255130996E+02  0.00000000000E+00 0. -1.
</event>
<event>
 7    1  0.2943257E-009  0.8036884E+02  0.7561462E-02  0.1328008E+00
          2   -1    0    0  501    0  0.00000000000E+00  0.00000000000E+00  0.58988545494E+03  0.58988545494E+03  0.00000000000E+00 0.  1.
         -2   -1    0    0    0  501 -0.00000000000E+00 -0.00000000000E+00 -0.90732887098E+02  0.90732887098E+02  0.00000000000E+00 0. -1.
         25    2    1    2    0    0 -0.38876995998E+02  0.14105687253E+02  0.55231010231E+03  0.56780514632E+03  0.12508334760E+03 0.  0.
          5    1    3    3  502    0 -0.44219954947E+02  0.23024785237E+02  0.55418920001E+03  0.55644288742E+03  0.41800000000E+01 0.  1.
         -5    1    3    3    0  502  0.53429589487E+01 -0.89190979842E+01 -0.18790977022E+01  0.11362258902E+02  0.41800000000E+01 0.  1.
        -11    1    1    2    0    0  0.34066095359E+02  0.35768989773E+02 -0.25986786820E+02  0.55814268531E+02  0.00000000000E+00 0.  1.
         11    1    1    2    0    0  0.48109006394E+01 -0.49874677026E+02 -0.27170747643E+02  0.56998927190E+02  0.00000000000E+00 0. -1.
</event>
<event>
 7    1  0.2943257E-009  0.1301619E+03  0.7561462E-02  0.1227216E+00
         -2   -1    0    0    0  501 -0.00000000000E+00  0.00000000000E+00  0.24493100255E+02  0.24493100255E+02  0.00000000000E+00 0.  1.
          2   -1    0    0  501    0  0.00000000000E+00 -0.00000000000E+00 -0.86425579975E+03  0.86425579975E+03  0.00000000000E+00 0. -1.
         25    2    1    2    0    0 -0.18582686238E+02 -0.76274686603E+02 -0.63353696107E+03  0.65052228492E+03  0.12508804138E+03 0.  0.
          5    1    3    3  502    0 -0.56299861807E+02 -0.62308839554E+00 -0.16472278738E+03  0.17412964068E+03  0.41800000000E+01 0.  1.
         -5    1    3    3    0  502  0.37717175569E+02 -0.75651598208E+02 -0.46881417368E+03  0.47639264425E+03  0.41800000000E+01 0.  1.
        -11    1    1    2    0    0  0.32542606454E+02  0.92363502509E+02 -0.16730245814E+03  0.19385600411E+03  0.00000000000E+00 0.  1.
         11    1    1    2    0    0 -0.13959920216E+02 -0.16088815905E+02 -0.38923280291E+02  0.44370610975E+02  0.00000000000E+00 0. -1.
</event>
<event>
 7    1  0.2943257E-009  0.8616516E+02  0.7561462E-02  0.1312413E+00
         -2   -1    0    0    0  501 -0.00000000000E+00  0.00000000000E+00  0.62967156471E+02  0.62967156471E+02  0.00000000000E+00 0.  1.
          2   -1    0    0  501    0  0.00000000000E+00 -0.00000000000E+00 -0.27451905558E+03  0.27451905558E+03  0.00000000000E+00 0. -1.
         25    2    1    2    0    0 -0.69309889438E+02  0.28903101718E+02 -0.10173922923E+03  0.17786696937E+03  0.12508612218E+03 0.  0.
          5    1    3    3  502    0 -0.21884375027E+01  0.11190880224E+02  0.28079724407E+02  0.30593600338E+02  0.41800000000E+01 0. -1.
         -5    1    3    3    0  502 -0.67121451935E+02  0.17712221493E+02 -0.12981895364E+03  0.14727336903E+03  0.41800000000E+01 0. -1.
        -11    1    1    2    0    0  0.14671205220E+02 -0.32730326022E+02  0.11371349251E+01  0.35886091734E+02  0.00000000000E+00 0.  1.
         11    1    1    2    0    0  0.54638684218E+02  0.38272243039E+01 -0.11094980480E+03  0.12373315095E+03  0.00000000000E+00 0. -1.
</event>
<event>
 7    1  0.2943257E-009  0.7908325E+02  0.7561462E-02  0.1331673E+00
         -2   -1    0    0    0  501 -0.00000000000E+00  0.00000000000E+00  0.21929521255E+03  0.21929521255E+03  0.00000000000E+00 0.  1.
          2   -1    0    0  501    0  0.00000000000E+00 -0.00000000000E+00 -0.10692464158E+03  0.10692464158E+03  0.00000000000E+00 0. -1.
         25    2    1    2    0    0 -0.90300458980E+01 -0.14150323551E+02 -0.53427585429E+02  0.13705027887E+03  0.12508596511E+03 0.  0.
          5    1    3    3  502    0  0.27105103355E+02 -0.15423446052E+02 -0.83883580552E+02  0.89590718282E+02  0.41800000000E+01 0. -1.
         -5    1    3    3    0  502 -0.36135149253E+02  0.12731225009E+01  0.30455995123E+02  0.47459560590E+02  0.41800000000E+01 0. -1.
        -11    1    1    2    0    0 -0.32055435988E+02 -0.19217529879E+02  0.56695494103E+02  0.67906137297E+02  0.00000000000E+00 0. -1.
         11    1    1    2    0    0  0.41085481886E+02  0.33367853430E+02  0.10910266230E+03  0.12126343796E+03  0.00000000000E+00 0.  1.
</event>
<event>
 7    1  0.2943257E-009  0.1469553E+03  0.7561462E-02  0.1204265E+00
          2   -1    0    0  501    0  0.00000000000E+00  0.00000000000E+00  0.53141646181E+03  0.53141646181E+03  0.00000000000E+00 0. -1.
         -2   -1    0    0    0  501 -0.00000000000E+00 -0.00000000000E+00 -0.53054964385E+02  0.53054964385E+02  0.00000000000E+00 0.  1.
         25    2    1    2    0    0  0.56206467747E+02 -0.99482215309E+02  0.15447615109E+03  0.22927385554E+03  0.12509093253E+03 0.  0.
          5    1    3    3  502    0  0.92164619810E+02 -0.43658308517E+02  0.10437152139E+03  0.14598373856E+03  0.41800000000E+01 0. -1.
         -5    1    3    3    0  502 -0.35958152064E+02 -0.55823906792E+02  0.50104629695E+02  0.83290116978E+02  0.41800000000E+01 0. -1.
        -11    1    1    2    0    0  0.85946567871E+01  0.25756190884E+02  0.14849033362E+02  0.30947427776E+02  0.00000000000E+00 0.  1.
         11    1    1    2    0    0 -0.64801124534E+02  0.73726024425E+02  0.30903631298E+03  0.32425014288E+03  0.00000000000E+00 0. -1.
</event>
<event>
 7    1  0.2943257E-009  0.1519889E+03  0.7561462E-02  0.1198050E+00
         -1   -1    0    0    0  501 -0.00000000000E+00  0.00000000000E+00  0.30581875984E+03  0.30581875984E+03  0.00000000000E+00 0.  1.
          1   -1    0    0  501    0  0.00000000000E+00 -0.00000000000E+00 -0.10351452576E+03  0.10351452576E+03  0.00000000000E+00 0. -1.
         25    2    1    2    0    0  0.10863571451E+03 -0.39703241435E+02  0.19793555214E+03  0.26116114712E+03  0.12509434886E+03 0.  0.
          5    1    3    3  502    0  0.84205401193E+02  0.28178082474E+02  0.65945922466E+02  0.11068374321E+03  0.41800000000E+01 0.  1.
         -5    1    3    3    0  502  0.24430313315E+02 -0.67881323909E+02  0.13198962967E+03  0.15047740390E+03  0.41800000000E+01 0.  1.
        -11    1    1    2    0    0 -0.62536850059E+02 -0.21560735371E+02  0.21604827151E+02  0.69588012482E+02  0.00000000000E+00 0.  1.
         11    1    1    2    0    0 -0.46098864449E+02  0.61263976806E+02 -0.17236145214E+02  0.78584126001E+02  0.00000000000E+00 0. -1.
</event>
<event>
 7    1  0.2943257E-009  0.1339528E+03  0.7561462E-02  0.1221706E+00
          2   -1    0    0  501    0  0.00000000000E+00  0.00000000000E+00  0.17161513140E+03  0.17161513140E+03  0.00000000000E+00 0. -1.
         -2   -1    0    0    0  501 -0.00000000000E+00 -0.00000000000E+00 -0.12190364045E+03  0.12190364045E+03  0.00000000000E+00 0.  1.
         25    2    1    2    0    0  0.20670587351E+01 -0.88495282056E+02 -0.84344799212E+01  0.15347245788E+03  0.12508783793E+03 0.  0.
          5    1    3    3  502    0 -0.26614212721E+02 -0.10444478944E+03 -0.32396367289E+02  0.11262338733E+03  0.41800000000E+01 0.  1.
         -5    1    3    3    0  502  0.28681271456E+02  0.15949507387E+02  0.23961887367E+02  0.40849070546E+02  0.41800000000E+01 0.  1.
        -11    1    1    2    0    0  0.11039979343E+02  0.10517119162E+03  0.52673833414E+02  0.11814141280E+03  0.00000000000E+00 0.  1.
         11    1    1    2    0    0 -0.13107038078E+02 -0.16675909568E+02  0.54721374518E+01  0.21904901173E+02  0.00000000000E+00 0. -1.
</event>
<event>
 7    1  0.2943257E-009  0.1651006E+03  0.7561462E-02  0.1183056E+00
          2   -1    0    0  501    0  0.00000000000E+00  0.00000000000E+00  0.33541639250E+03  0.33541639250E+03  0.00000000000E+00 0. -1.
         -2   -1    0    0    0  501 -0.00000000000E+00 -0.00000000000E+00 -0.93899899678E+02  0.93899899678E+02  0.00000000000E+00 0.  1.
         25    2    1    2    0    0  0.11692312805E+03  0.75893434067E+02  0.10464635771E+03  0.21454477204E+03  0.12509103813E+03 0.  0.
          5    1    3    3  502    0 -0.26050427217E+02  0.20979720589E+02  0.24199252922E+02  0.41495176541E+02  0.41800000000E+01 0.  1.
         -5    1    3    3    0  502  0.14297355527E+03  0.54913713478E+02  0.80447104783E+02  0.17304959550E+03  0.41800000000E+01 0.  1.
        -11    1    1    2    0    0 -0.10829358692E+03 -0.56708654394E+02  0.14719609801E+03  0.19133756485E+03  0.00000000000E+00 0. -1.
         11    1    1    2    0    0 -0.86295411282E+01 -0.19184779673E+02 -0.10325962894E+02  0.23433955297E+02  0.00000000000E+00 0.  1.
</event>
<event>
 7    1  0.2943257E-009  0.1116436E+03  0.7561462E-02  0.1257556E+00
          1   -1    0    0  501    0  0.00000000000E+00  0.00000000000E+00  0.15313364338E+03  0.15313364338E+03  0.00000000000E+00 0. -1.
         -1   -1    0    0    0  501 -0.00000000000E+00 -0.00000000000E+00 -0.94622300429E+02  0.94622300429E+02  0.00000000000E+00 0.  1.
         25    2    1    2    0    0  0.14167084829E+02  0.49822809097E+02  0.52845850610E+02  0.14533646234E+03  0.12508790812E+03 0.  0.
          5    1    3    3  502    0  0.63684921023E+02  0.24567515896E+02 -0.19970598584E+00  0.68387457077E+02  0.41800000000E+01 0. -1.
         -5    1    3    3    0  502 -0.49517836193E+02  0.25255293201E+02  0.53045556595E+02  0.76949005260E+02  0.41800000000E+01 0. -1.
        -11    1    1    2    0    0 -0.12354076835E+02  0.23108160814E+02  0.12716690759E+02  0.29126011304E+02  0.00000000000E+00 0. -1.
         11    1    1    2    0    0 -0.18130079942E+01 -0.72930969911E+02 -0.70511984178E+01  0.73293470168E+02  0.00000000000E+00 0.  1.
</event>
<event>
 7    1  0.2943257E-009  0.7926893E+02  0.7561462E-02  0.1331139E+00
         -2   -1    0    0    0  501 -0.00000000000E+00  0.00000000000E+00  0.12462355793E+03  0.12462355793E+03  0.00000000000E+00 0.  1.
          2   -1    0    0  501    0  0.00000000000E+00 -0.00000000000E+00 -0.93784158182E+02  0.93784158182E+02  0.00000000000E+00 0. -1.
         25    2    1    2    0    0  0.34107807236E+00  0.10740628883E+02  0.18605459725E+02  0.12692455410E+03  0.12509277301E+03 0.  0.
          5    1    3    3  502    0  0.60943134281E+02  0.16260834383E+02  0.20723624467E+00  0.63213888488E+02  0.41800000000E+01 0.  1.
         -5    1    3    3    0  502 -0.60602056209E+02 -0.55202055008E+01  0.18398223480E+02  0.63710665612E+02  0.41800000000E+01 0.  1.
        -11    1    1    2    0    0  0.15214806300E+02 -0.10992013798E+02 -0.36110255592E+02  0.40697238936E+02  0.00000000000E+00 0. -1.
         11    1    1    2    0    0 -0.15555884373E+02  0.25138491573E+00  0.48344195619E+02  0.50785923079E+02  0.00000000000E+00 0.  1.
</event>
<event>
 7    1  0.3770120E-009  0.1705726E+03  0.7561462E-02  0.1177252E+00
         -1   -1    0    0    0  501 -0.00000000000E+00  0.00000000000E+00  0.11324638902E+03  0.11324638902E+03  0.00000000000E+00 0.  1.
          1   -1    0    0  501    0  0.00000000000E+00 -0.00000000000E+00 -0.35617845472E+03  0.35617845472E+03  0.00000000000E+00 0. -1.
         25    2    1    2    0    0  0.15837642169E+03  0.28946676813E+02 -0.69310800944E+02  0.21534217532E+03  0.12508902548E+03 0.  0.
          5    1    3    3  502    0  0.95924828707E+02  0.53521942068E+02 -0.93061412282E+02  0.14402801776E+03  0.41800000000E+01 0. -1.
         -5    1    3    3    0  502  0.62451592984E+02 -0.24575265255E+02  0.23750611337E+02  0.71314157553E+02  0.41800000000E+01 0. -1.
        -11    1    1    2    0    0 -0.11775945486E+03 -0.73837851583E+01 -0.17134483667E+03  0.20804053102E+03  0.00000000000E+00 0. -1.
         11    1    1    2    0    0 -0.40616966836E+02 -0.21562891655E+02 -0.22764280780E+01  0.46042137399E+02  0.00000000000E+00 0.  1.
</event>
<event>
 7    1  0.2943257E-009  0.2100814E+03  0.7561462E-02  0.1141502E+00
          2   -1    0    0  501    0  0.00000000000E+00  0.00000000000E+00  0.13034990358E+04  0.13034990358E+04  0.00000000000E+00 0.  1.
         -2   -1    0    0    0  501 -0.00000000000E+00 -0.00000000000E+00 -0.36701274547E+02  0.36701274547E+02  0.00000000000E+00 0. -1.
         25    2    1    2    0    0  0.54882383602E+02  0.17841867844E+03  0.75993854195E+03  0.79246387368E+03  0.12508837955E+03 0.  0.
          5    1    3    3  502    0  0.90606511908E+02  0.15993887638E+03  0.64025751946E+03  0.66613598296E+03  0.41800000000E+01 0. -1.
         -5    1    3    3    0  502 -0.35724128306E+02  0.18479802061E+02  0.11968102249E+03  0.12632789072E+03  0.41800000000E+01 0. -1.
        -11    1    1    2    0    0 -0.17187467472E+02 -0.14333534643E+03  0.27905913145E+03  0.31418852529E+03  0.00000000000E+00 0. -1.
         11    1    1    2    0    0 -0.37694916130E+02 -0.35083332006E+02  0.22780008785E+03  0.23354791138E+03  0.00000000000E+00 0.  1.
</event>
<event>
 7    1  0.2943257E-009  0.9896829E+02  0.7561462E-02  0.1282481E+00
         -1   -1    0    0    0  501 -0.00000000000E+00  0.00000000000E+00  0.44779531686E+02  0.44779531686E+02  0.00000000000E+00 0.  1.
          1   -1    0    0  501    0  0.00000000000E+00 -0.00000000000E+00 -0.26613536693E+03  0.26613536693E+03  0.00000000000E+00 0. -1.
         25    2    1    2    0    0 -0.37311952560E+01  0.20936495525E+02 -0.10768837858E+03  0.16642485308E+03  0.12509271034E+03 0.  0.
          5    1    3    3  502    0  0.34496637911E+02 -0.29310745343E+02 -0.49011733100E+01  0.45723426375E+02  0.41800000000E+01 0.  1.
         -5    1    3    3    0  502 -0.38227833167E+02  0.50247240868E+02 -0.10278720527E+03  0.12070142671E+03  0.41800000000E+01 0.  1.
        -11    1    1    2    0    0 -0.31524114698E+02  0.18302222328E+02 -0.46551385409E+02  0.59125059265E+02  0.00000000000E+00 0.  1.
         11    1    1    2    0    0  0.35255309954E+02 -0.39238717853E+02 -0.67116071256E+02  0.85364986262E+02  0.00000000000E+00 0. -1.
</event>
<event>
 7    1  0.2943257E-009  0.5596543E+02  0.7561462E-02  0.1415588E+00
         -3   -1    0    0    0  501 -0.00000000000E+00  0.00000000000E+00  0.99726850831E+02  0.99726850831E+02  0.00000000000E+00 0.  1.
          3   -1    0    0  501    0  0.00000000000E+00 -0.00000000000E+00 -0.14214863568E+03  0.14214863568E+03  0.00000000000E+00 0. -1.
         25    2    1    2    0    0  0.19313429699E+02  0.14848142389E+02  0.17938411844E+02  0.12869913511E+03  0.12509278500E+03 0.  0.
          5    1    3    3  502    0  0.78534715052E+01  0.12203397476E+02  0.71820034084E+02  0.73390664396E+02  0.41800000000E+01 0. -1.
         -5    1    3    3    0  502  0.11459958194E+02  0.26447449125E+01 -0.53881622240E+02  0.55308470713E+02  0.41800000000E+01 0. -1.
        -11    1    1    2    0    0  0.23216742362E+02 -0.31106242395E+02 -0.55018401834E+02  0.67332310091E+02  0.00000000000E+00 0. -1.
         11    1    1    2    0    0 -0.42530172061E+02  0.16258100006E+02 -0.53417948585E+01  0.45844041310E+02  0.00000000000E+00 0.  1.
</event>
<event>
 7    1  0.2943257E-009  0.1131665E+03  0.7561462E-02  0.1254816E+00
         -1   -1    0    0    0  501 -0.00000000000E+00  0.00000000000E+00  0.36911982303E+02  0.36911982303E+02  0.00000000000E+00 0.  1.
          1   -1    0    0  501    0  0.00000000000E+00 -0.00000000000E+00 -0.44171821870E+03  0.44171821870E+03  0.00000000000E+00 0. -1.
         25    2    1    2    0    0 -0.17805597105E+01 -0.65488865168E+02 -0.26065490842E+03  0.29643937555E+03  0.12507341939E+03 0.  0.
          5    1    3    3  502    0 -0.40353560880E+02 -0.78381981853E+00 -0.22029933084E+02  0.46171577847E+02  0.41800000000E+01 0. -1.
         -5    1    3    3    0  502  0.38573001169E+02 -0.64705045350E+02 -0.23862497534E+03  0.25026779771E+03  0.41800000000E+01 0. -1.
        -11    1    1    2    0    0  0.38870782794E+01 -0.22229306308E+02 -0.19940393192E+02  0.30114294233E+02  0.00000000000E+00 0.  1.
         11    1    1    2    0    0 -0.21065185690E+01  0.87718171477E+02 -0.12421093478E+03  0.15207653121E+03  0.00000000000E+00 0. -1.
</event>
<event>
 7    1  0.2943257E-009  0.1159500E+03  0.7561462E-02  0.1249932E+00
         -1   -1    0    0    0  501 -0.00000000000E+00  0.00000000000E+00  0.26773642107E+03  0.26773642107E+03  0.00000000000E+00 0.  1.
          1   -1    0    0  501    0  0.00000000000E+00 -0.00000000000E+00 -0.91364690938E+02  0.91364690938E+02  0.00000000000E+00 0. -1.
         25    2    1    2    0    0  0.48572524411E+01 -0.57344666263E+02 -0.17143338302E+02  0.13875839186E+03  0.12509194064E+03 0.  0.
          5    1    3    3  502    0  0.34559283405E+02  0.29552831783E+02 -0.31677998694E+01  0.45773587273E+02  0.41800000000E+01 0. -1.
         -5    1    3    3    0  502 -0.29702030964E+02 -0.86897498045E+02 -0.13975538432E+02  0.92984804589E+02  0.41800000000E+01 0. -1.
        -11    1    1    2    0    0 -0.39464393668E+02  0.23658838444E+02  0.14401109429E+03  0.15118324736E+03  0.00000000000E+00 0.  1.
         11    1    1    2    0    0  0.34607141227E+02  0.33685827819E+02  0.49503974142E+02  0.69159472783E+02  0.00000000000E+00 0. -1.
</event>
<event>
 7    1  0.2943257E-009  0.1179801E+03  0.7561462E-02  0.1246467E+00
         -1   -1    0    0    0  501 -0.00000000000E+00  0.00000000000E+00  0.42216327178E+03  0.42216327178E+03  0.00000000000E+00 0.  1.
          1   -1    0    0  501    0  0.00000000000E+00 -0.00000000000E+00 -0.50713312720E+02  0.50713312720E+02  0.00000000000E+00 0. -1.
         25    2    1    2    0    0  0.24197317819E+02  0.63507268630E+02  0.30963823800E+03  0.34079265801E+03  0.12508042996E+03 0.  0.
          5    1    3    3  502    0  0.27798513940E+02  0.10010393550E+03  0.24772260278E+03  0.26865873448E+03  0.41800000000E+01 0.  1.
         -5    1    3    3    0  502 -0.36011961212E+01 -0.36596666871E+02  0.61915635221E+02  0.72133923534E+02  0.41800000000E+01 0.  1.
        -11    1    1    2    0    0 -0.87974272354E+01  0.13680439626E+02  0.49893547770E+02  0.52477759703E+02  0.00000000000E+00 0.  1.
         11    1    1    2    0    0 -0.15399890584E+02 -0.77187708256E+02  0.11918173283E+02  0.79606166785E+02  0.00000000000E+00 0. -1.
</event>
<event>
 7    1  0.2943257E-009  0.8043984E+02  0.7561462E-02  0.1327808E+00
         -2   -1    0    0    0  501 -0.00000000000E+00  0.00000000000E+00  0.98996755718E+02  0.98996755718E+02  0.00000000000E+00 0. -1.
          2   -1    0    0  501    0  0.00000000000E+00 -0.00000000000E+00 -0.14489146957E+03  0.14489146957E+03  0.00000000000E+00 0.  1.
         25    2    1    2    0    0  0.26254738747E+02 -0.44253127899E+02 -0.26925374624E+02  0.13791394401E+03  0.12509048533E+03 0.  0.
          5    1    3    3  502    0 -0.37805354097E+01 -0.69169468902E+02 -0.55913959583E+02  0.89120991648E+02  0.41800000000E+01 0. -1.
         -5    1    3    3    0  502  0.30035274157E+02  0.24916341003E+02  0.28988584959E+02  0.48792952366E+02  0.41800000000E+01 0. -1.
        -11    1    1    2    0    0 -0.54676181670E+01  0.17614025757E+02 -0.54144176196E+02  0.57199130830E+02  0.00000000000E+00 0.  1.
         11    1    1    2    0    0 -0.20787120580E+02  0.26639102143E+02  0.35174836968E+02  0.48775150443E+02  0.00000000000E+00 0. -1.
</event>
<event>
 7    1  0.2943257E-009  0.9128145E+02  0.7561462E-02  0.1299778E+00
         -4   -1    0    0    0  501 -0.00000000000E+00  0.00000000000E+00  0.64084068704E+03  0.64084068704E+03  0.00000000000E+00 0.  1.
          4   -1    0    0  501    0  0.00000000000E+00 -0.00000000000E+00 -0.18920231348E+02  0.18920231348E+02  0.00000000000E+00 0. -1.
         25    2    1    2    0    0  0.44396455862E+01  0.40574738584E+00  0.43256549128E+03  0.45031238176E+03  0.12509381214E+03 0.  0.
          5    1    3    3  502    0 -0.13945909048E+02  0.44388537260E+02  0.36229980856E+03  0.36529912990E+03  0.41800000000E+01 0. -1.
         -5    1    3    3    0  502  0.18385554634E+02 -0.43982789875E+02  0.70265682712E+02  0.85013251857E+02  0.41800000000E+01 0. -1.
        -11    1    1    2    0    0  0.39396182048E+02  0.14064681042E+02  0.70958380011E+02  0.82370905704E+02  0.00000000000E+00 0.  1.
         11    1    1    2    0    0 -0.43835827634E+02 -0.14470428428E+02  0.11839658440E+03  0.12707763092E+03  0.00000000000E+00 0. -1.
</event>
<event>
 7    1  0.2943257E-009  0.1554512E+03  0.7561462E-02  0.1193930E+00
          2   -1    0    0  501    0  0.00000000000E+00  0.00000000000E+00  0.43104065131E+03  0.43104065131E+03  0.00000000000E+00 0. -1.
         -2   -1    0    0    0  501 -0.00000000000E+00 -0.00000000000E+00 -0.13987053449E+03  0.13987053449E+03  0.00000000000E+00 0.  1.
         25    2    1    2    0    0  0.10443342427E+03 -0.85333802261E+02  0.35136697377E+03  0.39660488264E+03  0.12509390378E+03 0.  0.
          5    1    3    3  502    0  0.89774256129E+02 -0.11294802131E+03  0.23281674130E+03  0.27393024662E+03  0.41800000000E+01 0. -1.
         -5    1    3    3    0  502  0.14659168140E+02  0.27614219050E+02  0.11855023247E+03  0.12267463602E+03  0.41800000000E+01 0. -1.
        -11    1    1    2    0    0 -0.20638298754E+02  0.20304029755E+02 -0.61778765665E+02  0.68226159842E+02  0.00000000000E+00 0. -1.
         11    1    1    2    0    0 -0.83795125515E+02  0.65029772507E+02  0.15819087118E+01  0.10608014332E+03  0.00000000000E+00 0.  1.
</event>
<event>
 6    1  0.2943257E-009  0.1464505E+03  0.7561462E-02  0.1204904E+00
          2   -1    0    0  501    0  0.00000000000E+00  0.00000000000E+00  0.12244947811E+04  0.12244947811E+04  0.00000000000E+00 0. -1.
         -2   -1    0    0    0  501 -0.00000000000E+00 -0.00000000000E+00 -0.24713886082E+02  0.24713886082E+02  0.00000000000E+00 0.  1.
          5    1    1    2  502    0 -0.32862690179E+02  0.83154587215E+01  0.38292108945E+02  0.51311414588E+02  0.41800000000E+01 0.  1.
         -5    1    1    2    0  502 -0.76323581846E+02 -0.79945992710E+02  0.72251754513E+03  0.73093483042E+03  0.41800000000E+01 0.  1.
        -11    1    1    2    0    0  0.10522724303E+02 -0.13988364245E+02  0.14145637403E+02  0.22505579720E+02  0.00000000000E+00 0.  1.
         11    1    1    2    0    0  0.98663547722E+02  0.85618898234E+02  0.42482560356E+03  0.44445684248E+03  0.00000000000E+00 0. -1.
</event>
<event>
 7    1  0.2943257E-009  0.6887548E+02  0.7561462E-02  0.1363959E+00
         -2   -1    0    0    0  501 -0.00000000000E+00  0.00000000000E+00  0.10392195691E+03  0.10392195691E+03  0.00000000000E+00 0.  1.
          2   -1    0    0  501    0  0.00000000000E+00 -0.00000000000E+00 -0.17149436034E+03  0.17149436034E+03  0.00000000000E+00 0. -1.
         25    2    1    2    0    0  0.45730737748E+02 -0.42203765427E+02 -0.83545615549E+02  0.16279355283E+03  0.12509761298E+03 0.  0.
          5    1    3    3  502    0  0.63034244911E+01 -0.18160061642E+02 -0.10840882985E+03  0.11017925299E+03  0.41800000000E+01 0. -1.
         -5    1    3    3    0  502  0.39427313257E+02 -0.24043703785E+02  0.24863214302E+02  0.52614299842E+02  0.41800000000E+01 0. -1.
        -11    1    1    2    0    0 -0.35154490894E+02  0.48118365796E+02  0.49185723811E+02  0.77268692132E+02  0.00000000000E+00 0.  1.
         11    1    1    2    0    0 -0.10576246854E+02 -0.59146003692E+01 -0.33212511693E+02  0.35354072297E+02  0.00000000000E+00 0. -1.
</event>
<event>
 7    1  0.2943257E-009  0.9412375E+02  0.7561462E-02  0.1293162E+00
         -3   -1    0    0    0  501 -0.00000000000E+00  0.00000000000E+00  0.24690412671E+03  0.24690412671E+03  0.00000000000E+00 0.  1.
          3   -1    0    0  501    0  0.00000000000E+00 -0.00000000000E+00 -0.92649636647E+02  0.92649636647E+02  0.00000000000E+00 0. -1.
         25    2    1    2    0    0  0.66318494779E+02 -0.18610404123E+02 -0.90589414136E+01  0.14308675991E+03  0.12508903450E+03 0.  0.
          5    1    3    3  502    0  0.80755553814E+02 -0.99007996914E+01  0.40206177555E+02  0.90848744735E+02  0.41800000000E+01 0.  1.
         -5    1    3    3    0  502 -0.14437059036E+02 -0.87096044319E+01 -0.49265118968E+02  0.52238015180E+02  0.41800000000E+01 0.  1.
        -11    1    1    2    0    0  0.56532931591E+00  0.22409983488E+02  0.10587657166E+03  0.10822372837E+03  0.00000000000E+00 0.  1.
         11    1    1    2    0    0 -0.66883824094E+02 -0.37995793644E+01  0.57436859816E+02  0.88243275066E+02  0.00000000000E+00 0. -1.
</event>
<event>
 7    1  0.2943257E-009  0.1998438E+03  0.7561462E-02  0.1149871E+00
          2   -1    0    0  501    0  0.00000000000E+00  0.00000000000E+00  0.17264497050E+04  0.17264497050E+04  0.00000000000E+00 0. -1.
         -2   -1    0    0    0  501 -0.00000000000E+00 -0.00000000000E+00 -0.27938522435E+02  0.27938522435E+02  0.00000000000E+00 0.  1.
         25    2    1    2    0    0  0.15665168465E+03 -0.10764456770E+03  0.88175219648E+03  0.91063764009E+03  0.12508745851E+03 0.  0.
          5    1    3    3  502    0  0.42730220088E+02 -0.59480147579E+02  0.13447321789E+03  0.15318054183E+03  0.41800000000E+01 0. -1.
         -5    1    3    3    0  502  0.11392146456E+03 -0.48164420122E+02  0.74727897860E+03  0.75745709826E+03  0.41800000000E+01 0. -1.
        -11    1    1    2    0    0 -0.62126302825E+02  0.85159156516E+02  0.54607917067E+03  0.55616024676E+03  0.00000000000E+00 0. -1.
         11    1    1    2    0    0 -0.94525381825E+02  0.22485411186E+02  0.27067981539E+03  0.28759034056E+03  0.00000000000E+00 0.  1.
</event>
<event>
 7    1  0.2943257E-009  0.7724580E+02  0.7561462E-02  0.1337054E+00
         -2   -1    0    0    0  501 -0.00000000000E+00  0.00000000000E+00  0.46595441061E+02  0.46595441061E+02  0.00000000000E+00 0.  1.
          2   -1    0    0  501    0  0.00000000000E+00 -0.00000000000E+00 -0.35598265342E+03  0.35598265342E+03  0.00000000000E+00 0. -1.
         25    2    1    2    0    0  0.75435507319E+01 -0.31076427638E+02 -0.26462132895E+03  0.29443929570E+03  0.12508957431E+03 0.  0.
          5    1    3    3  502    0 -0.63571872263E+01 -0.51915150434E+02 -0.26386587015E+03  0.26903209196E+03  0.41800000000E+01 0. -1.
         -5    1    3    3    0  502  0.13900737958E+02  0.20838722797E+02 -0.75545879971E+00  0.25407203734E+02  0.41800000000E+01 0. -1.
        -11    1    1    2    0    0  0.30218662932E+02  0.47430044944E+01  0.13872639041E+02  0.33587405303E+02  0.00000000000E+00 0.  1.
         11    1    1    2    0    0 -0.37762213664E+02  0.26333423143E+02 -0.58638522449E+02  0.74551393483E+02  0.00000000000E+00 0. -1.
</event>
<event>
 7    1  0.2943257E-009  0.8074497E+02  0.7561462E-02  0.1326951E+00
         -2   -1    0    0    0  501 -0.00000000000E+00  0.00000000000E+00  0.28671717544E+02  0.28671717544E+02  0.00000000000E+00 0.  1.
          2   -1    0    0  501    0  0.00000000000E+00 -0.00000000000E+00 -0.48743937214E+03  0.48743937214E+03  0.00000000000E+00 0. -1.
         25    2    1    2    0    0 -0.13695820269E+02  0.27570264431E+02 -0.18283541157E+03  0.22366144093E+03  0.12509179614E+03 0.  0.
          5    1    3    3  502    0  0.24447517921E+02  0.38980195078E+01 -0.17632991625E+03  0.17810835874E+03  0.41800000000E+01 0. -1.
         -5    1    3    3    0  502 -0.38143338190E+02  0.23672244924E+02 -0.65054953247E+01  0.45553082195E+02  0.41800000000E+01 0. -1.
        -11    1    1    2    0    0  0.49276934153E+02 -0.58814960555E+01 -0.19744817463E+03  0.20358926765E+03  0.00000000000E+00 0. -1.
         11    1    1    2    0    0 -0.35581113883E+02 -0.21688768376E+02 -0.78484068396E+02  0.88860381109E+02  0.00000000000E+00 0.  1.
</event>
<event>
 7    1  0.2943257E-009  0.1339623E+03  0.7561462E-02  0.1221692E+00
         -1   -1    0    0    0  501 -0.00000000000E+00  0.00000000000E+00  0.26215840497E+02  0.26215840497E+02  0.00000000000E+00 0.  1.
          1   -1    0    0  501    0  0.00000000000E+00 -0.00000000000E+00 -0.10391165674E+04  0.10391165674E+04  0.00000000000E+00 0. -1.
         25    2    1    2    0    0 -0.10203597392E+03 -0.16498512965E+02 -0.34013042775E+03  0.37685502824E+03  0.12508982183E+03 0.  0.
          5    1    3    3  502    0 -0.68204252518E+02  0.20768226105E+02 -0.30983472403E+03  0.31795938088E+03  0.41800000000E+01 0. -1.
         -5    1    3    3    0  502 -0.33831721397E+02 -0.37266739070E+02 -0.30295703722E+02  0.58895647358E+02  0.41800000000E+01 0. -1.
        -11    1    1    2    0    0  0.40438123117E+02  0.58737098178E+02 -0.34764178310E+03  0.35488039937E+03  0.00000000000E+00 0. -1.
         11    1    1    2    0    0  0.61597850798E+02 -0.42238585212E+02 -0.32512851610E+03  0.33359698033E+03  0.00000000000E+00 0.  1.
</event>
<event>
 7    1  0.2943257E-009  0.1089849E+03  0.7561462E-02  0.1262461E+00
         -1   -1    0    0    0  501 -0.00000000000E+00  0.00000000000E+00  0.37672665001E+02  0.37672665001E+02  0.00000000000E+00 0.  1.
          1   -1    0    0  501    0  0.00000000000E+00 -0.00000000000E+00 -0.42793550564E+03  0.42793550564E+03  0.00000000000E+00 0. -1.
         25    2    1    2    0    0 -0.37799879811E+02  0.24297697639E+02 -0.30416991386E+03  0.33194299115E+03  0.12509038272E+03 0.  0.
          5    1    3    3  502    0 -0.23522533759E+02 -0.49314355972E+02 -0.94617972680E+02  0.10934005878E+03  0.41800000000E+01 0. -1.
         -5    1    3    3    0  502 -0.14277346052E+02  0.73612053611E+02 -0.20955194118E+03  0.22260293237E+03  0.41800000000E+01 0. -1.
        -11    1    1    2    0    0  0.41129243219E+02  0.18533692759E+02 -0.98853999277E+01  0.46182610870E+02  0.00000000000E+00 0.  1.
         11    1    1    2    0    0 -0.33293634084E+01 -0.42831390399E+02 -0.76207526851E+02  0.87482568624E+02  0.00000000000E+00 0. -1.
</event>
<event>
 7    1  0.2943257E-009  0.9880564E+02  0.7561462E-02  0.1282828E+00
          2   -1    0    0  501    0  0.00000000000E+00  0.00000000000E+00  0.29194615181E+03  0.29194615181E+03  0.00000000000E+00 0. -1.
         -2   -1    0    0    0  501 -0.00000000000E+00 -0.00000000000E+00 -0.49513242443E+02  0.49513242443E+02  0.00000000000E+00 0.  1.
         25    2    1    2    0    0  0.10702397234E+02  0.47019485443E+02  0.13252419677E+03  0.18850856168E+03  0.12508973491E+03 0.  0.
          5    1    3    3  502    0  0.54818537825E+02  0.63291971053E+02  0.10309499751E+03  0.13287963200E+03  0.41800000000E+01 0.  1.
         -5    1    3    3    0  502 -0.44116140592E+02 -0.16272485610E+02  0.29429199258E+02  0.55628929682E+02  0.41800000000E+01 0.  1.
        -11    1    1    2    0    0 -0.18107131635E+02  0.85266266338E+00 -0.12021017124E+02  0.21750864405E+02  0.00000000000E+00 0.  1.
         11    1    1    2    0    0  0.74047344011E+01 -0.47872148106E+02  0.12192972973E+03  0.13119996817E+03  0.00000000000E+00 0. -1.
</event>
<event>
 7    1  0.2943257E-009  0.1169869E+03  0.7561462E-02  0.1248152E+00
         -1   -1    0    0    0  501 -0.00000000000E+00  0.00000000000E+00  0.21529064263E+02  0.21529064263E+02  0.00000000000E+00 0.  1.
          1   -1    0    0  501    0  0.00000000000E+00 -0.00000000000E+00 -0.90021239399E+03  0.90021239399E+03  0.00000000000E+00 0. -1.
         25    2    1    2    0    0 -0.24087824463E+01  0.65314909113E+02 -0.66560290979E+03  0.68040145519E+03  0.12508823729E+03 0.  0.
          5    1    3    3  502    0 -0.67253278309E+01 -0.32193601925E+02 -0.78312672051E+02  0.85041196153E+02  0.41800000000E+01 0. -1.
         -5    1    3    3    0  502  0.43165453846E+01  0.97508511038E+02 -0.58729023774E+03  0.59536025903E+03  0.41800000000E+01 0. -1.
        -11    1    1    2    0    0  0.11527958312E+02  0.16872952487E+02 -0.11479107390E+02  0.23438435420E+02  0.00000000000E+00 0.  1.
         11    1    1    2    0    0 -0.91191758659E+01 -0.82187861600E+02 -0.20160131254E+03  0.21790156764E+03  0.00000000000E+00 0. -1.
</event>
<event>
 7    1  0.2943257E-009  0.1184484E+03  0.7561462E-02  0.1245679E+00
          3   -1    0    0  501    0  0.00000000000E+00  0.00000000000E+00  0.64809527113E+02  0.64809527113E+02  0.00000000000E+00 0. -1.
         -3   -1    0    0    0  501 -0.00000000000E+00 -0.00000000000E+00 -0.41150079536E+03  0.41150079536E+03  0.00000000000E+00 0.  1.
         25    2    1    2    0    0  0.72734615394E+02 -0.26666996719E+02 -0.50102947373E+02  0.15543102880E+03  0.12508815447E+03 0.  0.
          5    1    3    3  502    0 -0.24053610242E+02 -0.56752005297E+01  0.21601361848E+02  0.33088899958E+02  0.41800000000E+01 0. -1.
         -5    1    3    3    0  502  0.96788225636E+02 -0.20991796189E+02 -0.71704309221E+02  0.12234212884E+03  0.41800000000E+01 0. -1.
        -11    1    1    2    0    0 -0.60922808553E+02  0.54957158275E+02 -0.14857582257E+03  0.16972522765E+03  0.00000000000E+00 0. -1.
         11    1    1    2    0    0 -0.11811806841E+02 -0.28290161556E+02 -0.14801249830E+03  0.15115406602E+03  0.00000000000E+00 0.  1.
</event>
<event>
 7    1  0.2943257E-009  0.5939246E+02  0.7561462E-02  0.1400399E+00
          1   -1    0    0  501    0  0.00000000000E+00  0.00000000000E+00  0.12546068641E+03  0.12546068641E+03  0.00000000000E+00 0. -1.
         -1   -1    0    0    0  501 -0.00000000000E+00 -0.00000000000E+00 -0.20889973530E+03  0.20889973530E+03  0.00000000000E+00 0.  1.
         25    2    1    2    0    0 -0.17855235227E+02  0.11029918279E+02 -0.16628199451E+03  0.20913394625E+03  0.12508731852E+03 0.  0.
          5    1    3    3  502    0 -0.26728239889E+02 -0.41465683857E+01  0.12038891133E+02  0.29899835060E+02  0.41800000000E+01 0. -1.
         -5    1    3    3    0  502  0.88730046618E+01  0.15176486664E+02 -0.17832088564E+03  0.17923411119E+03  0.41800000000E+01 0. -1.
        -11    1    1    2    0    0 -0.19032292175E+02 -0.27095248217E+02  0.77956029417E+02  0.84696653675E+02  0.00000000000E+00 0. -1.
         11    1    1    2    0    0  0.36887527402E+02  0.16065329938E+02  0.48869162086E+01  0.40529821784E+02  0.00000000000E+00 0.  1.
</event>
<event>
 7    1  0.2943257E-009  0.1138325E+03  0.7561462E-02  0.1253633E+00
         -2   -1    0    0    0  501 -0.00000000000E+00  0.00000000000E+00  0.48311928197E+02  0.48311928197E+02  0.00000000000E+00 0.  1.
          2   -1    0    0  501    0  0.00000000000E+00 -0.00000000000E+00 -0.30491763095E+03  0.30491763095E+03  0.00000000000E+00 0. -1.
         25    2    1    2    0    0  0.35723626200E+02  0.17585718083E+01 -0.19800423421E+03  0.23692006993E+03  0.12508466225E+03 0.  0.
          5    1    3    3  502    0  0.32977059756E+02  0.61627196199E+02 -0.10673973736E+03  0.12765673391E+03  0.41800000000E+01 0.  1.
         -5    1    3    3    0  502  0.27465664434E+01 -0.59868624390E+02 -0.91264496843E+02  0.10926333602E+03  0.41800000000E+01 0.  1.
        -11    1    1    2    0    0 -0.14558800705E+02 -0.46148202514E+02 -0.42950001986E+02  0.64701761521E+02  0.00000000000E+00 0. -1.
         11    1    1    2    0    0 -0.21164825495E+02  0.44389630706E+02 -0.15651466565E+02  0.51607727697E+02  0.00000000000E+00 0.  1.
</event>
<event>
 7    1  0.2943257E-009  0.9446725E+02  0.7561462E-02  0.1292380E+00
         -3   -1    0    0    0  501 -0.00000000000E+00  0.00000000000E+00  0.48107469994E+02  0.48107469994E+02  0.00000000000E+00 0.  1.
          3   -1    0    0  501    0  0.00000000000E+00 -0.00000000000E+00 -0.28228804815E+03  0.28228804815E+03  0.00000000000E+00 0. -1.
         25    2    1    2    0    0  0.31716264591E+02 -0.19712063140E+02 -0.10069649335E+03  0.16486670999E+03  0.12508701539E+03 0.  0.
          5    1    3    3  502    0  0.77556077907E+02 -0.15247200965E+02 -0.40364300377E+02  0.88849150263E+02  0.41800000000E+01 0.  1.
         -5    1    3    3    0  502 -0.45839813316E+02 -0.44648621748E+01 -0.60332192968E+02  0.76017559731E+02  0.41800000000E+01 0.  1.
        -11    1    1    2    0    0  0.14215859188E+02  0.71808086822E+01  0.68507955969E+01  0.17337475770E+02  0.00000000000E+00 0.  1.
         11    1    1    2    0    0 -0.45932123779E+02  0.12531254458E+02 -0.14033488041E+03  0.14819133238E+03  0.00000000000E+00 0. -1.
</event>
<event>
 7    1  0.2943257E-009  0.1045505E+03  0.7561462E-02  0.1271008E+00
          1   -1    0    0  501    0  0.00000000000E+00  0.00000000000E+00  0.33903783094E+03  0.33903783094E+03  0.00000000000E+00 0. -1.
         -1   -1    0    0    0  501 -0.00000000000E+00 -0.00000000000E+00 -0.63315432859E+02  0.63315432859E+02  0.00000000000E+00 0.  1.
         25    2    1    2    0    0 -0.93397440395E+02 -0.77323424696E+01  0.19342365467E+03  0.24867940482E+03  0.12508343295E+03 0.  0.
          5    1    3    3  502    0 -0.72731218250E+01 -0.67023579222E+01  0.15311598830E+03  0.15349201339E+03  0.41800000000E+01 0.  1.
         -5    1    3    3    0  502 -0.86124318570E+02 -0.10299845474E+01  0.40307666376E+02  0.95187391423E+02  0.41800000000E+01 0.  1.
        -11    1    1    2    0    0  0.47156000032E+02  0.34749135766E+02  0.38698936006E+01  0.58704061631E+02  0.00000000000E+00 0.  1.
         11    1    1    2    0    0  0.46241440363E+02 -0.27016793297E+02  0.78428849805E+02  0.94969797350E+02  0.00000000000E+00 0. -1.
</event>
<event>
 7    1  0.2943257E-009  0.1819891E+03  0.7561462E-02  0.1165892E+00
         -1   -1    0    0    0  501 -0.00000000000E+00  0.00000000000E+00  0.32493040455E+03  0.32493040455E+03  0.00000000000E+00 0.  1.
          1   -1    0    0  501    0  0.00000000000E+00 -0.00000000000E+00 -0.10984937094E+03  0.10984937094E+03  0.00000000000E+00 0. -1.
         25    2    1    2    0    0 -0.15397227090E+03  0.28498982413E+01  0.13128250456E+03  0.23790427288E+03  0.12509102656E+03 0.  0.
          5    1    3    3  502    0  0.12926021704E+02  0.17137167342E+02  0.43626175242E+02  0.48800410939E+02  0.41800000000E+01 0.  1.
         -5    1    3    3    0  502 -0.16689829260E+03 -0.14287269101E+02  0.87656329313E+02  0.18910386194E+03  0.41800000000E+01 0.  1.
        -11    1    1    2    0    0  0.27468688480E+02  0.33121894376E+02  0.44143507911E+01  0.43255927071E+02  0.00000000000E+00 0. -1.
         11    1    1    2    0    0  0.12650358242E+03 -0.35971792618E+02  0.79384178265E+02  0.15361957553E+03  0.00000000000E+00 0.  1.
</event>
<event>
 7    1  0.2943257E-009  0.1187110E+03  0.7561462E-02  0.1245239E+00
         -1   -1    0    0    0  501 -0.00000000000E+00  0.00000000000E+00  0.30958280320E+03  0.30958280320E+03  0.00000000000E+00 0.  1.
          1   -1    0    0  501    0  0.00000000000E+00 -0.00000000000E+00 -0.60555480665E+02  0.60555480665E+02  0.00000000000E+00 0. -1.
         25    2    1    2    0    0  0.53333848884E+02  0.58527695185E+02  0.17381958622E+03  0.22831770037E+03  0.12508290534E+03 0.  0.
          5    1    3    3  502    0 -0.71934154045E+01 -0.18552777423E+02  0.10867956040E+03  0.11056522972E+03  0.41800000000E+01 0. -1.
         -5    1    3    3    0  502  0.60527264288E+02  0.77080472608E+02  0.65140025825E+02  0.11775247065E+03  0.41800000000E+01 0. -1.
        -11    1    1    2    0    0 -0.78427253115E+02 -0.42234337873E+02  0.47065921959E+02  0.10074608844E+03  0.00000000000E+00 0. -1.
         11    1    1    2    0    0  0.25093404231E+02 -0.16293357312E+02  0.28141814352E+02  0.41074495048E+02  0.00000000000E+00 0.  1.
</event>
<event>
 7    1  0.2943257E-009  0.1038397E+03  0.7561462E-02  0.1272423E+00
         -1   -1    0    0    0  501 -0.00000000000E+00  0.00000000000E+00  0.21987828942E+03  0.21987828942E+03  0.00000000000E+00 0.  1.
          1   -1    0    0  501    0  0.00000000000E+00 -0.00000000000E+00 -0.64230544124E+02  0.64230544124E+02  0.00000000000E+00 0. -1.
         25    2    1    2    0    0 -0.12959764372E+02  0.35337740881E+02  0.49583507354E+02  0.13972253693E+03  0.12508857542E+03 0.  0.
          5    1    3    3  502    0  0.60930039460E+01  0.76528591421E+02  0.53969896313E+02  0.93936000075E+02  0.41800000000E+01 0.  1.
         -5    1    3    3    0  502 -0.19052768318E+02 -0.41190850540E+02 -0.43863889587E+01  0.45786536852E+02  0.41800000000E+01 0.  1.
        -11    1    1    2    0    0 -0.29893502049E+02 -0.29449678600E+02  0.16814174582E+02  0.45206432079E+02  0.00000000000E+00 0. -1.
         11    1    1    2    0    0  0.42853266421E+02 -0.58880622813E+01  0.89250063363E+02  0.99179864542E+02  0.00000000000E+00 0.  1.
</event>
<event>
 7    1  0.2943257E-009  0.1081273E+03  0.7561462E-02  0.1264078E+00
          2   -1    0    0  501    0  0.00000000000E+00  0.00000000000E+00  0.11649649369E+03  0.11649649369E+03  0.00000000000E+00 0. -1.
         -2   -1    0    0    0  501 -0.00000000000E+00 -0.00000000000E+00 -0.16559295846E+03  0.16559295846E+03  0.00000000000E+00 0.  1.
         25    2    1    2    0    0 -0.68521325653E+02 -0.20834154441E+02  0.22800604415E+02  0.14593413435E+03  0.12509064692E+03 0.  0.
          5    1    3    3  502    0 -0.10237598449E+03  0.29480397342E+01  0.14396938565E+02  0.10350979364E+03  0.41800000000E+01 0.  1.
         -5    1    3    3    0  502  0.33854658842E+02 -0.23782194175E+02  0.84036658495E+01  0.42424340712E+02  0.41800000000E+01 0.  1.
        -11    1    1    2    0    0  0.28510177181E+02  0.13270679421E+02 -0.87167296344E+02  0.92666491717E+02  0.00000000000E+00 0.  1.
         11    1    1    2    0    0  0.40011148471E+02  0.75634750203E+01  0.15270227156E+02  0.43488826080E+02  0.00000000000E+00 0. -1.
</event>
<event>
 7    1  0.2943257E-009  0.1119961E+03  0.7561462E-02  0.1256918E+00
         -3   -1    0    0    0  501 -0.00000000000E+00  0.00000000000E+00  0.19994028258E+03  0.19994028258E+03  0.00000000000E+00 0.  1.
          3   -1    0    0  501    0  0.00000000000E+00 -0.00000000000E+00 -0.88045581296E+02  0.88045581296E+02  0.00000000000E+00 0. -1.
         25    2    1    2    0    0 -0.56917857508E+02 -0.25347355200E+02  0.14132318269E+02  0.14046129291E+03  0.12509005343E+03 0.  0.
          5    1    3    3  502    0 -0.39167113124E+02 -0.61867519481E+02 -0.30984423602E+02  0.79618839624E+02  0.41800000000E+01 0. -1.
         -5    1    3    3    0  502 -0.17750744384E+02  0.36520164281E+02  0.45116741870E+02  0.60842453289E+02  0.41800000000E+01 0. -1.
        -11    1    1    2    0    0  0.34517053612E+02 -0.32738717917E+02  0.34496438403E+02  0.58764401668E+02  0.00000000000E+00 0.  1.
         11    1    1    2    0    0  0.22400803896E+02  0.58086073117E+02  0.63265944609E+02  0.88760169291E+02  0.00000000000E+00 0. -1.
</event>
<event>
 7    1  0.2943257E-009  0.1665069E+03  0.7561462E-02  0.1181540E+00
          2   -1    0    0  501    0  0.00000000000E+00  0.00000000000E+00  0.46689713308E+03  0.46689713308E+03  0.00000000000E+00 0. -1.
         -2   -1    0    0    0  501 -0.00000000000E+00 -0.00000000000E+00 -0.68622312792E+02  0.68622312792E+02  0.00000000000E+00 0.  1.
         25    2    1    2    0    0 -0.14341544477E+03 -0.42850596214E+01  0.18227415222E+03  0.26354835391E+03  0.12509003456E+03 0.  0.
          5    1    3    3  502    0 -0.15628105245E+03 -0.34110345907E+01  0.11292264287E+03  0.19288441665E+03  0.41800000000E+01 0. -1.
         -5    1    3    3    0  502  0.12865607678E+02 -0.87402503065E+00  0.69351509350E+02  0.70663937265E+02  0.41800000000E+01 0. -1.
        -11    1    1    2    0    0  0.25842242449E+02 -0.30972796612E+02  0.73937286137E+02  0.84225043224E+02  0.00000000000E+00 0.  1.
         11    1    1    2    0    0  0.11757320232E+03  0.35257856233E+02  0.14206338192E+03  0.18774604873E+03  0.00000000000E+00 0. -1.
</event>
<event>
 7    1  0.2943257E-009  0.1451639E+03  0.7561462E-02  0.1206545E+00
          2   -1    0    0  501    0  0.00000000000E+00  0.00000000000E+00  0.40379482631E+03  0.40379482631E+03  0.00000000000E+00 0. -1.
         -2   -1    0    0    0  501 -0.00000000000E+00 -0.00000000000E+00 -0.77528680133E+02  0.77528680133E+02  0.00000000000E+00 0.  1.
         25    2    1    2    0    0  0.38860490271E+02 -0.10882975665E+03  0.65585188846E+02  0.18249356492E+03  0.12509368731E+03 0.  0.
          5    1    3    3  502    0  0.64256316732E+02 -0.50858102328E+02  0.83005386006E+02  0.11671669683E+03  0.41800000000E+01 0.  1.
         -5    1    3    3    0  502 -0.25395826462E+02 -0.57971654324E+02 -0.17420197160E+02  0.65776868091E+02  0.41800000000E+01 0.  1.
        -11    1    1    2    0    0  0.25904278342E+02  0.54373545553E+02  0.12802366674E+03  0.14148347373E+03  0.00000000000E+00 0. -1.
         11    1    1    2    0    0 -0.64764768613E+02  0.54456211099E+02  0.13265729059E+03  0.15734646779E+03  0.00000000000E+00 0.  1.
</event>
<event>
 7    1  0.2943257E-009  0.1234123E+03  0.7561462E-02  0.1237572E+00
         -1   -1    0    0    0  501 -0.00000000000E+00  0.00000000000E+00  0.36760074232E+03  0.36760074232E+03  0.00000000000E+00 0.  1.
          1   -1    0    0  501    0  0.00000000000E+00 -0.00000000000E+00 -0.53545181456E+02  0.53545181456E+02  0.00000000000E+00 0. -1.
         25    2    1    2    0    0  0.80929139170E+02  0.36746056301E+02  0.18634722019E+03  0.24139728159E+03  0.12509021891E+03 0.  0.
          5    1    3    3  502    0  0.14715671998E+02  0.51844763039E+02  0.15922319561E+03  0.16814853219E+03  0.41800000000E+01 0. -1.
         -5    1    3    3    0  502  0.66213467173E+02 -0.15098706738E+02  0.27124024581E+02  0.73248749407E+02  0.41800000000E+01 0. -1.
        -11    1    1    2    0    0 -0.65334710816E+02  0.18029096669E+02  0.54343077934E+02  0.86872566921E+02  0.00000000000E+00 0.  1.
         11    1    1    2    0    0 -0.15594428355E+02 -0.54775152970E+02  0.73365262737E+02  0.92876075256E+02  0.00000000000E+00 0. -1.
</event>
<event>
 7    1  0.2943257E-009  0.8596982E+02  0.7561462E-02  0.1312916E+00
          2   -1    0    0  501    0  0.00000000000E+00  0.00000000000E+00  0.20688899935E+03  0.20688899935E+03  0.00000000000E+00 0.  1.
         -2   -1    0    0    0  501 -0.00000000000E+00 -0.00000000000E+00 -0.61566406848E+02  0.61566406848E+02  0.00000000000E+00 0. -1.
         25    2    1    2    0    0 -0.27639719145E+02 -0.20651488379E+02  0.67000086507E+02  0.14603888238E+03  0.12509158856E+03 0.  0.
          5    1    3    3  502    0  0.11025332686E+02  0.19996997204E+02  0.84096849679E+02  0.87242136517E+02  0.41800000000E+01 0.  1.
         -5    1    3    3    0  502 -0.38665051830E+02 -0.40648485583E+02 -0.17096763172E+02  0.58796745864E+02  0.41800000000E+01 0.  1.
        -11    1    1    2    0    0  0.29908812327E+02 -0.29650905405E+02  0.47032426760E+02  0.63132894857E+02  0.00000000000E+00 0. -1.
         11    1    1    2    0    0 -0.22690931826E+01  0.50302393785E+02  0.31290079239E+02  0.59283628964E+02  0.00000000000E+00 0.  1.
</event>
<event>
 7    1  0.2943257E-009  0.1009729E+03  0.7561462E-02  0.1278263E+00
         -2   -1    0    0    0  501 -0.00000000000E+00  0.00000000000E+00  0.52756136285E+03  0.52756136285E+03  0.00000000000E+00 0.  1.
          2   -1    0    0  501    0  0.00000000000E+00 -0.00000000000E+00 -0.36206585629E+02  0.36206585629E+02  0.00000000000E+00 0. -1.
         25    2    1    2    0    0 -0.51045272394E+02 -0.31200361128E+02  0.39649920063E+03  0.42004477533E+03  0.12508762853E+03 0.  0.
          5    1    3    3  502    0  0.37483484406E+02  0.11687084588E+02  0.13362807000E+03  0.13933963198E+03  0.41800000000E+01 0. -1.
         -5    1    3    3    0  502 -0.88528756800E+02 -0.42887445717E+02  0.26287113063E+03  0.28070514335E+03  0.41800000000E+01 0. -1.
        -11    1    1    2    0    0  0.28256048583E+02  0.40339380078E+01  0.10338480874E+03  0.10725248536E+03  0.00000000000E+00 0.  1.
         11    1    1    2    0    0  0.22789223811E+02  0.27166423120E+02 -0.85292321497E+01  0.36470687794E+02  0.00000000000E+00 0. -1.
</event>
<event>
 7    1  0.2943257E-009  0.1130101E+03  0.7561462E-02  0.1255095E+00
         -1   -1    0    0    0  501 -0.00000000000E+00  0.00000000000E+00  0.32645544880E+02  0.32645544880E+02  0.00000000000E+00 0.  1.
          1   -1    0    0  501    0  0.00000000000E+00 -0.00000000000E+00 -0.40634223721E+03  0.40634223721E+03  0.00000000000E+00 0. -1.
         25    2    1    2    0    0  0.28623956061E+02  0.24634813403E+02 -0.23655451712E+03  0.27024395002E+03  0.12509015972E+03 0.  0.
          5    1    3    3  502    0 -0.47669948674E+02 -0.39372145085E+01 -0.10487535219E+03  0.11534399664E+03  0.41800000000E+01 0.  1.
         -5    1    3    3    0  502  0.76293904735E+02  0.28572027911E+02 -0.13167916493E+03  0.15489995338E+03  0.41800000000E+01 0.  1.
        -11    1    1    2    0    0 -0.38361255643E+02  0.25039679091E+02 -0.48844074267E+02  0.66965028593E+02  0.00000000000E+00 0.  1.
         11    1    1    2    0    0  0.97372995819E+01 -0.49674492493E+02 -0.88298100936E+02  0.10177880347E+03  0.00000000000E+00 0. -1.
</event>
<event>
 7    1  0.3126152E-009  0.1277374E+03  0.7561462E-02  0.1230852E+00
          2   -1    0    0  501    0  0.00000000000E+00  0.00000000000E+00  0.16527479630E+03  0.16527479630E+03  0.00000000000E+00 0. -1.
         -2   -1    0    0    0  501 -0.00000000000E+00 -0.00000000000E+00 -0.12445762006E+03  0.12445762006E+03  0.00000000000E+00 0.  1.
         25    2    1    2    0    0  0.59681655018E+02 -0.71792839763E+02  0.15258096658E+02  0.15683251029E+03  0.12509002752E+03 0.  0.
          5    1    3    3  502    0  0.98632288206E+01  0.35773978609E+02  0.63725018781E+01  0.37883268186E+02  0.41800000000E+01 0. -1.
         -5    1    3    3    0  502  0.49818426197E+02 -0.10756681837E+03  0.88855947803E+01  0.11894924211E+03  0.41800000000E+01 0. -1.
        -11    1    1    2    0    0 -0.18426889970E+01  0.25134673499E+02  0.48896458214E+02  0.55009189601E+02  0.00000000000E+00 0. -1.
         11    1    1    2    0    0 -0.57838966021E+02  0.46658166264E+02 -0.23337378639E+02  0.77890716464E+02  0.00000000000E+00 0.  1.
</event>
<event>
 7    1  0.2943257E-009  0.2466522E+03  0.7561462E-02  0.1115439E+00
          2   -1    0    0  501    0  0.00000000000E+00  0.00000000000E+00  0.21740625076E+04  0.21740625076E+04  0.00000000000E+00 0.  1.
         -2   -1    0    0    0  501 -0.00000000000E+00 -0.00000000000E+00 -0.32178310344E+02  0.32178310344E+02  0.00000000000E+00 0. -1.
         25    2    1    2    0    0  0.37131494421E+01 -0.23789101172E+03  0.95005918629E+03  0.98735326561E+03  0.12509233673E+03 0.  0.
          5    1    3    3  502    0 -0.30026983785E+02 -0.13814566072E+03  0.72731689449E+03  0.74094074037E+03  0.41800000000E+01 0.  1.
         -5    1    3    3    0  502  0.33740133227E+02 -0.99745350993E+02  0.22274229181E+03  0.24641252524E+03  0.41800000000E+01 0.  1.
        -11    1    1    2    0    0  0.28395192945E+02  0.15537214476E+03  0.90589887469E+03  0.91956487619E+03  0.00000000000E+00 0.  1.
         11    1    1    2    0    0 -0.32108342387E+02  0.82518866954E+02  0.28592613628E+03  0.29932267616E+03  0.00000000000E+00 0. -1.
</event>
<event>
 7    1  0.2943257E-009  0.1044387E+03  0.7561462E-02  0.1271230E+00
          2   -1    0    0  501    0  0.00000000000E+00  0.00000000000E+00  0.94085948265E+02  0.94085948265E+02  0.00000000000E+00 0. -1.
         -2   -1    0    0    0  501 -0.00000000000E+00 -0.00000000000E+00 -0.17504870755E+03  0.17504870755E+03  0.00000000000E+00 0.  1.
         25    2    1    2    0    0 -0.75695041749E+01 -0.44073163075E+01  0.25875938473E+02  0.12803811893E+03  0.12508986320E+03 0.  0.
          5    1    3    3  502    0  0.40260133346E+02  0.37300192991E+02 -0.85790560869E+01  0.55706869752E+02  0.41800000000E+01 0. -1.
         -5    1    3    3    0  502 -0.47829637521E+02 -0.41707509298E+02  0.34454994560E+02  0.72331249176E+02  0.41800000000E+01 0. -1.
        -11    1    1    2    0    0  0.34665608857E+02  0.35074517505E+02 -0.72462526376E+02  0.87651263222E+02  0.00000000000E+00 0.  1.
         11    1    1    2    0    0 -0.27096104682E+02 -0.30667201197E+02 -0.34376171379E+02  0.53445273663E+02  0.00000000000E+00 0. -1.
</event>
<event>
 7    1  0.2943257E-009  0.2760657E+03  0.7561462E-02  0.1097857E+00
         -1   -1    0    0    0  501 -0.00000000000E+00  0.00000000000E+00  0.17111906052E+03  0.17111906052E+03  0.00000000000E+00 0.  1.
          1   -1    0    0  501    0  0.00000000000E+00 -0.00000000000E+00 -0.53565391593E+03  0.53565391593E+03  0.00000000000E+00 0. -1.
         25    2    1    2    0    0  0.24427332044E+03  0.11832504689E+03 -0.93394269208E+02  0.31311365546E+03  0.12508956757E+03 0.  0.
          5    1    3    3  502    0  0.20960938385E+03  0.77536685182E+02 -0.23186766515E+02  0.22472901434E+03  0.41800000000E+01 0. -1.
         -5    1    3    3    0  502  0.34663936591E+02  0.40788361711E+02 -0.70207502693E+02  0.88384641117E+02  0.41800000000E+01 0. -1.
        -11    1    1    2    0    0 -0.88738741302E+02 -0.20197358439E+02 -0.14304667851E+03  0.16954306158E+03  0.00000000000E+00 0.  1.
         11    1    1    2    0    0 -0.15553457913E+03 -0.98127688454E+02 -0.12809390769E+03  0.22411625942E+03  0.00000000000E+00 0. -1.
</event>
<event>
 7    1  0.2943257E-009  0.1026034E+03  0.7561462E-02  0.1274915E+00
          2   -1    0    0  501    0  0.00000000000E+00  0.00000000000E+00  0.70668204184E+03  0.70668204184E+03  0.00000000000E+00 0. -1.
         -2   -1    0    0    0  501 -0.00000000000E+00 -0.00000000000E+00 -0.22446106654E+02  0.22446106654E+02  0.00000000000E+00 0.  1.
         25    2    1    2    0    0 -0.61380183860E+02  0.20547916168E+02  0.38707089003E+03  0.41190373259E+03  0.12510422528E+03 0.  0.
          5    1    3    3  502    0 -0.87967418497E+02  0.46009311133E+02  0.23040097232E+03  0.25091274156E+03  0.41800000000E+01 0. -1.
         -5    1    3    3    0  502  0.26587234637E+02 -0.25461394965E+02  0.15666991770E+03  0.16099099103E+03  0.41800000000E+01 0. -1.
        -11    1    1    2    0    0  0.48323039642E+02 -0.25733110136E+02  0.29815575166E+03  0.30314049774E+03  0.00000000000E+00 0. -1.
         11    1    1    2    0    0  0.13057144218E+02  0.51851939688E+01 -0.99070650645E+00  0.14083918170E+02  0.00000000000E+00 0.  1.
</event>
<event>
 7    1  0.2943257E-009  0.9099549E+02  0.7561462E-02  0.1300459E+00
         -2   -1    0    0    0  501 -0.00000000000E+00  0.00000000000E+00  0.60684019571E+02  0.60684019571E+02  0.00000000000E+00 0.  1.
          2   -1    0    0  501    0  0.00000000000E+00 -0.00000000000E+00 -0.25630857130E+03  0.25630857130E+03  0.00000000000E+00 0. -1.
         25    2    1    2    0    0  0.58733445976E+02 -0.21749763972E+02 -0.91981922824E+02  0.16742296887E+03  0.12508839463E+03 0.  0.
          5    1    3    3  502    0  0.65014904021E+01 -0.28819922245E+02 -0.10810361213E+03  0.11214597920E+03  0.41800000000E+01 0. -1.
         -5    1    3    3    0  502  0.52231955574E+02  0.70701582734E+01  0.16121689305E+02  0.55276989671E+02  0.41800000000E+01 0. -1.
        -11    1    1    2    0    0 -0.28939060171E+00  0.38484862424E+02 -0.13383813210E+02  0.40746715681E+02  0.00000000000E+00 0.  1.
         11    1    1    2    0    0 -0.58444055374E+02 -0.16735098453E+02 -0.90258815696E+02  0.10882290632E+03  0.00000000000E+00 0. -1.
</event>
<event>
 7    1  0.2943257E-009  0.8738429E+02  0.7561462E-02  0.1309313E+00
          2   -1    0    0  501    0  0.00000000000E+00  0.00000000000E+00  0.10108704176E+03  0.10108704176E+03  0.00000000000E+00 0. -1.
         -2   -1    0    0    0  501 -0.00000000000E+00 -0.00000000000E+00 -0.14719612629E+03  0.14719612629E+03  0.00000000000E+00 0.  1.
         25    2    1    2    0    0  0.12560920855E+02  0.75833235847E+01  0.30224730380E+02  0.12952148796E+03  0.12508796100E+03 0.  0.
          5    1    3    3  502    0 -0.44962092836E+02  0.20154966919E+02  0.46930157551E+02  0.68174222192E+02  0.41800000000E+01 0. -1.
         -5    1    3    3    0  502  0.57523013691E+02 -0.12571643334E+02 -0.16705427172E+02  0.61347265768E+02  0.41800000000E+01 0. -1.
        -11    1    1    2    0    0  0.24127744524E+02 -0.15605120819E+02 -0.75950482556E+02  0.81204332717E+02  0.00000000000E+00 0.  1.
         11    1    1    2    0    0 -0.36688665379E+02  0.80217972344E+01 -0.38333234610E+00  0.37557347375E+02  0.00000000000E+00 0. -1.
</event>
<event>
 7    1  0.2943257E-009  0.1166830E+03  0.7561462E-02  0.1248672E+00
         -2   -1    0    0    0  501 -0.00000000000E+00  0.00000000000E+00  0.11054351704E+03  0.11054351704E+03  0.00000000000E+00 0. -1.
          2   -1    0    0  501    0  0.00000000000E+00 -0.00000000000E+00 -0.15072126716E+03  0.15072126716E+03  0.00000000000E+00 0.  1.
         25    2    1    2    0    0 -0.22230841806E+02  0.41348127305E+02  0.29697696672E+02  0.13686830290E+03  0.12508837353E+03 0.  0.
          5    1    3    3  502    0  0.21928726271E+02 -0.36313356586E+02 -0.12724890762E-01  0.42626300148E+02  0.41800000000E+01 0. -1.
         -5    1    3    3    0  502 -0.44159568077E+02  0.77661483890E+02  0.29710421563E+02  0.94242002749E+02  0.41800000000E+01 0. -1.
        -11    1    1    2    0    0  0.48800292949E+01  0.28713570036E+02 -0.10587108010E+02  0.30989847469E+02  0.00000000000E+00 0. -1.
         11    1    1    2    0    0  0.17350812511E+02 -0.70061697340E+02 -0.59288338783E+02  0.93406633836E+02  0.00000000000E+00 0.  1.
</event>
<event>
 7    1  0.2943257E-009  0.3569651E+03  0.7561462E-02  0.1059792E+00
         -3   -1    0    0    0  501 -0.00000000000E+00  0.00000000000E+00  0.23014459926E+03  0.23014459926E+03  0.00000000000E+00 0.  1.
          3   -1    0    0  501    0  0.00000000000E+00 -0.00000000000E+00 -0.77445964821E+03  0.77445964821E+03  0.00000000000E+00 0. -1.
         25    2    1    2    0    0 -0.12373465153E+03  0.32851480892E+03 -0.52119080315E+03  0.64072521960E+03  0.12512677604E+03 0.  0.
          5    1    3    3  502    0 -0.46996683143E+02  0.14978884005E+03 -0.13016299642E+03  0.20397368180E+03  0.41800000000E+01 0.  1.
         -5    1    3    3    0  502 -0.76737968390E+02  0.17872596887E+03 -0.39102780672E+03  0.43675153780E+03  0.41800000000E+01 0.  1.
        -11    1    1    2    0    0  0.93037226201E+02 -0.12135131561E+03  0.22011421799E+01  0.15292780089E+03  0.00000000000E+00 0.  1.
         11    1    1    2    0    0  0.30697425332E+02 -0.20716349332E+03 -0.25325387980E+02  0.21095122697E+03  0.00000000000E+00 0. -1.
</event>
<event>
 7    1  0.2943257E-009  0.1153149E+03  0.7561462E-02  0.1251032E+00
         -2   -1    0    0    0  501 -0.00000000000E+00  0.00000000000E+00  0.18873723063E+02  0.18873723063E+02  0.00000000000E+00 0.  1.
          2   -1    0    0  501    0  0.00000000000E+00 -0.00000000000E+00 -0.81864632738E+03  0.81864632738E+03  0.00000000000E+00 0. -1.
         25    2    1    2    0    0 -0.28541847045E+01  0.50021180643E+02 -0.60281847473E+03  0.61769558973E+03  0.12508982059E+03 0.  0.
          5    1    3    3  502    0 -0.38218148989E+02  0.79631209479E+02 -0.39948952029E+03  0.40915902245E+03  0.41800000000E+01 0. -1.
         -5    1    3    3    0  502  0.35363964285E+02 -0.29610028835E+02 -0.20332895444E+03  0.20853656727E+03  0.41800000000E+01 0. -1.
        -11    1    1    2    0    0  0.10027439809E+02  0.21651185117E+02 -0.32785287422E+02  0.40548716841E+02  0.00000000000E+00 0.  1.
         11    1    1    2    0    0 -0.71732551045E+01 -0.71672365761E+02 -0.16416884217E+03  0.17927574387E+03  0.00000000000E+00 0. -1.
</event>
<event>
 7    1  0.2943257E-009  0.1064397E+03  0.7561462E-02  0.1267309E+00
         -2   -1    0    0    0  501 -0.00000000000E+00  0.00000000000E+00  0.12453506207E+03  0.12453506207E+03  0.00000000000E+00 0.  1.
          2   -1    0    0  501    0  0.00000000000E+00 -0.00000000000E+00 -0.12514733368E+03  0.12514733368E+03  0.00000000000E+00 0. -1.
         25    2    1    2    0    0  0.69281254512E+01 -0.59429146828E+02  0.12285952994E+02  0.13920606619E+03  0.12509021468E+03 0.  0.
          5    1    3    3  502    0 -0.33183192945E+02 -0.52498910790E+02  0.52798848543E+02  0.81623836810E+02  0.41800000000E+01 0.  1.
         -5    1    3    3    0  502  0.40111318396E+02 -0.69302360385E+01 -0.40512895549E+02  0.57582229383E+02  0.41800000000E+01 0.  1.
        -11    1    1    2    0    0  0.98050693353E+01  0.81459615534E+02 -0.10239131322E+02  0.82684026014E+02  0.00000000000E+00 0.  1.
         11    1    1    2    0    0 -0.16733194786E+02 -0.22030468706E+02 -0.26590932781E+01  0.27792303543E+02  0.00000000000E+00 0. -1.
</event>
<event>
 7    1  0.2943257E-009  0.1845674E+03  0.7561462E-02  0.1163454E+00
         -3   -1    0    0    0  501 -0.00000000000E+00  0.00000000000E+00  0.41303751731E+03  0.41303751731E+03  0.00000000000E+00 0.  1.
          3   -1    0    0  501    0  0.00000000000E+00 -0.00000000000E+00 -0.14564252917E+03  0.14564252917E+03  0.00000000000E+00 0. -1.
         25    2    1    2    0    0 -0.13836091938E+03  0.61070405539E+02  0.31914290363E+03  0.37466524429E+03  0.12509402020E+03 0.  0.
          5    1    3    3  502    0 -0.18638260133E+02 -0.34707078676E+02  0.40845820513E+02  0.56901840958E+02  0.41800000000E+01 0. -1.
         -5    1    3    3    0  502 -0.11972265925E+03  0.95777484215E+02  0.27829708312E+03  0.31776340333E+03  0.41800000000E+01 0. -1.
        -11    1    1    2    0    0  0.10721312992E+03  0.41886423926E+00 -0.25086170442E+02  0.11010970267E+03  0.00000000000E+00 0.  1.
         11    1    1    2    0    0  0.31147789463E+02 -0.61489269778E+02 -0.26661745054E+02  0.73905099524E+02  0.00000000000E+00 0. -1.
</event>
<event>
 7    1  0.2943257E-009  0.8472329E+02  0.7561462E-02  0.1316158E+00
         -1   -1    0    0    0  501 -0.00000000000E+00  0.00000000000E+00  0.12033244099E+03  0.12033244099E+03  0.00000000000E+00 0.  1.
          1   -1    0    0  501    0  0.00000000000E+00 -0.00000000000E+00 -0.14132153238E+03  0.14132153238E+03  0.00000000000E+00 0. -1.
         25    2    1    2    0    0  0.49383899827E+02 -0.24773856785E+02 -0.61297932077E+02  0.14985747560E+03  0.12508922006E+03 0.  0.
          5    1    3    3  502    0  0.17965768903E+02 -0.49735760432E+02 -0.87089961823E+02  0.10197327379E+03  0.41800000000E+01 0. -1.
         -5    1    3    3    0  502  0.31418130924E+02  0.24961903647E+02  0.25792029746E+02  0.47884201808E+02  0.41800000000E+01 0. -1.
        -11    1    1    2    0    0 -0.27638085010E+02  0.40632932567E+02  0.60650171724E+02  0.78059863452E+02  0.00000000000E+00 0.  1.
         11    1    1    2    0    0 -0.21745814817E+02 -0.15859075782E+02 -0.20341331037E+02  0.33736634318E+02  0.00000000000E+00 0. -1.
</event>
<event>
 7    1  0.2943257E-009  0.8328434E+02  0.7561462E-02  0.1319981E+00
         -3   -1    0    0    0  501 -0.00000000000E+00  0.00000000000E+00  0.37094132312E+03  0.37094132312E+03  0.00000000000E+00 0.  1.
          3   -1    0    0  501    0  0.00000000000E+00 -0.00000000000E+00 -0.33225526423E+02  0.33225526423E+02  0.00000000000E+00 0. -1.
         25    2    1    2    0    0 -0.33058295103E+01  0.26657928295E+02  0.21817187433E+03  0.25291923877E+03  0.12509037109E+03 0.  0.
          5    1    3    3  502    0 -0.46763375444E+02  0.38403932622E+02  0.19047411842E+03  0.19989881818E+03  0.41800000000E+01 0.  1.
         -5    1    3    3    0  502  0.43457545934E+02 -0.11746004327E+02  0.27697755912E+02  0.53020420583E+02  0.41800000000E+01 0.  1.
        -11    1    1    2    0    0 -0.17338632096E+02 -0.34505174611E+02  0.12297631804E+03  0.12889689692E+03  0.00000000000E+00 0.  1.
         11    1    1    2    0    0  0.20644461606E+02  0.78472463167E+01 -0.34323956710E+01  0.22350713855E+02  0.00000000000E+00 0. -1.
</event>
<event>
 7    1  0.2943257E-009  0.1004187E+03  0.7561462E-02  0.1279418E+00
          1   -1    0    0  501    0  0.00000000000E+00  0.00000000000E+00  0.12080265523E+03  0.12080265523E+03  0.00000000000E+00 0. -1.
         -1   -1    0    0    0  501 -0.00000000000E+00 -0.00000000000E+00 -0.19007584194E+03  0.19007584194E+03  0.00000000000E+00 0.  1.
         25    2    1    2    0    0  0.28909298712E+02  0.14273180679E+02  0.66093560153E+02  0.14510897395E+03  0.12509510138E+03 0.  0.
          5    1    3    3  502    0 -0.37426362776E+02 -0.92077352733E+01  0.63706731144E+02  0.74575699880E+02  0.41800000000E+01 0. -1.
         -5    1    3    3    0  502  0.66335661488E+02  0.23480915952E+02  0.23868290089E+01  0.70533274075E+02  0.41800000000E+01 0. -1.
        -11    1    1    2    0    0 -0.29724701370E+00  0.34783773901E+02 -0.29404974589E+02  0.45548345888E+02  0.00000000000E+00 0.  1.
         11    1    1    2    0    0 -0.28612051698E+02 -0.49056954579E+02 -0.10596177228E+03  0.12022117733E+03  0.00000000000E+00 0. -1.
</event>
<event>
 7    1  0.2943257E-009  0.3221531E+03  0.7561462E-02  0.1074663E+00
         -2   -1    0    0    0  501 -0.00000000000E+00  0.00000000000E+00  0.33518449215E+03  0.33518449215E+03  0.00000000000E+00 0. -1.
          2   -1    0    0  501    0  0.00000000000E+00 -0.00000000000E+00 -0.81165267893E+03  0.81165267893E+03  0.00000000000E+00 0.  1.
         25    2    1    2    0    0 -0.29689243895E+03  0.68520713428E+02 -0.68951560237E+03  0.76414590940E+03  0.12508795488E+03 0.  0.
          5    1    3    3  502    0 -0.34495421155E+01 -0.21641057721E+02 -0.50295976607E+02  0.55021744637E+02  0.41800000000E+01 0. -1.
         -5    1    3    3    0  502 -0.29344289684E+03  0.90161771149E+02 -0.63921962576E+03  0.70912416476E+03  0.41800000000E+01 0. -1.
        -11    1    1    2    0    0  0.14414035543E+03  0.75556213251E+01  0.12356705424E+03  0.19000617456E+03  0.00000000000E+00 0. -1.
         11    1    1    2    0    0  0.15275208352E+03 -0.76076334754E+02  0.89480361354E+02  0.19268508712E+03  0.00000000000E+00 0.  1.
</event>
<event>
 7    1  0.2943257E-009  0.8964243E+02  0.7561462E-02  0.1303720E+00
         -2   -1    0    0    0  501 -0.00000000000E+00  0.00000000000E+00  0.15002889656E+02  0.15002889656E+02  0.00000000000E+00 0.  1.
          2   -1    0    0  501    0  0.00000000000E+00 -0.00000000000E+00 -0.87184832217E+03  0.87184832217E+03  0.00000000000E+00 0. -1.
         25    2    1    2    0    0 -0.33293535593E+02  0.10091002183E+02 -0.55256745290E+03  0.56761642715E+03  0.12508929023E+03 0.  0.
          5    1    3    3  502    0  0.19415831262E+02  0.27269403256E+02 -0.44729572453E+03  0.44856608481E+03  0.41800000000E+01 0. -1.
         -5    1    3    3    0  502 -0.52709366855E+02 -0.17178401073E+02 -0.10527172837E+03  0.11905034234E+03  0.41800000000E+01 0. -1.
        -11    1    1    2    0    0  0.50967047404E+02 -0.33226110436E+02 -0.14385990540E+03  0.15619630827E+03  0.00000000000E+00 0. -1.
         11    1    1    2    0    0 -0.17673511811E+02  0.23135108253E+02 -0.16041807420E+03  0.16303847639E+03  0.00000000000E+00 0.  1.
</event>
<event>
 7    1  0.2943257E-009  0.8891088E+02  0.7561462E-02  0.1305511E+00
         -1   -1    0    0    0  501 -0.00000000000E+00  0.00000000000E+00  0.55181547114E+02  0.55181547114E+02  0.00000000000E+00 0.  1.
          1   -1    0    0  501    0  0.00000000000E+00 -0.00000000000E+00 -0.27564543852E+03  0.27564543852E+03  0.00000000000E+00 0. -1.
         25    2    1    2    0    0  0.44082085353E+02  0.70524964876E+01 -0.74319041466E+02  0.15219777762E+03  0.12509146906E+03 0.  0.
          5    1    3    3  502    0 -0.16321257942E+02  0.80370187935E+01  0.27793178586E+02  0.33479998624E+02  0.41800000000E+01 0.  1.
         -5    1    3    3    0  502  0.60403343295E+02 -0.98452230591E+00 -0.10211222005E+03  0.11871777899E+03  0.41800000000E+01 0.  1.
        -11    1    1    2    0    0 -0.70435256913E+02 -0.12895492143E+02 -0.12608126660E+03  0.14499622382E+03  0.00000000000E+00 0. -1.
         11    1    1    2    0    0  0.26353171560E+02  0.58429956558E+01 -0.20063583337E+02  0.33632984195E+02  0.00000000000E+00 0.  1.
</event>
<event>
 7    1  0.2943257E-009  0.1192980E+03  0.7561462E-02  0.1244260E+00
         -1   -1    0    0    0  501 -0.00000000000E+00  0.00000000000E+00  0.12833677559E+03  0.12833677559E+03  0.00000000000E+00 0.  1.
          1   -1    0    0  501    0  0.00000000000E+00 -0.00000000000E+00 -0.13870874029E+03  0.13870874029E+03  0.00000000000E+00 0. -1.
         25    2    1    2    0    0  0.69473057626E+02 -0.26016391478E+02  0.16480114122E+02  0.14636437906E+03  0.12509028314E+03 0.  0.
          5    1    3    3  502    0  0.23550452700E+02  0.46449712243E+02 -0.15834877560E+02  0.54593180318E+02  0.41800000000E+01 0. -1.
         -5    1    3    3    0  502  0.45922604926E+02 -0.72466103722E+02  0.32314991682E+02  0.91771198746E+02  0.41800000000E+01 0. -1.
        -11    1    1    2    0    0 -0.69392515261E+02 -0.48761379859E+01 -0.46860560021E+02  0.83874966357E+02  0.00000000000E+00 0. -1.
         11    1    1    2    0    0 -0.80542364259E-01  0.30892529464E+02  0.20008481198E+02  0.36806170456E+02  0.00000000000E+00 0.  1.
</event>
<event>
 7    1  0.2943257E-009  0.9105385E+02  0.7561462E-02  0.1300320E+00
         -2   -1    0    0    0  501 -0.00000000000E+00  0.00000000000E+00  0.97086723049E+02  0.97086723049E+02  0.00000000000E+00 0.  1.
          2   -1    0    0  501    0  0.00000000000E+00 -0.00000000000E+00 -0.26235060154E+03  0.26235060154E+03  0.00000000000E+00 0. -1.
         25    2    1    2    0    0  0.36069380982E+02 -0.83325169673E+02 -0.68059570618E+01  0.15471521888E+03  0.12508554575E+03 0.  0.
          5    1    3    3  502    0  0.86848628572E+01 -0.21434721808E+02  0.56970571094E+02  0.61627855005E+02  0.41800000000E+01 0. -1.
         -5    1    3    3    0  502  0.27384518125E+02 -0.61890447865E+02 -0.63776528155E+02  0.93087363876E+02  0.41800000000E+01 0. -1.
        -11    1    1    2    0    0 -0.22747652465E+02  0.53189829255E+02 -0.18198807812E+02  0.60644952260E+02  0.00000000000E+00 0.  1.
         11    1    1    2    0    0 -0.13321728517E+02  0.30135340418E+02 -0.14025911362E+03  0.14407715345E+03  0.00000000000E+00 0. -1.
</event>
<event>
 7    1  0.2943257E-009  0.9119724E+02  0.7561462E-02  0.1299978E+00
          2   -1    0    0  501    0  0.00000000000E+00  0.00000000000E+00  0.12826271159E+03  0.12826271159E+03  0.00000000000E+00 0. -1.
         -2   -1    0    0    0  501 -0.00000000000E+00 -0.00000000000E+00 -0.12350096932E+03  0.12350096932E+03  0.00000000000E+00 0.  1.
         25    2    1    2    0    0 -0.55323968683E+02 -0.20466370180E+02 -0.17920637328E+02  0.13945667181E+03  0.12508956891E+03 0.  0.
          5    1    3    3  502    0  0.13267932875E+02 -0.36926026838E+02  0.33744785413E+02  0.51920636007E+02  0.41800000000E+01 0. -1.
         -5    1    3    3    0  502 -0.68591901559E+02  0.16459656658E+02 -0.51665422741E+02  0.87536035801E+02  0.41800000000E+01 0. -1.
        -11    1    1    2    0    0  0.50803001721E+02 -0.51875725317E+00 -0.27467900952E+02  0.57755516409E+02  0.00000000000E+00 0.  1.
         11    1    1    2    0    0  0.45209669626E+01  0.20985127433E+02  0.50150280551E+02  0.54551492692E+02  0.00000000000E+00 0. -1.
</event>
<event>
 7    1  0.2943257E-009  0.1093511E+03  0.7561462E-02  0.1261776E+00
         -1   -1    0    0    0  501 -0.00000000000E+00  0.00000000000E+00  0.63116032438E+02  0.63116032438E+02  0.00000000000E+00 0.  1.
          1   -1    0    0  501    0  0.00000000000E+00 -0.00000000000E+00 -0.32368623869E+03  0.32368623869E+03  0.00000000000E+00 0. -1.
         25    2    1    2    0    0 -0.36113010028E+02 -0.13137346127E+01 -0.25710340421E+03  0.28819352465E+03  0.12508985491E+03 0.  0.
          5    1    3    3  502    0  0.86248828110E+01 -0.57090056689E+02 -0.12982106004E+03  0.14214303784E+03  0.41800000000E+01 0. -1.
         -5    1    3    3    0  502 -0.44737892839E+02  0.55776322076E+02 -0.12728234417E+03  0.14605048681E+03  0.41800000000E+01 0. -1.
        -11    1    1    2    0    0  0.61230504803E+02  0.11108018684E+02  0.17286718065E+02  0.64586325325E+02  0.00000000000E+00 0.  1.
         11    1    1    2    0    0 -0.25117494776E+02 -0.97942840708E+01 -0.20753520107E+02  0.34022421153E+02  0.00000000000E+00 0. -1.
</event>
<event>
 7    1  0.2943257E-009  0.9927928E+02  0.7561462E-02  0.1281819E+00
         -2   -1    0    0    0  501 -0.00000000000E+00  0.00000000000E+00  0.90072387724E+02  0.90072387724E+02  0.00000000000E+00 0. -1.
          2   -1    0    0  501    0  0.00000000000E+00 -0.00000000000E+00 -0.20349949365E+03  0.20349949365E+03  0.00000000000E+00 0.  1.
         25    2    1    2    0    0 -0.74625341208E+02 -0.16354577173E+02 -0.42105322937E+02  0.15250147029E+03  0.12508967374E+03 0.  0.
          5    1    3    3  502    0  0.29627447806E+01  0.30440352359E+02 -0.52808378752E+02  0.61168539093E+02  0.41800000000E+01 0.  1.
         -5    1    3    3    0  502 -0.77588085989E+02 -0.46794929532E+02  0.10703055815E+02  0.91332931197E+02  0.41800000000E+01 0.  1.
        -11    1    1    2    0    0  0.42005274937E+02  0.43597387135E+01 -0.91575518589E+02  0.10084406799E+03  0.00000000000E+00 0.  1.
         11    1    1    2    0    0  0.32620066271E+02  0.11994838459E+02  0.20253735597E+02  0.40226343095E+02  0.00000000000E+00 0. -1.
</event>
<event>
 7    1  0.2943257E-009  0.1497837E+03  0.7561462E-02  0.1200739E+00
          1   -1    0    0  501    0  0.00000000000E+00  0.00000000000E+00  0.96754850946E+02  0.96754850946E+02  0.00000000000E+00 0. -1.
         -1   -1    0    0    0  501 -0.00000000000E+00 -0.00000000000E+00 -0.34320556785E+03  0.34320556785E+03  0.00000000000E+00 0.  1.
         25    2    1    2    0    0 -0.10111313961E+03 -0.10231451807E+03 -0.99126158461E+02  0.21486370380E+03  0.12509311856E+03 0.  0.
          5    1    3    3  502    0 -0.54575729715E+02 -0.85247001051E+02 -0.12328025772E+03  0.15956520863E+03  0.41800000000E+01 0. -1.
         -5    1    3    3    0  502 -0.46537409894E+02 -0.17067517017E+02  0.24154099261E+02  0.55298495169E+02  0.41800000000E+01 0. -1.
        -11    1    1    2    0    0  0.10132486504E+03  0.88010997002E+02 -0.15795526731E+03  0.20727404647E+03  0.00000000000E+00 0.  1.
         11    1    1    2    0    0 -0.21172543148E+00  0.14303521066E+02  0.10630708862E+02  0.17822668528E+02  0.00000000000E+00 0. -1.
</event>
<event>
 7    1  0.2943257E-009  0.9387954E+02  0.7561462E-02  0.1293720E+00
          2   -1    0    0  501    0  0.00000000000E+00  0.00000000000E+00  0.45831588706E+03  0.45831588706E+03  0.00000000000E+00 0. -1.
         -2   -1    0    0    0  501 -0.00000000000E+00 -0.00000000000E+00 -0.36179525021E+02  0.36179525021E+02  0.00000000000E+00 0.  1.
         25    2    1    2    0    0  0.66517745581E+02  0.85116129514E+01  0.26111628014E+03  0.29719751136E+03  0.12509033126E+03 0.  0.
          5    1    3    3  502    0 -0.16404356371E+02  0.22931116672E+02  0.68277036053E+01  0.29309195763E+02  0.41800000000E+01 0.  1.
         -5    1    3    3    0  502  0.82922101952E+02 -0.14419503720E+02  0.25428857653E+03  0.26788831560E+03  0.41800000000E+01 0.  1.
        -11    1    1    2    0    0 -0.63063307337E+02  0.28332221347E+01  0.17069435543E+03  0.18199332641E+03  0.00000000000E+00 0. -1.
         11    1    1    2    0    0 -0.34544382442E+01 -0.11344835086E+02 -0.96742735282E+01  0.15304574317E+02  0.00000000000E+00 0.  1.
</event>
<event>
 7    1  0.2943257E-009  0.1782071E+03  0.7561462E-02  0.1169550E+00
         -1   -1    0    0    0  501 -0.00000000000E+00  0.00000000000E+00  0.40463449315E+02  0.40463449315E+02  0.00000000000E+00 0.  1.
          1   -1    0    0  501    0  0.00000000000E+00 -0.00000000000E+00 -0.94934633102E+03  0.94934633102E+03  0.00000000000E+00 0. -1.
         25    2    1    2    0    0 -0.47691414439E+02 -0.15551744173E+03 -0.46337176811E+03  0.50677472026E+03  0.12508827249E+03 0.  0.
          5    1    3    3  502    0 -0.30904642527E+02 -0.16897095942E+03 -0.33447558987E+03  0.37602882161E+03  0.41800000000E+01 0. -1.
         -5    1    3    3    0  502 -0.16786771912E+02  0.13453517691E+02 -0.12889617824E+03  0.13074589865E+03  0.41800000000E+01 0. -1.
        -11    1    1    2    0    0  0.23484485563E+02  0.79448050082E+02 -0.10746737689E+03  0.13569359166E+03  0.00000000000E+00 0.  1.
         11    1    1    2    0    0  0.24206928876E+02  0.76069391651E+02 -0.33804373670E+03  0.34734146841E+03  0.00000000000E+00 0. -1.
</event>
<event>
 7    1  0.2943257E-009  0.1073448E+03  0.7561462E-02  0.1265567E+00
          2   -1    0    0  501    0  0.00000000000E+00  0.00000000000E+00  0.24249754265E+03  0.24249754265E+03  0.00000000000E+00 0. -1.
         -2   -1    0    0    0  501 -0.00000000000E+00 -0.00000000000E+00 -0.52826440422E+02  0.52826440422E+02  0.00000000000E+00 0.  1.
         25    2    1    2    0    0 -0.74886558299E+01  0.67201167037E+01  0.14678912005E+03  0.19312218326E+03  0.12509153435E+03 0.  0.
          5    1    3    3  502    0  0.56892460419E+02  0.63965915734E+01  0.92198530895E+02  0.10860805649E+03  0.41800000000E+01 0.  1.
         -5    1    3    3    0  502 -0.64381116249E+02  0.32352513023E+00  0.54590589156E+02  0.84514126762E+02  0.41800000000E+01 0.  1.
        -11    1    1    2    0    0  0.18251072873E+02 -0.47345801587E+02  0.23162759062E+02  0.55778490445E+02  0.00000000000E+00 0.  1.
         11    1    1    2    0    0 -0.10762417043E+02  0.40625684884E+02  0.19719223120E+02  0.46423309375E+02  0.00000000000E+00 0. -1.
</event>
<event>
 7    1  0.2943257E-009  0.1130765E+03  0.7561462E-02  0.1254976E+00
          2   -1    0    0  501    0  0.00000000000E+00  0.00000000000E+00  0.68513876820E+03  0.68513876820E+03  0.00000000000E+00 0.  1.
         -2   -1    0    0    0  501 -0.00000000000E+00 -0.00000000000E+00 -0.24051104907E+02  0.24051104907E+02  0.00000000000E+00 0. -1.
         25    2    1    2    0    0  0.60432466892E+02 -0.21378271763E+01  0.29040166768E+03  0.32192655212E+03  0.12508766130E+03 0.  0.
          5    1    3    3  502    0  0.70141258541E+02  0.34884438024E+02  0.26357180342E+03  0.27499870567E+03  0.41800000000E+01 0. -1.
         -5    1    3    3    0  502 -0.97087916485E+01 -0.37022265200E+02  0.26829864268E+02  0.46927846450E+02  0.41800000000E+01 0. -1.
        -11    1    1    2    0    0  0.33183154298E+01 -0.35177683484E+02  0.82246384489E+02  0.89515073558E+02  0.00000000000E+00 0. -1.
         11    1    1    2    0    0 -0.63750782322E+02  0.37315510660E+02  0.28843961112E+03  0.29774824743E+03  0.00000000000E+00 0.  1.
</event>
<event>
 7    1  0.2943257E-009  0.7932890E+02  0.7561462E-02  0.1330967E+00
         -2   -1    0    0    0  501 -0.00000000000E+00  0.00000000000E+00  0.11212759199E+03  0.11212759199E+03  0.00000000000E+00 0.  1.
          2   -1    0    0  501    0  0.00000000000E+00 -0.00000000000E+00 -0.10886512050E+03  0.10886512050E+03  0.00000000000E+00 0. -1.
         25    2    1    2    0    0 -0.17130907444E+02  0.13091432835E+02  0.15033363386E+02  0.12781476341E+03  0.12508300495E+03 0.  0.
          5    1    3    3  502    0 -0.54281517997E+02 -0.35614232499E+02  0.22292772560E+01  0.65094537633E+02  0.41800000000E+01 0. -1.
         -5    1    3    3    0  502  0.37150610553E+02  0.48705665334E+02  0.12804086130E+02  0.62720225779E+02  0.41800000000E+01 0. -1.
        -11    1    1    2    0    0  0.48118742696E+01 -0.18229949239E+02 -0.49600216388E+02  0.53062855643E+02  0.00000000000E+00 0. -1.
         11    1    1    2    0    0  0.12319033174E+02  0.51385164037E+01  0.37829324495E+02  0.40115093431E+02  0.00000000000E+00 0.  1.
</event>
<event>
 7    1  0.2943257E-009  0.1194914E+03  0.7561462E-02  0.1243938E+00
         -1   -1    0    0    0  501 -0.00000000000E+00  0.00000000000E+00  0.11478441947E+03  0.11478441947E+03  0.00000000000E+00 0.  1.
          1   -1    0    0  501    0  0.00000000000E+00 -0.00000000000E+00 -0.16669432518E+03  0.16669432518E+03  0.00000000000E+00 0. -1.
         25    2    1    2    0    0  0.32768928829E+02  0.79465969322E+02 -0.46669252837E+00  0.15177573993E+03  0.12508802681E+03 0.  0.
          5    1    3    3  502    0 -0.22639748665E+02  0.67023816596E+02  0.40503957045E+02  0.81625934279E+02  0.41800000000E+01 0.  1.
         -5    1    3    3    0  502  0.55408677494E+02  0.12442152727E+02 -0.40970649573E+02  0.70149805649E+02  0.41800000000E+01 0.  1.
        -11    1    1    2    0    0  0.20552820640E+02 -0.81097649747E+01  0.69845549964E+01  0.23172628955E+02  0.00000000000E+00 0.  1.
         11    1    1    2    0    0 -0.53321749469E+02 -0.71356204348E+02 -0.58427768184E+02  0.10653037576E+03  0.00000000000E+00 0. -1.
</event>
<event>
 7    1  0.2943257E-009  0.1424571E+03  0.7561462E-02  0.1210060E+00
          1   -1    0    0  501    0  0.00000000000E+00  0.00000000000E+00  0.11420246595E+04  0.11420246595E+04  0.00000000000E+00 0. -1.
         -1   -1    0    0    0  501 -0.00000000000E+00 -0.00000000000E+00 -0.25093849868E+02  0.25093849868E+02  0.00000000000E+00 0.  1.
         25    2    1    2    0    0 -0.10640568281E+03  0.21888103355E+01  0.88786976962E+03  0.90293265626E+03  0.12509074196E+03 0.  0.
          5    1    3    3  502    0  0.18827718653E+02  0.28884893961E+02  0.14540260743E+03  0.14949317957E+03  0.41800000000E+01 0.  1.
         -5    1    3    3    0  502 -0.12523340146E+03 -0.26696083626E+02  0.74246716218E+03  0.75343947670E+03  0.41800000000E+01 0.  1.
        -11    1    1    2    0    0  0.73923812276E+01 -0.20127361185E+02  0.90109587371E+02  0.92625567230E+02  0.00000000000E+00 0.  1.
         11    1    1    2    0    0  0.99013301584E+02  0.17938550850E+02  0.13895145265E+03  0.17156028587E+03  0.00000000000E+00 0. -1.
</event>
<event>
 7    1  0.2943257E-009  0.1122094E+03  0.7561462E-02  0.1256532E+00
         -1   -1    0    0    0  501 -0.00000000000E+00  0.00000000000E+00  0.35300234364E+02  0.35300234364E+02  0.00000000000E+00 0.  1.
          1   -1    0    0  501    0  0.00000000000E+00 -0.00000000000E+00 -0.58836006863E+03  0.58836006863E+03  0.00000000000E+00 0. -1.
         25    2    1    2    0    0 -0.26159974285E+02  0.61523498648E+02 -0.44616024916E+03  0.46816174402E+03  0.12508783113E+03 0.  0.
          5    1    3    3  502    0 -0.66450605092E+02  0.35935613683E+02 -0.37377870388E+03  0.38135946707E+03  0.41800000000E+01 0.  1.
         -5    1    3    3    0  502  0.40290630807E+02  0.25587884964E+02 -0.72381545281E+02  0.86802276958E+02  0.41800000000E+01 0.  1.
        -11    1    1    2    0    0  0.32569205395E+02 -0.77265661391E+02 -0.10990464030E+03  0.13823807554E+03  0.00000000000E+00 0. -1.
         11    1    1    2    0    0 -0.64092311096E+01  0.15742162744E+02  0.30050551974E+01  0.17260483423E+02  0.00000000000E+00 0.  1.
</event>
<event>
 6    1  0.2943257E-009  0.1326170E+03  0.7561462E-02  0.1223623E+00
          2   -1    0    0  501    0  0.00000000000E+00  0.00000000000E+00  0.74692735635E+02  0.74692735635E+02  0.00000000000E+00 0. -1.
         -2   -1    0    0    0  501 -0.00000000000E+00 -0.00000000000E+00 -0.24826447597E+03  0.24826447597E+03  0.00000000000E+00 0.  1.
          5    1    1    2  502    0  0.35591545424E+02 -0.12919343611E+01 -0.16015181502E+02  0.39273217829E+02  0.41800000000E+01 0. -1.
         -5    1    1    2    0  502 -0.10048582372E+03  0.51156244497E+02 -0.85495378425E+02  0.14156727818E+03  0.41800000000E+01 0. -1.
        -11    1    1    2    0    0  0.84699128363E+02 -0.34426756255E+02 -0.72988007870E+02  0.11698885923E+03  0.00000000000E+00 0. -1.
         11    1    1    2    0    0 -0.19804850068E+02 -0.15437553881E+02  0.92682746642E+00  0.25127856359E+02  0.00000000000E+00 0.  1.
</event>
<event>
 7    1  0.2943257E-009  0.1313254E+03  0.7561462E-02  0.1225502E+00
          2   -1    0    0  501    0  0.00000000000E+00  0.00000000000E+00  0.15479533593E+04  0.15479533593E+04  0.00000000000E+00 0. -1.
         -2   -1    0    0    0  501 -0.00000000000E+00 -0.00000000000E+00 -0.11989718285E+02  0.11989718285E+02  0.00000000000E+00 0.  1.
         25    2    1    2    0    0 -0.25866948977E+02 -0.75182823104E+02  0.96521767437E+03  0.97653190360E+03  0.12509134224E+03 0.  0.
          5    1    3    3  502    0  0.38356266355E+02  0.50378414167E+01  0.15484911414E+03  0.15966309393E+03  0.41800000000E+01 0.  1.
         -5    1    3    3    0  502 -0.64223215332E+02 -0.80220664521E+02  0.81036856023E+03  0.81686880967E+03  0.41800000000E+01 0.  1.
        -11    1    1    2    0    0  0.39128900399E+02 -0.51559599352E+01  0.18278042995E+03  0.18699288847E+03  0.00000000000E+00 0. -1.
         11    1    1    2    0    0 -0.13261951422E+02  0.80338783039E+02  0.38796553672E+03  0.39641828552E+03  0.00000000000E+00 0.  1.
</event>
<event>
 7    1  0.2943257E-009  0.1170247E+03  0.7561462E-02  0.1248088E+00
          1   -1    0    0  501    0  0.00000000000E+00  0.00000000000E+00  0.30521893139E+03  0.30521893139E+03  0.00000000000E+00 0. -1.
         -1   -1    0    0    0  501 -0.00000000000E+00 -0.00000000000E+00 -0.88810335738E+02  0.88810335738E+02  0.00000000000E+00 0.  1.
         25    2    1    2    0    0 -0.79114136763E+02 -0.62464274182E+02  0.20075939053E+03  0.25712699258E+03  0.12509646373E+03 0.  0.
          5    1    3    3  502    0 -0.33636824264E+02 -0.27667928251E+02  0.19451322595E+03  0.19937356312E+03  0.41800000000E+01 0. -1.
         -5    1    3    3    0  502 -0.45477312499E+02 -0.34796345930E+02  0.62461645824E+01  0.57753429458E+02  0.41800000000E+01 0. -1.
        -11    1    1    2    0    0 -0.10047311976E+01  0.52082277557E+02  0.20470609101E+02  0.55969803977E+02  0.00000000000E+00 0. -1.
         11    1    1    2    0    0  0.80118867961E+02  0.10381996625E+02 -0.48214039803E+01  0.80932470576E+02  0.00000000000E+00 0.  1.
</event>
<event>
 7    1  0.2943257E-009  0.1465365E+03  0.7561462E-02  0.1204795E+00
         -2   -1    0    0    0  501 -0.00000000000E+00  0.00000000000E+00  0.64332272678E+03  0.64332272678E+03  0.00000000000E+00 0.  1.
          2   -1    0    0  501    0  0.00000000000E+00 -0.00000000000E+00 -0.40078732609E+02  0.40078732609E+02  0.00000000000E+00 0. -1.
         25    2    1    2    0    0  0.11855260454E+03  0.10404742672E+01  0.33349214612E+03  0.37539276292E+03  0.12508761850E+03 0.  0.
          5    1    3    3  502    0 -0.14819104060E+02 -0.30477934325E+02  0.84653466506E+02  0.91280842006E+02  0.41800000000E+01 0.  1.
         -5    1    3    3    0  502  0.13337170860E+03  0.31518408592E+02  0.24883867961E+03  0.28411192091E+03  0.41800000000E+01 0.  1.
        -11    1    1    2    0    0 -0.56514255117E+02  0.13485874461E+02  0.42479794611E+02  0.71974042485E+02  0.00000000000E+00 0. -1.
         11    1    1    2    0    0 -0.62038349421E+02 -0.14526348728E+02  0.22727205344E+03  0.23603465398E+03  0.00000000000E+00 0.  1.
</event>
<event>
 7    1  0.2943257E-009  0.8321075E+02  0.7561462E-02  0.1320179E+00
         -2   -1    0    0    0  501 -0.00000000000E+00  0.00000000000E+00  0.11691417791E+03  0.11691417791E+03  0.00000000000E+00 0.  1.
          2   -1    0    0  501    0  0.00000000000E+00 -0.00000000000E+00 -0.11077815603E+03  0.11077815603E+03  0.00000000000E+00 0. -1.
         25    2    1    2    0    0  0.13821747566E+02 -0.84856805457E+01  0.19046619967E+02  0.12756018501E+03  0.12508309074E+03 0.  0.
          5    1    3    3  502    0  0.55209720707E+02 -0.29161700269E+02 -0.21226210999E+02  0.66079818829E+02  0.41800000000E+01 0. -1.
         -5    1    3    3    0  502 -0.41387973140E+02  0.20676019723E+02  0.40272830966E+02  0.61480366185E+02  0.41800000000E+01 0. -1.
        -11    1    1    2    0    0 -0.13182513810E+02  0.31614285797E+02 -0.47473067090E+02  0.58540019095E+02  0.00000000000E+00 0. -1.
         11    1    1    2    0    0 -0.63923375656E+00 -0.23128605252E+02  0.34562468998E+02  0.41592129831E+02  0.00000000000E+00 0.  1.
</event>
<event>
 7    1  0.2943257E-009  0.1143844E+03  0.7561462E-02  0.1252660E+00
          1   -1    0    0  501    0  0.00000000000E+00  0.00000000000E+00  0.40398525066E+03  0.40398525066E+03  0.00000000000E+00 0. -1.
         -1   -1    0    0    0  501 -0.00000000000E+00 -0.00000000000E+00 -0.41564062784E+02  0.41564062784E+02  0.00000000000E+00 0.  1.
         25    2    1    2    0    0 -0.58073945586E+02 -0.39140691639E+02  0.17945048740E+03  0.22968381454E+03  0.12509036867E+03 0.  0.
          5    1    3    3  502    0  0.10861788423E+02 -0.57539164029E+02  0.34553074876E+02  0.68118435304E+02  0.41800000000E+01 0. -1.
         -5    1    3    3    0  502 -0.68935734009E+02  0.18398472391E+02  0.14489741253E+03  0.16156537923E+03  0.41800000000E+01 0. -1.
        -11    1    1    2    0    0  0.66581201743E+02  0.88935527997E+01  0.63872323986E+02  0.92692100409E+02  0.00000000000E+00 0.  1.
         11    1    1    2    0    0 -0.85072561571E+01  0.30247138839E+02  0.11909837649E+03  0.12317339850E+03  0.00000000000E+00 0. -1.
</event>
<event>
 7    1  0.2943257E-009  0.1103760E+03  0.7561462E-02  0.1259875E+00
          3   -1    0    0  501    0  0.00000000000E+00  0.00000000000E+00  0.14964672277E+03  0.14964672277E+03  0.00000000000E+00 0. -1.
         -3   -1    0    0    0  501 -0.00000000000E+00 -0.00000000000E+00 -0.15388835518E+03  0.15388835518E+03  0.00000000000E+00 0.  1.
         25    2    1    2    0    0  0.73298060307E+02 -0.60710705742E+02 -0.68707097444E+01  0.15732825063E+03  0.12508627565E+03 0.  0.
          5    1    3    3  502    0  0.54842504979E+02 -0.23465325930E+02 -0.63325342660E+02  0.87097033798E+02  0.41800000000E+01 0. -1.
         -5    1    3    3    0  502  0.18455555327E+02 -0.37245379812E+02  0.56454632916E+02  0.70231216830E+02  0.41800000000E+01 0. -1.
        -11    1    1    2    0    0  0.10399515442E+02 -0.61243631359E+01  0.32783658655E+02  0.34934596320E+02  0.00000000000E+00 0. -1.
         11    1    1    2    0    0 -0.83697575749E+02  0.66835068878E+02 -0.30154581313E+02  0.11127223100E+03  0.00000000000E+00 0.  1.
</event>
<event>
 7    1  0.2943257E-009  0.1382128E+03  0.7561462E-02  0.1215754E+00
          2   -1    0    0  501    0  0.00000000000E+00  0.00000000000E+00  0.64559174244E+03  0.64559174244E+03  0.00000000000E+00 0. -1.
         -2   -1    0    0    0  501 -0.00000000000E+00 -0.00000000000E+00 -0.32059153436E+02  0.32059153436E+02  0.00000000000E+00 0.  1.
         25    2    1    2    0    0  0.48557945445E+02  0.76144620607E+02  0.26232647398E+03  0.30433518246E+03  0.12509535173E+03 0.  0.
          5    1    3    3  502    0 -0.24570022190E+02 -0.17897684202E+02  0.87618150125E+02  0.92835476632E+02  0.41800000000E+01 0. -1.
         -5    1    3    3    0  502  0.73127967635E+02  0.94042304809E+02  0.17470832385E+03  0.21149970583E+03  0.41800000000E+01 0. -1.
        -11    1    1    2    0    0  0.15070511254E+02 -0.58642884628E+02  0.17181361717E+03  0.18217032489E+03  0.00000000000E+00 0.  1.
         11    1    1    2    0    0 -0.63628456699E+02 -0.17501735979E+02  0.17939249786E+03  0.19114538852E+03  0.00000000000E+00 0. -1.
</event>
<event>
 7    1  0.2943257E-009  0.8290884E+02  0.7561462E-02  0.1320994E+00
         -2   -1    0    0    0  501 -0.00000000000E+00  0.00000000000E+00  0.22231399986E+03  0.22231399986E+03  0.00000000000E+00 0.  1.
          2   -1    0    0  501    0  0.00000000000E+00 -0.00000000000E+00 -0.73026617849E+02  0.73026617849E+02  0.00000000000E+00 0. -1.
         25    2    1    2    0    0 -0.33271337677E+02  0.48633076304E+01  0.16030880343E+02  0.13051589750E+03  0.12508707648E+03 0.  0.
          5    1    3    3  502    0  0.35153317490E+02  0.84858382897E+01  0.43370980876E+02  0.56624019322E+02  0.41800000000E+01 0.  1.
         -5    1    3    3    0  502 -0.68424655166E+02 -0.36225306593E+01 -0.27340100533E+02  0.73891878174E+02  0.41800000000E+01 0.  1.
        -11    1    1    2    0    0  0.93479285227E+01  0.22532647596E+02 -0.22723132544E+01  0.24500354750E+02  0.00000000000E+00 0. -1.
         11    1    1    2    0    0  0.23923409154E+02 -0.27395955226E+02  0.13552881492E+03  0.14032436546E+03  0.00000000000E+00 0.  1.
</event>
<event>
 7    1  0.2943257E-009  0.9805310E+02  0.7561462E-02  0.1284444E+00
         -2   -1    0    0    0  501 -0.00000000000E+00  0.00000000000E+00  0.11804510306E+02  0.11804510306E+02  0.00000000000E+00 0.  1.
          2   -1    0    0  501    0  0.00000000000E+00 -0.00000000000E+00 -0.21349465288E+04  0.21349465288E+04  0.00000000000E+00 0. -1.
         25    2    1    2    0    0  0.44516165517E+02 -0.36764974716E+02 -0.18262994450E+04  0.18314886792E+04  0.12509103436E+03 0.  0.
          5    1    3    3  502    0  0.60724519456E+01 -0.60425156503E+02 -0.41297055540E+03  0.41743290029E+03  0.41800000000E+01 0.  1.
         -5    1    3    3    0  502  0.38443713571E+02  0.23660181787E+02 -0.14133288896E+04  0.14140557789E+04  0.41800000000E+01 0.  1.
        -11    1    1    2    0    0 -0.48907395273E+02 -0.38391478692E+01 -0.24178005559E+03  0.24670684556E+03  0.00000000000E+00 0.  1.
         11    1    1    2    0    0  0.43912297557E+01  0.40604122585E+02 -0.55062517961E+02  0.68555514394E+02  0.00000000000E+00 0. -1.
</event>
<event>
 7    1  0.2943257E-009  0.1014425E+03  0.7561462E-02  0.1277291E+00
         -2   -1    0    0    0  501 -0.00000000000E+00  0.00000000000E+00  0.11226621684E+03  0.11226621684E+03  0.00000000000E+00 0.  1.
          2   -1    0    0  501    0  0.00000000000E+00 -0.00000000000E+00 -0.11939433549E+03  0.11939433549E+03  0.00000000000E+00 0. -1.
         25    2    1    2    0    0  0.14659488577E+02  0.13754298943E+02  0.28402673841E+02  0.12983949441E+03  0.12508997195E+03 0.  0.
          5    1    3    3  502    0  0.52424403502E+02  0.47750379206E+02 -0.88875749824E+00  0.71039982311E+02  0.41800000000E+01 0. -1.
         -5    1    3    3    0  502 -0.37764914925E+02 -0.33996080263E+02  0.29291431339E+02  0.58799512094E+02  0.41800000000E+01 0. -1.
        -11    1    1    2    0    0 -0.14398026598E+02 -0.46214370502E+02  0.63641971102E+01  0.48821862067E+02  0.00000000000E+00 0.  1.
         11    1    1    2    0    0 -0.26146197948E+00  0.32460071560E+02 -0.41894989605E+02  0.52999195862E+02  0.00000000000E+00 0. -1.
</event>
<event>
 7    1  0.2943257E-009  0.9173442E+02  0.7561462E-02  0.1298705E+00
          1   -1    0    0  501    0  0.00000000000E+00  0.00000000000E+00  0.16051600833E+03  0.16051600833E+03  0.00000000000E+00 0. -1.
         -1   -1    0    0    0  501 -0.00000000000E+00 -0.00000000000E+00 -0.97930528914E+02  0.97930528914E+02  0.00000000000E+00 0.  1.
         25    2    1    2    0    0 -0.36059114751E+02 -0.33859018905E+02 -0.41199582211E+01  0.13454171455E+03  0.12505121343E+03 0.  0.
          5    1    3    3  502    0 -0.39777332519E+02  0.45824771893E+01 -0.56471182216E+02  0.69352015835E+02  0.41800000000E+01 0.  1.
         -5    1    3    3    0  502  0.37182177674E+01 -0.38441496094E+02  0.52351223994E+02  0.65189698719E+02  0.41800000000E+01 0.  1.
        -11    1    1    2    0    0 -0.15025554903E+02  0.48863697549E+02  0.30720347209E+02  0.59641998382E+02  0.00000000000E+00 0.  1.
         11    1    1    2    0    0  0.51084669654E+02 -0.15004678644E+02  0.35985090426E+02  0.64262824306E+02  0.00000000000E+00 0. -1.
</event>
<event>
 7    1  0.3359987E-009  0.1090648E+03  0.7561462E-02  0.1262312E+00
          1   -1    0    0  501    0  0.00000000000E+00  0.00000000000E+00  0.29257897025E+03  0.29257897025E+03  0.00000000000E+00 0. -1.
         -1   -1    0    0    0  501 -0.00000000000E+00 -0.00000000000E+00 -0.64925620724E+02  0.64925620724E+02  0.00000000000E+00 0.  1.
         25    2    1    2    0    0  0.83308368866E+02  0.54272625205E+01  0.10709230996E+03  0.18462328387E+03  0.12508898670E+03 0.  0.
          5    1    3    3  502    0  0.19343683268E+02  0.30253851672E+02  0.11003278088E+03  0.11581950998E+03  0.41800000000E+01 0. -1.
         -5    1    3    3    0  502  0.63964685597E+02 -0.24826589152E+02 -0.29404709196E+01  0.68803773891E+02  0.41800000000E+01 0. -1.
        -11    1    1    2    0    0 -0.70248011366E+02 -0.36764583986E+02  0.47778353955E+02  0.92569913273E+02  0.00000000000E+00 0.  1.
         11    1    1    2    0    0 -0.13060357499E+02  0.31337321466E+02  0.72782685616E+02  0.80311393838E+02  0.00000000000E+00 0. -1.
</event>
<event>
 7    1  0.2943257E-009  0.1141818E+03  0.7561462E-02  0.1253016E+00
         -1   -1    0    0    0  501 -0.00000000000E+00  0.00000000000E+00  0.18559261433E+03  0.18559261433E+03  0.00000000000E+00 0.  1.
          1   -1    0    0  501    0  0.00000000000E+00 -0.00000000000E+00 -0.83110725257E+02  0.83110725257E+02  0.00000000000E+00 0. -1.
         25    2    1    2    0    0 -0.40900981066E+01 -0.59189672671E+02  0.48165146070E+02  0.14658601149E+03  0.12508969268E+03 0.  0.
          5    1    3    3  502    0 -0.79177367358E+01  0.30999636410E+02 -0.15744670191E+02  0.35903134292E+02  0.41800000000E+01 0.  1.
         -5    1    3    3    0  502  0.38276386292E+01 -0.90189309082E+02  0.63909816261E+02  0.11068287720E+03  0.41800000000E+01 0.  1.
        -11    1    1    2    0    0  0.26356461768E+02 -0.13566124285E+02  0.18618170958E+01  0.29701332764E+02  0.00000000000E+00 0.  1.
         11    1    1    2    0    0 -0.22266363662E+02  0.72755796956E+02  0.52454925903E+02  0.92415995330E+02  0.00000000000E+00 0. -1.
</event>
<event>
 7    1  0.2943257E-009  0.8970009E+02  0.7561462E-02  0.1303580E+00
          1   -1    0    0  501    0  0.00000000000E+00  0.00000000000E+00  0.16504712997E+03  0.16504712997E+03  0.00000000000E+00 0. -1.
         -1   -1    0    0    0  501 -0.00000000000E+00 -0.00000000000E+00 -0.77562731996E+02  0.77562731996E+02  0.00000000000E+00 0.  1.
         25    2    1    2    0    0 -0.30455603994E+02  0.75271062997E+01  0.61106397670E+02  0.14270670355E+03  0.12508801005E+03 0.  0.
          5    1    3    3  502    0 -0.35676949761E+02  0.47938127994E+02 -0.99168099094E+01  0.60718402306E+02  0.41800000000E+01 0. -1.
         -5    1    3    3    0  502  0.52213457669E+01 -0.40411021694E+02  0.71023207580E+02  0.81988301244E+02  0.41800000000E+01 0. -1.
        -11    1    1    2    0    0 -0.40054403396E+01 -0.34526519022E+02  0.40997254679E+02  0.53748478669E+02  0.00000000000E+00 0. -1.
         11    1    1    2    0    0  0.34461044334E+02  0.26999412723E+02 -0.14619254376E+02  0.46154679746E+02  0.00000000000E+00 0.  1.
</event>
<event>
 7    1  0.3025404E-009  0.1165847E+03  0.7561462E-02  0.1248840E+00
          2   -1    0    0  501    0  0.00000000000E+00  0.00000000000E+00  0.88867847802E+03  0.88867847802E+03  0.00000000000E+00 0. -1.
         -2   -1    0    0    0  501 -0.00000000000E+00 -0.00000000000E+00 -0.20235946840E+02  0.20235946840E+02  0.00000000000E+00 0.  1.
         25    2    1    2    0    0  0.82171998925E+01  0.73439869801E+02  0.57365478134E+03  0.59176731172E+03  0.12509119159E+03 0.  0.
          5    1    3    3  502    0  0.47503468640E+02  0.70737375905E+02  0.50785324825E+03  0.51496868841E+03  0.41800000000E+01 0. -1.
         -5    1    3    3    0  502 -0.39286268748E+02  0.27024938965E+01  0.65801533086E+02  0.76798623307E+02  0.41800000000E+01 0. -1.
        -11    1    1    2    0    0 -0.29852804947E+02  0.18616998269E+01  0.36241155593E+02  0.46990182466E+02  0.00000000000E+00 0. -1.
         11    1    1    2    0    0  0.21635605055E+02 -0.75301569628E+02  0.25854659425E+03  0.27015693067E+03  0.00000000000E+00 0.  1.
</event>
<event>
 7    1  0.2943257E-009  0.1040246E+03  0.7561462E-02  0.1272053E+00
          1   -1    0    0  501    0  0.00000000000E+00  0.00000000000E+00  0.11864531685E+03  0.11864531685E+03  0.00000000000E+00 0. -1.
         -1   -1    0    0    0  501 -0.00000000000E+00 -0.00000000000E+00 -0.16352659497E+03  0.16352659497E+03  0.00000000000E+00 0.  1.
         25    2    1    2    0    0  0.66807414208E+02 -0.31579593432E+02  0.21341866414E+02  0.14684538642E+03  0.12509033110E+03 0.  0.
          5    1    3    3  502    0 -0.55315845751E+01 -0.21044181536E+02 -0.43643003568E+02  0.48945277248E+02  0.41800000000E+01 0. -1.
         -5    1    3    3    0  502  0.72338998783E+02 -0.10535411896E+02  0.64984869982E+02  0.97900109169E+02  0.41800000000E+01 0. -1.
        -11    1    1    2    0    0 -0.20055336545E+02  0.56314125027E+02 -0.55055027257E+02  0.81268402395E+02  0.00000000000E+00 0. -1.
         11    1    1    2    0    0 -0.46752077663E+02 -0.24734531596E+02 -0.11168117279E+02  0.54058123003E+02  0.00000000000E+00 0.  1.
</event>
<event>
 7    1  0.2943257E-009  0.2018143E+03  0.7561462E-02  0.1148217E+00
         -2   -1    0    0    0  501 -0.00000000000E+00  0.00000000000E+00  0.29252958175E+03  0.29252958175E+03  0.00000000000E+00 0.  1.
          2   -1    0    0  501    0  0.00000000000E+00 -0.00000000000E+00 -0.16065260359E+03  0.16065260359E+03  0.00000000000E+00 0. -1.
         25    2    1    2    0    0  0.93809681053E+02  0.16017604816E+03  0.55265853391E+02  0.23056262245E+03  0.12509270825E+03 0.  0.
          5    1    3    3  502    0 -0.12600032829E+02 -0.82942379453E+01 -0.12520659234E+02  0.20044812746E+02  0.41800000000E+01 0. -1.
         -5    1    3    3    0  502  0.10640971388E+03  0.16847028610E+03  0.67786512625E+02  0.21051780970E+03  0.41800000000E+01 0. -1.
        -11    1    1    2    0    0 -0.89682616596E+02 -0.12835540848E+03  0.20414690400E+02  0.15790770149E+03  0.00000000000E+00 0.  1.
         11    1    1    2    0    0 -0.41270644566E+01 -0.31820639673E+02  0.56196434367E+02  0.64711861400E+02  0.00000000000E+00 0. -1.
</event>
<event>
 7    1  0.2943257E-009  0.1039878E+03  0.7561462E-02  0.1272127E+00
          1   -1    0    0  501    0  0.00000000000E+00  0.00000000000E+00  0.16342993849E+03  0.16342993849E+03  0.00000000000E+00 0. -1.
         -1   -1    0    0    0  501 -0.00000000000E+00 -0.00000000000E+00 -0.79802016850E+02  0.79802016850E+02  0.00000000000E+00 0.  1.
         25    2    1    2    0    0 -0.23445147455E+02  0.21905285526E+02  0.48075696669E+02  0.13780541395E+03  0.12509813360E+03 0.  0.
          5    1    3    3  502    0 -0.51857506580E+02 -0.24955240276E+02 -0.91949152113E+01  0.58429306617E+02  0.41800000000E+01 0. -1.
         -5    1    3    3    0  502  0.28412359126E+02  0.46860525802E+02  0.57270611880E+02  0.79376107329E+02  0.41800000000E+01 0. -1.
        -11    1    1    2    0    0 -0.33329929033E+02 -0.19222019700E+02  0.29063633553E+02  0.48218927881E+02  0.00000000000E+00 0. -1.
         11    1    1    2    0    0  0.56775076488E+02 -0.26832658251E+01  0.64885914217E+01  0.57207613517E+02  0.00000000000E+00 0.  1.
</event>
<event>
 7    1  0.2943257E-009  0.1019293E+03  0.7561462E-02  0.1276290E+00
          1   -1    0    0  501    0  0.00000000000E+00  0.00000000000E+00  0.66232814357E+03  0.66232814357E+03  0.00000000000E+00 0. -1.
         -1   -1    0    0    0  501 -0.00000000000E+00 -0.00000000000E+00 -0.21797903031E+02  0.21797903031E+02  0.00000000000E+00 0.  1.
         25    2    1    2    0    0  0.18410760757E+02 -0.28626529660E+02  0.47242381135E+03  0.48989566573E+03  0.12512022799E+03 0.  0.
          5    1    3    3  502    0  0.69377657788E+02  0.25236136517E+01  0.23896681909E+03  0.24888198217E+03  0.41800000000E+01 0. -1.
         -5    1    3    3    0  502 -0.50966897031E+02 -0.31150143312E+02  0.23345699227E+03  0.24101368355E+03  0.41800000000E+01 0. -1.
        -11    1    1    2    0    0  0.10372191797E+02 -0.17334736971E+02  0.29707396692E+01  0.20418147877E+02  0.00000000000E+00 0.  1.
         11    1    1    2    0    0 -0.28782952553E+02  0.45961266631E+02  0.16513568952E+03  0.17381223300E+03  0.00000000000E+00 0. -1.
</event>
<event>
 7    1  0.2943257E-009  0.1156204E+03  0.7561462E-02  0.1250502E+00
          2   -1    0    0  501    0  0.00000000000E+00  0.00000000000E+00  0.39328600664E+03  0.39328600664E+03  0.00000000000E+00 0. -1.
         -2   -1    0    0    0  501 -0.00000000000E+00 -0.00000000000E+00 -0.40366640881E+02  0.40366640881E+02  0.00000000000E+00 0.  1.
         25    2    1    2    0    0  0.38733644802E+02 -0.24252714601E+02  0.12626710186E+03  0.18352020322E+03  0.12509114506E+03 0.  0.
          5    1    3    3  502    0  0.56820536157E+01 -0.70727558326E+02  0.94046805548E+02  0.11788531407E+03  0.41800000000E+01 0.  1.
         -5    1    3    3    0  502  0.33051591187E+02  0.46474843726E+02  0.32220296315E+02  0.65634889151E+02  0.41800000000E+01 0.  1.
        -11    1    1    2    0    0 -0.46194222132E+02  0.54720871178E+02  0.12872406638E+03  0.14730297067E+03  0.00000000000E+00 0.  1.
         11    1    1    2    0    0  0.74605773302E+01 -0.30468156577E+02  0.97928197516E+02  0.10282947364E+03  0.00000000000E+00 0. -1.
</event>
<event>
 7    1  0.2943257E-009  0.8636486E+02  0.7561462E-02  0.1311901E+00
          1   -1    0    0  501    0  0.00000000000E+00  0.00000000000E+00  0.62579494351E+02  0.62579494351E+02  0.00000000000E+00 0. -1.
         -1   -1    0    0    0  501 -0.00000000000E+00 -0.00000000000E+00 -0.18959075136E+03  0.18959075136E+03  0.00000000000E+00 0.  1.
         25    2    1    2    0    0  0.23447437083E+02 -0.79252985071E+01 -0.41663126120E+02  0.13412937823E+03  0.12506910635E+03 0.  0.
          5    1    3    3  502    0 -0.98818242133E+01 -0.58165927136E+02 -0.43890375818E+02  0.73652990563E+02  0.41800000000E+01 0.  1.
         -5    1    3    3    0  502  0.33329261296E+02  0.50240628629E+02  0.22272496980E+01  0.60476387664E+02  0.41800000000E+01 0.  1.
        -11    1    1    2    0    0 -0.17055833806E+02  0.27608602899E+02 -0.90978912179E+02  0.96593472254E+02  0.00000000000E+00 0.  1.
         11    1    1    2    0    0 -0.63916032769E+01 -0.19683304392E+02  0.56307812907E+01  0.21447395230E+02  0.00000000000E+00 0. -1.
</event>
<event>
 7    1  0.2943257E-009  0.8525414E+02  0.7561462E-02  0.1314769E+00
         -1   -1    0    0    0  501 -0.00000000000E+00  0.00000000000E+00  0.52083717555E+02  0.52083717555E+02  0.00000000000E+00 0.  1.
          1   -1    0    0  501    0  0.00000000000E+00 -0.00000000000E+00 -0.31939871568E+03  0.31939871568E+03  0.00000000000E+00 0. -1.
         25    2    1    2    0    0 -0.50767967610E+02 -0.25842524379E+02 -0.98943596701E+02  0.16935939291E+03  0.12509015163E+03 0.  0.
          5    1    3    3  502    0 -0.50419900986E+02 -0.16583132232E+02 -0.12797049074E+03  0.13860406051E+03  0.41800000000E+01 0. -1.
         -5    1    3    3    0  502 -0.34806662476E+00 -0.92593921464E+01  0.29026894038E+02  0.30755332396E+02  0.41800000000E+01 0. -1.
        -11    1    1    2    0    0 -0.22622732244E+02 -0.10804168806E+02 -0.68122420132E+02  0.72589132812E+02  0.00000000000E+00 0. -1.
         11    1    1    2    0    0  0.73390699854E+02  0.36646693185E+02 -0.10024898129E+03  0.12953390752E+03  0.00000000000E+00 0.  1.
</event>
<event>
 7    1  0.2943257E-009  0.1575593E+03  0.7561462E-02  0.1191480E+00
          1   -1    0    0  501    0  0.00000000000E+00  0.00000000000E+00  0.49702624172E+02  0.49702624172E+02  0.00000000000E+00 0. -1.
         -1   -1    0    0    0  501 -0.00000000000E+00 -0.00000000000E+00 -0.51773540312E+03  0.51773540312E+03  0.00000000000E+00 0.  1.
         25    2    1    2    0    0  0.10099240056E+03  0.60441766362E+02 -0.25325200340E+03  0.30600358682E+03  0.12509574666E+03 0.  0.
          5    1    3    3  502    0  0.58643361387E+02 -0.32382359239E+02 -0.12680374691E+03  0.14347237942E+03  0.41800000000E+01 0. -1.
         -5    1    3    3    0  502  0.42349039169E+02  0.92824125601E+02 -0.12644825649E+03  0.16253120740E+03  0.41800000000E+01 0. -1.
        -11    1    1    2    0    0 -0.41452152104E+02 -0.74000777222E+02 -0.15061368318E+03  0.17285507660E+03  0.00000000000E+00 0.  1.
         11    1    1    2    0    0 -0.59540248452E+02  0.13559010860E+02 -0.64167092366E+02  0.88579363872E+02  0.00000000000E+00 0. -1.
</event>
<event>
 7    1  0.2943257E-009  0.7154432E+02  0.7561462E-02  0.1354919E+00
         -1   -1    0    0    0  501 -0.00000000000E+00  0.00000000000E+00  0.31112691871E+02  0.31112691871E+02  0.00000000000E+00 0.  1.
          1   -1    0    0  501    0  0.00000000000E+00 -0.00000000000E+00 -0.47998642195E+03  0.47998642195E+03  0.00000000000E+00 0. -1.
         25    2    1    2    0    0  0.63401166962E+01  0.13074935091E+02 -0.13635618013E+03  0.18560885632E+03  0.12508592518E+03 0.  0.
          5    1    3    3  502    0  0.28756469947E+02  0.26936441124E+02 -0.15034544153E+03  0.15547903593E+03  0.41800000000E+01 0. -1.
         -5    1    3    3    0  502 -0.22416353250E+02 -0.13861506033E+02  0.13989261400E+02  0.30129820396E+02  0.41800000000E+01 0. -1.
        -11    1    1    2    0    0  0.22665103423E+01  0.31399298968E+02 -0.49943503006E+02  0.59037331726E+02  0.00000000000E+00 0.  1.
         11    1    1    2    0    0 -0.86066270386E+01 -0.44474234058E+02 -0.26257404694E+03  0.26645292577E+03  0.00000000000E+00 0. -1.
</event>
<event>
 7    1  0.2943257E-009  0.1187309E+03  0.7561462E-02  0.1245206E+00
         -3   -1    0    0    0  501 -0.00000000000E+00  0.00000000000E+00  0.64768713960E+03  0.64768713960E+03  0.00000000000E+00 0.  1.
          3   -1    0    0  501    0  0.00000000000E+00 -0.00000000000E+00 -0.40874506727E+02  0.40874506727E+02  0.00000000000E+00 0. -1.
         25    2    1    2    0    0  0.95385586919E+02  0.66329732306E+02  0.40070286040E+03  0.43555462709E+03  0.12508799809E+03 0.  0.
          5    1    3    3  502    0  0.66836332775E+02  0.56841682580E+02  0.39500204935E+03  0.40465066866E+03  0.41800000000E+01 0. -1.
         -5    1    3    3    0  502  0.28549254144E+02  0.94880497259E+01  0.57008110470E+01  0.30903958426E+02  0.41800000000E+01 0. -1.
        -11    1    1    2    0    0 -0.43971375412E+02 -0.46894119477E+02  0.18193918273E+03  0.19296218932E+03  0.00000000000E+00 0.  1.
         11    1    1    2    0    0 -0.51414211507E+02 -0.19435612829E+02  0.24170589749E+02  0.60044829917E+02  0.00000000000E+00 0. -1.
</event>
<event>
 7    1  0.2943257E-009  0.1854556E+03  0.7561462E-02  0.1162625E+00
          2   -1    0    0  501    0  0.00000000000E+00  0.00000000000E+00  0.15497168902E+04  0.15497168902E+04  0.00000000000E+00 0. -1.
         -2   -1    0    0    0  501 -0.00000000000E+00 -0.00000000000E+00 -0.22947239403E+02  0.22947239403E+02  0.00000000000E+00 0.  1.
         25    2    1    2    0    0 -0.14492771195E+03  0.70063701647E+02  0.84665515690E+03  0.87085336282E+03  0.12509061052E+03 0.  0.
          5    1    3    3  502    0 -0.15544563295E+03  0.90390098923E+02  0.77098630675E+03  0.79168874716E+03  0.41800000000E+01 0. -1.
         -5    1    3    3    0  502  0.10517921002E+02 -0.20326397276E+02  0.75668850153E+02  0.79164615655E+02  0.41800000000E+01 0. -1.
        -11    1    1    2    0    0  0.98368309426E+02 -0.21867587956E+02  0.31922349976E+03  0.33475089022E+03  0.00000000000E+00 0.  1.
         11    1    1    2    0    0  0.46559402526E+02 -0.48196113691E+02  0.36089099413E+03  0.36705987656E+03  0.00000000000E+00 0. -1.
</event>
<event>
 7    1  0.2943257E-009  0.9061280E+02  0.7561462E-02  0.1301374E+00
         -1   -1    0    0    0  501 -0.00000000000E+00  0.00000000000E+00  0.67676763462E+02  0.67676763462E+02  0.00000000000E+00 0.  1.
          1   -1    0    0  501    0  0.00000000000E+00 -0.00000000000E+00 -0.24291888308E+03  0.24291888308E+03  0.00000000000E+00 0. -1.
         25    2    1    2    0    0 -0.12837568709E+02  0.11744358936E+02 -0.17450378036E+03  0.21541071723E+03  0.12508986610E+03 0.  0.
          5    1    3    3  502    0  0.25514233577E+02  0.56037700737E+02 -0.12157972163E+03  0.13634625455E+03  0.41800000000E+01 0.  1.
         -5    1    3    3    0  502 -0.38351802286E+02 -0.44293341801E+02 -0.52924058735E+02  0.79064462684E+02  0.41800000000E+01 0.  1.
        -11    1    1    2    0    0  0.31849046247E+02  0.85373868134E+01  0.36192578213E+02  0.48960713211E+02  0.00000000000E+00 0. -1.
         11    1    1    2    0    0 -0.19011477538E+02 -0.20281745749E+02 -0.36930917472E+02  0.46224216101E+02  0.00000000000E+00 0.  1.
</event>
<event>
 7    1  0.2943257E-009  0.3785979E+03  0.7561462E-02  0.1051453E+00
         -1   -1    0    0    0  501 -0.00000000000E+00  0.00000000000E+00  0.81571023762E+02  0.81571023762E+02  0.00000000000E+00 0.  1.
          1   -1    0    0  501    0  0.00000000000E+00 -0.00000000000E+00 -0.19037418984E+04  0.19037418984E+04  0.00000000000E+00 0. -1.
         25    2    1    2    0    0  0.29040610634E+03  0.22329622145E+03 -0.68078752984E+03  0.78314507039E+03  0.12509049275E+03 0.  0.
          5    1    3    3  502    0  0.42148358160E+02  0.88583667798E+02 -0.24350507724E+03  0.26255617558E+03  0.41800000000E+01 0. -1.
         -5    1    3    3    0  502  0.24825774818E+03  0.13471255365E+03 -0.43728245261E+03  0.52058889481E+03  0.41800000000E+01 0. -1.
        -11    1    1    2    0    0 -0.14152390249E+03 -0.55027268230E+02 -0.42003379706E+03  0.44663789125E+03  0.00000000000E+00 0. -1.
         11    1    1    2    0    0 -0.14888220385E+03 -0.16826895322E+03 -0.72134954778E+03  0.75552996057E+03  0.00000000000E+00 0.  1.
</event>
<event>
 7    1  0.2943257E-009  0.1196780E+03  0.7561462E-02  0.1243629E+00
         -2   -1    0    0    0  501 -0.00000000000E+00  0.00000000000E+00  0.27299161571E+02  0.27299161571E+02  0.00000000000E+00 0.  1.
          2   -1    0    0  501    0  0.00000000000E+00 -0.00000000000E+00 -0.90068188813E+03  0.90068188813E+03  0.00000000000E+00 0. -1.
         25    2    1    2    0    0 -0.51499990933E+02 -0.54692406461E+02 -0.72136963676E+03  0.73597889263E+03  0.12508904499E+03 0.  0.
          5    1    3    3  502    0 -0.47819754134E+02  0.32020110209E+02 -0.24078374314E+03  0.24760108987E+03  0.41800000000E+01 0.  1.
         -5    1    3    3    0  502 -0.36802367996E+01 -0.86712516671E+02 -0.48058589362E+03  0.48837780277E+03  0.41800000000E+01 0.  1.
        -11    1    1    2    0    0  0.49894983342E+02  0.11066359418E+02 -0.13636378129E+03  0.14562642109E+03  0.00000000000E+00 0. -1.
         11    1    1    2    0    0  0.16050075910E+01  0.43626047043E+02 -0.15649308512E+02  0.46375735971E+02  0.00000000000E+00 0.  1.
</event>
<event>
 7    1  0.3191008E-009  0.1454094E+03  0.7561462E-02  0.1206230E+00
          1   -1    0    0  501    0  0.00000000000E+00  0.00000000000E+00  0.44873023621E+03  0.44873023621E+03  0.00000000000E+00 0. -1.
         -1   -1    0    0    0  501 -0.00000000000E+00 -0.00000000000E+00 -0.62003947545E+02  0.62003947545E+02  0.00000000000E+00 0.  1.
         25    2    1    2    0    0 -0.21183318195E+02 -0.10430018356E+03  0.10243152599E+03  0.19356354052E+03  0.12508942978E+03 0.  0.
          5    1    3    3  502    0  0.15598880737E+02  0.17115761531E+02  0.51817848308E+02  0.56910773816E+02  0.41800000000E+01 0.  1.
         -5    1    3    3    0  502 -0.36782198931E+02 -0.12141594509E+03  0.50613677683E+02  0.13665276671E+03  0.41800000000E+01 0.  1.
        -11    1    1    2    0    0  0.44216070161E+02  0.12847797275E+02  0.10260770459E+03  0.11246540711E+03  0.00000000000E+00 0.  1.
         11    1    1    2    0    0 -0.23032751967E+02  0.91452386284E+02  0.18168705808E+03  0.20470523612E+03  0.00000000000E+00 0. -1.
</event>
<event>
 7    1  0.2943257E-009  0.1247176E+03  0.7561462E-02  0.1235511E+00
         -2   -1    0    0    0  501 -0.00000000000E+00  0.00000000000E+00  0.31044077167E+02  0.31044077167E+02  0.00000000000E+00 0.  1.
          2   -1    0    0  501    0  0.00000000000E+00 -0.00000000000E+00 -0.66730475850E+03  0.66730475850E+03  0.00000000000E+00 0. -1.
         25    2    1    2    0    0 -0.92412882787E+02 -0.73932868406E+01 -0.29962065544E+03  0.33766027800E+03  0.12508846703E+03 0.  0.
          5    1    3    3  502    0 -0.11168673959E+03 -0.31866041449E+01 -0.15213883237E+03  0.18880619418E+03  0.41800000000E+01 0. -1.
         -5    1    3    3    0  502  0.19273856807E+02 -0.42066826958E+01 -0.14748182306E+03  0.14885408382E+03  0.41800000000E+01 0. -1.
        -11    1    1    2    0    0  0.24062535429E+02  0.36051487606E+02 -0.58282710755E+02  0.72633255075E+02  0.00000000000E+00 0.  1.
         11    1    1    2    0    0  0.68350347358E+02 -0.28658200766E+02 -0.27835731515E+03  0.28805530259E+03  0.00000000000E+00 0. -1.
</event>
<event>
 7    1  0.2943257E-009  0.1082573E+03  0.7561462E-02  0.1263832E+00
         -2   -1    0    0    0  501 -0.00000000000E+00  0.00000000000E+00  0.54397880303E+02  0.54397880303E+02  0.00000000000E+00 0.  1.
          2   -1    0    0  501    0  0.00000000000E+00 -0.00000000000E+00 -0.29241086112E+03  0.29241086112E+03  0.00000000000E+00 0. -1.
         25    2    1    2    0    0  0.50748234164E+02 -0.19275852145E+02 -0.18157465875E+03  0.22707693558E+03  0.12509051214E+03 0.  0.
          5    1    3    3  502    0 -0.18104972980E+02  0.32333189726E+02 -0.16303374122E+02  0.40700093517E+02  0.41800000000E+01 0. -1.
         -5    1    3    3    0  502  0.68853207144E+02 -0.51609041871E+02 -0.16527128463E+03  0.18637684207E+03  0.41800000000E+01 0. -1.
        -11    1    1    2    0    0 -0.50038208219E+02  0.45025549688E+02 -0.12011016855E+02  0.68376801127E+02  0.00000000000E+00 0.  1.
         11    1    1    2    0    0 -0.71002594520E+00 -0.25749697543E+02 -0.44427305217E+02  0.51355004715E+02  0.00000000000E+00 0. -1.
</event>
<event>
 7    1  0.2943257E-009  0.7696888E+02  0.7561462E-02  0.1337880E+00
          2   -1    0    0  501    0  0.00000000000E+00  0.00000000000E+00  0.81321426607E+03  0.81321426607E+03  0.00000000000E+00 0. -1.
         -2   -1    0    0    0  501 -0.00000000000E+00 -0.00000000000E+00 -0.20349370996E+02  0.20349370996E+02  0.00000000000E+00 0.  1.
         25    2    1    2    0    0  0.28993747431E+02 -0.41178692874E+02  0.59274417294E+03  0.60788936636E+03  0.12508998777E+03 0.  0.
          5    1    3    3  502    0 -0.66136225400E+00 -0.34350246457E+02  0.56630297146E+03  0.56735959031E+03  0.41800000000E+01 0.  1.
         -5    1    3    3    0  502  0.29655109685E+02 -0.68284464167E+01  0.26441201484E+02  0.40529776052E+02  0.41800000000E+01 0.  1.
        -11    1    1    2    0    0 -0.38507836027E+02  0.57803812326E+02  0.88897005139E+02  0.11281317156E+03  0.00000000000E+00 0.  1.
         11    1    1    2    0    0  0.95140885953E+01 -0.16625119452E+02  0.11122371699E+03  0.11286109915E+03  0.00000000000E+00 0. -1.
</event>
<event>
 7    1  0.2943257E-009  0.1069023E+03  0.7561462E-02  0.1266416E+00
          2   -1    0    0  501    0  0.00000000000E+00  0.00000000000E+00  0.13562526480E+03  0.13562526480E+03  0.00000000000E+00 0. -1.
         -2   -1    0    0    0  501 -0.00000000000E+00 -0.00000000000E+00 -0.11593051870E+03  0.11593051870E+03  0.00000000000E+00 0.  1.
         25    2    1    2    0    0  0.11730296060E+02 -0.23345939710E+01 -0.38652300364E+02  0.13147225478E+03  0.12509157957E+03 0.  0.
          5    1    3    3  502    0 -0.40070895600E+02  0.27652057411E+02 -0.50546296803E+02  0.70304434240E+02  0.41800000000E+01 0.  1.
         -5    1    3    3    0  502  0.51801191660E+02 -0.29986651382E+02  0.11893996439E+02  0.61167820542E+02  0.41800000000E+01 0.  1.
        -11    1    1    2    0    0  0.46274187449E+02  0.67639978020E+01  0.24951238351E+02  0.53005814640E+02  0.00000000000E+00 0.  1.
         11    1    1    2    0    0 -0.58004483509E+02 -0.44294038309E+01  0.33395808114E+02  0.67077714071E+02  0.00000000000E+00 0. -1.
</event>
<event>
 7    1  0.2943257E-009  0.2287758E+03  0.7561462E-02  0.1127504E+00
          2   -1    0    0  501    0  0.00000000000E+00  0.00000000000E+00  0.17574621522E+04  0.17574621522E+04  0.00000000000E+00 0. -1.
         -2   -1    0    0    0  501 -0.00000000000E+00 -0.00000000000E+00 -0.34890335651E+02  0.34890335651E+02  0.00000000000E+00 0.  1.
         25    2    1    2    0    0 -0.22227131342E+03  0.21720590701E+02  0.88039237229E+03  0.91685037905E+03  0.12509023762E+03 0.  0.
          5    1    3    3  502    0 -0.10394906408E+03 -0.23758538777E+02  0.22153455106E+03  0.24589612807E+03  0.41800000000E+01 0. -1.
         -5    1    3    3    0  502 -0.11832224933E+03  0.45479129478E+02  0.65885782124E+03  0.67095425098E+03  0.41800000000E+01 0. -1.
        -11    1    1    2    0    0  0.39549355615E+02 -0.10621698894E+02  0.63237169096E+02  0.75338645941E+02  0.00000000000E+00 0.  1.
         11    1    1    2    0    0  0.18272195780E+03 -0.11098891807E+02  0.77894227515E+03  0.80016346284E+03  0.00000000000E+00 0. -1.
</event>
<event>
 7    1  0.2943257E-009  0.1084936E+03  0.7561462E-02  0.1263385E+00
         -2   -1    0    0    0  501 -0.00000000000E+00  0.00000000000E+00  0.14650898123E+03  0.14650898123E+03  0.00000000000E+00 0.  1.
          2   -1    0    0  501    0  0.00000000000E+00 -0.00000000000E+00 -0.14165383105E+03  0.14165383105E+03  0.00000000000E+00 0. -1.
         25    2    1    2    0    0  0.39670941866E+02  0.14864780859E+02 -0.81756350919E+02  0.15532946265E+03  0.12509354785E+03 0.  0.
          5    1    3    3  502    0 -0.37156360589E+02 -0.24286248190E+02 -0.18336802158E+02  0.48209207594E+02  0.41800000000E+01 0. -1.
         -5    1    3    3    0  502  0.76827302456E+02  0.39151029050E+02 -0.63419548761E+02  0.10712025506E+03  0.41800000000E+01 0. -1.
        -11    1    1    2    0    0  0.15324700762E+01  0.27168782912E+02  0.64414779168E+02  0.69926783171E+02  0.00000000000E+00 0.  1.
         11    1    1    2    0    0 -0.41203411942E+02 -0.42033563771E+02  0.22196721929E+02  0.62906566457E+02  0.00000000000E+00 0. -1.
</event>
<event>
 7    1  0.2943257E-009  0.1438578E+03  0.7561462E-02  0.1208230E+00
          1   -1    0    0  501    0  0.00000000000E+00  0.00000000000E+00  0.22820621321E+04  0.22820621321E+04  0.00000000000E+00 0. -1.
         -1   -1    0    0    0  501 -0.00000000000E+00 -0.00000000000E+00 -0.35205645750E+02  0.35205645750E+02  0.00000000000E+00 0.  1.
         25    2    1    2    0    0 -0.27150003422E+02 -0.94116126882E+02  0.21366347970E+04  0.21425348605E+04  0.12510957034E+03 0.  0.
          5    1    3    3  502    0 -0.67191997845E+02 -0.13341716026E+02  0.91019084112E+03  0.91277467407E+03  0.41800000000E+01 0.  1.
         -5    1    3    3    0  502  0.40041994423E+02 -0.80774410856E+02  0.12264439559E+04  0.12297601864E+04  0.41800000000E+01 0.  1.
        -11    1    1    2    0    0 -0.18380069519E+02 -0.55998415191E+01 -0.94851452795E-01  0.19214426282E+02  0.00000000000E+00 0.  1.
         11    1    1    2    0    0  0.45530072941E+02  0.99715968401E+02  0.11031654080E+03  0.15551849109E+03  0.00000000000E+00 0. -1.
</event>
<event>
 7    1  0.2943257E-009  0.9624326E+02  0.7561462E-02  0.1288400E+00
          2   -1    0    0  501    0  0.00000000000E+00  0.00000000000E+00  0.70929567069E+03  0.70929567069E+03  0.00000000000E+00 0.  1.
         -2   -1    0    0    0  501 -0.00000000000E+00 -0.00000000000E+00 -0.25672851133E+02  0.25672851133E+02  0.00000000000E+00 0. -1.
         25    2    1    2    0    0 -0.72484238807E+01 -0.39366842993E+02  0.52440374413E+03  0.54060945773E+03  0.12512797833E+03 0.  0.
          5    1    3    3  502    0  0.37860061450E+02  0.27684559411E+02  0.25515240103E+03  0.25946105533E+03  0.41800000000E+01 0.  1.
         -5    1    3    3    0  502 -0.45108485331E+02 -0.67051402404E+02  0.26925134310E+03  0.28114840240E+03  0.41800000000E+01 0.  1.
        -11    1    1    2    0    0  0.21050508591E+02  0.44914318233E+02  0.16928215071E+03  0.17639973481E+03  0.00000000000E+00 0.  1.
         11    1    1    2    0    0 -0.13802084710E+02 -0.55474752408E+01 -0.10063075280E+02  0.17959329274E+02  0.00000000000E+00 0. -1.
</event>
<event>
 7    1  0.2943257E-009  0.1196777E+03  0.7561462E-02  0.1243630E+00
         -2   -1    0    0    0  501 -0.00000000000E+00  0.00000000000E+00  0.15827745164E+03  0.15827745164E+03  0.00000000000E+00 0.  1.
          2   -1    0    0  501    0  0.00000000000E+00 -0.00000000000E+00 -0.10942888594E+03  0.10942888594E+03  0.00000000000E+00 0. -1.
         25    2    1    2    0    0 -0.12082705825E+02  0.68117131317E+02  0.27486292890E+02  0.14556206180E+03  0.12508749810E+03 0.  0.
          5    1    3    3  502    0 -0.53779728035E+02  0.14680197005E+02 -0.23500847581E+02  0.60642638207E+02  0.41800000000E+01 0.  1.
         -5    1    3    3    0  502  0.41697022210E+02  0.53436934312E+02  0.50987140472E+02  0.84919423593E+02  0.41800000000E+01 0.  1.
        -11    1    1    2    0    0 -0.40592580819E+02 -0.31710278385E+02  0.26460910104E+02  0.57909231875E+02  0.00000000000E+00 0.  1.
         11    1    1    2    0    0  0.52675286644E+02 -0.36406852931E+02 -0.50986372991E+01  0.64235043907E+02  0.00000000000E+00 0. -1.
</event>
<event>
 7    1  0.2943257E-009  0.1021401E+03  0.7561462E-02  0.1275859E+00
          3   -1    0    0  501    0  0.00000000000E+00  0.00000000000E+00  0.32002243582E+03  0.32002243582E+03  0.00000000000E+00 0. -1.
         -3   -1    0    0    0  501 -0.00000000000E+00 -0.00000000000E+00 -0.68184251419E+02  0.68184251419E+02  0.00000000000E+00 0.  1.
         25    2    1    2    0    0  0.38804428187E+02 -0.29910943813E+01  0.16642902880E+02  0.13205775316E+03  0.12509010217E+03 0.  0.
          5    1    3    3  502    0  0.79100947509E+02  0.16915596465E+02  0.27666124929E+02  0.85591963228E+02  0.41800000000E+01 0. -1.
         -5    1    3    3    0  502 -0.40296519322E+02 -0.19906690846E+02 -0.11023222049E+02  0.46465789935E+02  0.41800000000E+01 0. -1.
        -11    1    1    2    0    0 -0.92689990915E+01 -0.31441304919E+02  0.18742872256E+03  0.19027347697E+03  0.00000000000E+00 0. -1.
         11    1    1    2    0    0 -0.29535429096E+02  0.34432399300E+02  0.47766558961E+02  0.65875457102E+02  0.00000000000E+00 0.  1.
</event>
<event>
 7    1  0.2943257E-009  0.1111581E+03  0.7561462E-02  0.1258440E+00
          2   -1    0    0  501    0  0.00000000000E+00  0.00000000000E+00  0.19825723069E+03  0.19825723069E+03  0.00000000000E+00 0. -1.
         -2   -1    0    0    0  501 -0.00000000000E+00 -0.00000000000E+00 -0.85683157448E+02  0.85683157448E+02  0.00000000000E+00 0.  1.
         25    2    1    2    0    0  0.44954148694E+02 -0.26294948530E+02  0.11601704529E+03  0.17838119430E+03  0.12509035086E+03 0.  0.
          5    1    3    3  502    0  0.27733741758E+02 -0.72913454251E+02  0.40805853624E+02  0.88136952140E+02  0.41800000000E+01 0. -1.
         -5    1    3    3    0  502  0.17220406936E+02  0.46618505721E+02  0.75211191666E+02  0.90244242157E+02  0.41800000000E+01 0. -1.
        -11    1    1    2    0    0 -0.47606897356E+02  0.50830510515E+02  0.19014334967E+02  0.72192121518E+02  0.00000000000E+00 0. -1.
         11    1    1    2    0    0  0.26527486618E+01 -0.24535561985E+02 -0.22457307012E+02  0.33367072326E+02  0.00000000000E+00 0.  1.
</event>
<event>
 7    1  0.2943257E-009  0.1128442E+03  0.7561462E-02  0.1255392E+00
         -1   -1    0    0    0  501 -0.00000000000E+00  0.00000000000E+00  0.53426304192E+03  0.53426304192E+03  0.00000000000E+00 0.  1.
          1   -1    0    0  501    0  0.00000000000E+00 -0.00000000000E+00 -0.28014839506E+02  0.28014839506E+02  0.00000000000E+00 0. -1.
         25    2    1    2    0    0 -0.94980549133E+01 -0.34555178857E+02  0.18484905714E+03  0.22605501053E+03  0.12508964958E+03 0.  0.
          5    1    3    3  502    0 -0.65769288872E+02 -0.19616094909E+02  0.12365596562E+03  0.14148731664E+03  0.41800000000E+01 0. -1.
         -5    1    3    3    0  502  0.56271233959E+02 -0.14939083948E+02  0.61193091518E+02  0.84567693891E+02  0.41800000000E+01 0. -1.
        -11    1    1    2    0    0 -0.23545703564E+02  0.54912263256E+02  0.20450602347E+03  0.21305508783E+03  0.00000000000E+00 0.  1.
         11    1    1    2    0    0  0.33043758478E+02 -0.20357084399E+02  0.11689312181E+03  0.12316778306E+03  0.00000000000E+00 0. -1.
</event>
<event>
 7    1  0.3002291E-009  0.1433565E+03  0.7561462E-02  0.1208883E+00
          2   -1    0    0  501    0  0.00000000000E+00  0.00000000000E+00  0.11544285011E+04  0.11544285011E+04  0.00000000000E+00 0. -1.
         -2   -1    0    0    0  501 -0.00000000000E+00 -0.00000000000E+00 -0.23640429896E+02  0.23640429896E+02  0.00000000000E+00 0.  1.
         25    2    1    2    0    0  0.51064932912E+02  0.10271851698E+03  0.77492970097E+03  0.79329728460E+03  0.12508324908E+03 0.  0.
          5    1    3    3  502    0  0.53275069530E+02 -0.26986873178E+01  0.14431914082E+03  0.15391881871E+03  0.41800000000E+01 0.  1.
         -5    1    3    3    0  502 -0.22101366183E+01  0.10541720430E+03  0.63061056015E+03  0.63937846589E+03  0.41800000000E+01 0.  1.
        -11    1    1    2    0    0 -0.48721372072E+01 -0.72098635151E+02  0.28916397448E+03  0.29805663061E+03  0.00000000000E+00 0.  1.
         11    1    1    2    0    0 -0.46192795705E+02 -0.30619881828E+02  0.66694395744E+02  0.86715015780E+02  0.00000000000E+00 0. -1.
</event>
<event>
 7    1  0.2943257E-009  0.1259085E+03  0.7561462E-02  0.1233656E+00
         -2   -1    0    0    0  501 -0.00000000000E+00  0.00000000000E+00  0.11068888543E+03  0.11068888543E+03  0.00000000000E+00 0.  1.
          2   -1    0    0  501    0  0.00000000000E+00 -0.00000000000E+00 -0.15436875427E+03  0.15436875427E+03  0.00000000000E+00 0. -1.
         25    2    1    2    0    0 -0.84177812555E+01  0.68367899763E+02 -0.52390914822E+02  0.15211271055E+03  0.12509372484E+03 0.  0.
          5    1    3    3  502    0  0.28462704859E+02 -0.26105830969E+02 -0.22813487931E+01  0.38914225302E+02  0.41800000000E+01 0. -1.
         -5    1    3    3    0  502 -0.36880486115E+02  0.94473730732E+02 -0.50109566029E+02  0.11319848525E+03  0.41800000000E+01 0. -1.
        -11    1    1    2    0    0  0.47376673949E+02 -0.48244460274E+02  0.13107740065E+02  0.68875903125E+02  0.00000000000E+00 0.  1.
         11    1    1    2    0    0 -0.38958892694E+02 -0.20123439489E+02 -0.43966940845E+01  0.44069026035E+02  0.00000000000E+00 0. -1.
</event>
<event>
 7    1  0.2943257E-009  0.1237255E+03  0.7561462E-02  0.1237075E+00
         -2   -1    0    0    0  501 -0.00000000000E+00  0.00000000000E+00  0.49173286701E+02  0.49173286701E+02  0.00000000000E+00 0.  1.
          2   -1    0    0  501    0  0.00000000000E+00 -0.00000000000E+00 -0.35973315833E+03  0.35973315833E+03  0.00000000000E+00 0. -1.
         25    2    1    2    0    0  0.43754475693E+02 -0.61905833596E+02 -0.18786409628E+03  0.23809272180E+03  0.12509372138E+03 0.  0.
          5    1    3    3  502    0  0.28562741166E+02 -0.99879457560E+02 -0.12027764205E+03  0.15898402373E+03  0.41800000000E+01 0. -1.
         -5    1    3    3    0  502  0.15191734527E+02  0.37973623964E+02 -0.67586454229E+02  0.79108698069E+02  0.41800000000E+01 0. -1.
        -11    1    1    2    0    0 -0.20615588198E+01  0.60623186683E+02 -0.26948886027E+02  0.66375170406E+02  0.00000000000E+00 0.  1.
         11    1    1    2    0    0 -0.41692916873E+02  0.12826469127E+01 -0.95746889323E+02  0.10443855282E+03  0.00000000000E+00 0. -1.
</event>
<event>
 7    1  0.2943257E-009  0.7649035E+02  0.7561462E-02  0.1339317E+00
         -2   -1    0    0    0  501 -0.00000000000E+00  0.00000000000E+00  0.11949521566E+02  0.11949521566E+02  0.00000000000E+00 0.  1.
          2   -1    0    0  501    0  0.00000000000E+00 -0.00000000000E+00 -0.14898488168E+04  0.14898488168E+04  0.00000000000E+00 0. -1.
         25    2    1    2    0    0  0.14219613613E+02  0.73921973894E+02 -0.10957904579E+04  0.11054707975E+04  0.12506918427E+03 0.  0.
          5    1    3    3  502    0  0.15386979007E+02  0.56631891968E+02 -0.17728423391E+03  0.18679160127E+03  0.41800000000E+01 0. -1.
         -5    1    3    3    0  502 -0.11673653944E+01  0.17290081927E+02 -0.91850622400E+03  0.91867919624E+03  0.41800000000E+01 0. -1.
        -11    1    1    2    0    0  0.23244031553E+01 -0.12221691381E+02 -0.43099482086E+01  0.13166178025E+02  0.00000000000E+00 0.  1.
         11    1    1    2    0    0 -0.16544016768E+02 -0.61700282513E+02 -0.37779888912E+03  0.38316136284E+03  0.00000000000E+00 0. -1.
</event>
<event>
 7    1  0.3785259E-009  0.1761305E+03  0.7561462E-02  0.1171601E+00
          2   -1    0    0  501    0  0.00000000000E+00  0.00000000000E+00  0.16296909319E+04  0.16296909319E+04  0.00000000000E+00 0. -1.
         -2   -1    0    0    0  501 -0.00000000000E+00 -0.00000000000E+00 -0.24816635958E+02  0.24816635958E+02  0.00000000000E+00 0.  1.
         25    2    1    2    0    0 -0.17316473480E+02  0.16510253908E+03  0.97098117723E+03  0.99298208644E+03  0.12510103430E+03 0.  0.
          5    1    3    3  502    0  0.31201643987E+02  0.58502783739E+02  0.15513904977E+03  0.16876526733E+03  0.41800000000E+01 0.  1.
         -5    1    3    3    0  502 -0.48518117468E+02  0.10659975534E+03  0.81584212747E+03  0.82421681911E+03  0.41800000000E+01 0.  1.
        -11    1    1    2    0    0  0.25660700284E+02 -0.11415798655E+03  0.55530766066E+03  0.56750076249E+03  0.00000000000E+00 0. -1.
         11    1    1    2    0    0 -0.83442268036E+01 -0.50944552527E+02  0.78585458020E+02  0.94024718906E+02  0.00000000000E+00 0.  1.
</event>
<event>
 7    1  0.2943257E-009  0.1347784E+03  0.7561462E-02  0.1220533E+00
          1   -1    0    0  501    0  0.00000000000E+00  0.00000000000E+00  0.63233919472E+02  0.63233919472E+02  0.00000000000E+00 0. -1.
         -1   -1    0    0    0  501 -0.00000000000E+00 -0.00000000000E+00 -0.45901693250E+03  0.45901693250E+03  0.00000000000E+00 0.  1.
         25    2    1    2    0    0  0.72344180896E+02 -0.55269088528E+02 -0.63874787407E+02  0.16738742826E+03  0.12510079942E+03 0.  0.
          5    1    3    3  502    0 -0.26395694994E+02  0.72405227897E+01 -0.39006424925E+02  0.47834417211E+02  0.41800000000E+01 0.  1.
         -5    1    3    3    0  502  0.98739875890E+02 -0.62509611318E+02 -0.24868362482E+02  0.11955301105E+03  0.41800000000E+01 0.  1.
        -11    1    1    2    0    0  0.17929245137E+02  0.22778825317E+02 -0.92895480012E+02  0.97313426210E+02  0.00000000000E+00 0.  1.
         11    1    1    2    0    0 -0.90273426033E+02  0.32490263211E+02 -0.23901274561E+03  0.25754999751E+03  0.00000000000E+00 0. -1.
</event>
<event>
 7    1  0.2943257E-009  0.1186204E+03  0.7561462E-02  0.1245390E+00
         -1   -1    0    0    0  501 -0.00000000000E+00  0.00000000000E+00  0.19522654653E+03  0.19522654653E+03  0.00000000000E+00 0.  1.
          1   -1    0    0  501    0  0.00000000000E+00 -0.00000000000E+00 -0.85269621629E+02  0.85269621629E+02  0.00000000000E+00 0. -1.
         25    2    1    2    0    0 -0.57904955803E+02  0.31628362767E+02  0.84604187540E+02  0.16479845618E+03  0.12508926962E+03 0.  0.
          5    1    3    3  502    0 -0.30450693004E+02 -0.38303613885E+02 -0.31383068351E+01  0.49211105564E+02  0.41800000000E+01 0. -1.
         -5    1    3    3    0  502 -0.27454262799E+02  0.69931976652E+02  0.87742494375E+02  0.11558735062E+03  0.41800000000E+01 0. -1.
        -11    1    1    2    0    0  0.55915745634E+02  0.21362432599E+02  0.13355891252E+02  0.61329470628E+02  0.00000000000E+00 0.  1.
         11    1    1    2    0    0  0.19892101690E+01 -0.52990795366E+02  0.11996846110E+02  0.54368241347E+02  0.00000000000E+00 0. -1.
</event>
<event>
 7    1  0.2943257E-009  0.1099750E+03  0.7561462E-02  0.1260616E+00
          1   -1    0    0  501    0  0.00000000000E+00  0.00000000000E+00  0.40675930331E+02  0.40675930331E+02  0.00000000000E+00 0. -1.
         -1   -1    0    0    0  501 -0.00000000000E+00 -0.00000000000E+00 -0.36494604774E+03  0.36494604774E+03  0.00000000000E+00 0.  1.
         25    2    1    2    0    0  0.42471735121E+02  0.96615127848E+01 -0.24621906047E+03  0.27958806446E+03  0.12509383253E+03 0.  0.
          5    1    3    3  502    0 -0.39250655374E+02  0.85984324905E+01 -0.13872569660E+03  0.14448819428E+03  0.41800000000E+01 0.  1.
         -5    1    3    3    0  502  0.81722390495E+02  0.10630802944E+01 -0.10749336387E+03  0.13509987019E+03  0.41800000000E+01 0.  1.
        -11    1    1    2    0    0 -0.28697641627E+02 -0.48584651807E+02 -0.54755835763E+02  0.78627123667E+02  0.00000000000E+00 0.  1.
         11    1    1    2    0    0 -0.13774093494E+02  0.38923139022E+02 -0.23295221177E+02  0.47406789942E+02  0.00000000000E+00 0. -1.
</event>
<event>
 7    1  0.2943257E-009  0.2043575E+03  0.7561462E-02  0.1146114E+00
         -2   -1    0    0    0  501 -0.00000000000E+00  0.00000000000E+00  0.89303068474E+03  0.89303068474E+03  0.00000000000E+00 0.  1.
          2   -1    0    0  501    0  0.00000000000E+00 -0.00000000000E+00 -0.51440608176E+02  0.51440608176E+02  0.00000000000E+00 0. -1.
         25    2    1    2    0    0  0.15194245338E+03  0.92392893669E+02  0.54563327761E+03  0.58734978838E+03  0.12506456067E+03 0.  0.
          5    1    3    3  502    0  0.16826917500E+03  0.10263178795E+03  0.48294851163E+03  0.52163640252E+03  0.41800000000E+01 0.  1.
         -5    1    3    3    0  502 -0.16326721618E+02 -0.10238894277E+02  0.62684765979E+02  0.65713385856E+02  0.41800000000E+01 0.  1.
        -11    1    1    2    0    0 -0.52561214597E+02 -0.74025863959E+02  0.19065570326E+03  0.21116843277E+03  0.00000000000E+00 0.  1.
         11    1    1    2    0    0 -0.99381238783E+02 -0.18367029710E+02  0.10530109570E+03  0.14595307176E+03  0.00000000000E+00 0. -1.
</event>
<event>
 7    1  0.2943257E-009  0.1080339E+03  0.7561462E-02  0.1264255E+00
          2   -1    0    0  501    0  0.00000000000E+00  0.00000000000E+00  0.59217599878E+03  0.59217599878E+03  0.00000000000E+00 0. -1.
         -2   -1    0    0    0  501 -0.00000000000E+00 -0.00000000000E+00 -0.22350335816E+02  0.22350335816E+02  0.00000000000E+00 0.  1.
         25    2    1    2    0    0  0.36760496001E+02  0.56308348315E+01  0.36694902035E+03  0.38945844238E+03  0.12507299643E+03 0.  0.
          5    1    3    3  502    0  0.76769589895E+02  0.16697289761E+02  0.30342205901E+03  0.31345619744E+03  0.41800000000E+01 0. -1.
         -5    1    3    3    0  502 -0.40009093894E+02 -0.11066454930E+02  0.63526961335E+02  0.76002244936E+02  0.41800000000E+01 0. -1.
        -11    1    1    2    0    0 -0.44749437357E+02  0.33394483755E+02  0.13890798364E+03  0.14971015867E+03  0.00000000000E+00 0.  1.
         11    1    1    2    0    0  0.79889413555E+01 -0.39025318587E+02  0.63968658968E+02  0.75357733544E+02  0.00000000000E+00 0. -1.
</event>
<event>
 7    1  0.2943257E-009  0.1954639E+03  0.7561462E-02  0.1153624E+00
         -2   -1    0    0    0  501 -0.00000000000E+00  0.00000000000E+00  0.15750577914E+03  0.15750577914E+03  0.00000000000E+00 0.  1.
          2   -1    0    0  501    0  0.00000000000E+00 -0.00000000000E+00 -0.28518630173E+03  0.28518630173E+03  0.00000000000E+00 0. -1.
         25    2    1    2    0    0 -0.12208943218E+03  0.13491458288E+03 -0.67824348668E+02  0.23098486682E+03  0.12508434076E+03 0.  0.
          5    1    3    3  502    0 -0.96638544731E+02  0.14355409301E+03 -0.17762586462E+02  0.17401082675E+03  0.41800000000E+01 0. -1.
         -5    1    3    3    0  502 -0.25450887448E+02 -0.86395101274E+01 -0.50061762206E+02  0.56974040074E+02  0.41800000000E+01 0. -1.
        -11    1    1    2    0    0  0.18788632133E+02 -0.60398275445E+02  0.13561420379E+02  0.64690621398E+02  0.00000000000E+00 0.  1.
         11    1    1    2    0    0  0.10330080005E+03 -0.74516307434E+02 -0.73417594296E+02  0.14701659266E+03  0.00000000000E+00 0. -1.
</event>
<event>
 7    1  0.2943257E-009  0.1031323E+03  0.7561462E-02  0.1273844E+00
          1   -1    0    0  501    0  0.00000000000E+00  0.00000000000E+00  0.18006400812E+03  0.18006400812E+03  0.00000000000E+00 0. -1.
         -1   -1    0    0    0  501 -0.00000000000E+00 -0.00000000000E+00 -0.67193270637E+02  0.67193270637E+02  0.00000000000E+00 0.  1.
         25    2    1    2    0    0  0.81262215167E+01  0.16732919189E+02  0.80634006826E+02  0.14997635314E+03  0.12508012385E+03 0.  0.
          5    1    3    3  502    0  0.14289147416E+02  0.66693805363E+02  0.71018869465E+02  0.98556560552E+02  0.41800000000E+01 0. -1.
         -5    1    3    3    0  502 -0.61629258990E+01 -0.49960886174E+02  0.96151373604E+01  0.51419792584E+02  0.41800000000E+01 0. -1.
        -11    1    1    2    0    0 -0.15822834092E+01  0.35118314083E+02 -0.13096417855E+01  0.35178328078E+02  0.00000000000E+00 0. -1.
         11    1    1    2    0    0 -0.65439381075E+01 -0.51851233272E+02  0.33546372446E+02  0.62102597546E+02  0.00000000000E+00 0.  1.
</event>
<event>
 7    1  0.2943257E-009  0.1250334E+03  0.7561462E-02  0.1235017E+00
         -2   -1    0    0    0  501 -0.00000000000E+00  0.00000000000E+00  0.99115065242E+02  0.99115065242E+02  0.00000000000E+00 0. -1.
          2   -1    0    0  501    0  0.00000000000E+00 -0.00000000000E+00 -0.23057048967E+03  0.23057048967E+03  0.00000000000E+00 0.  1.
         25    2    1    2    0    0 -0.10367512517E+03  0.53966266616E+01 -0.70597962770E+02  0.17721835688E+03  0.12507844942E+03 0.  0.
          5    1    3    3  502    0  0.43863440810E+01  0.22456095147E+02  0.23347791113E+02  0.32956152286E+02  0.41800000000E+01 0. -1.
         -5    1    3    3    0  502 -0.10806146925E+03 -0.17059468486E+02 -0.93945753883E+02  0.14426220459E+03  0.41800000000E+01 0. -1.
        -11    1    1    2    0    0  0.45345431401E+02  0.24758950164E+02  0.13367697210E+02  0.53365804509E+02  0.00000000000E+00 0. -1.
         11    1    1    2    0    0  0.58329693769E+02 -0.30155576826E+02 -0.74225158863E+02  0.99101393517E+02  0.00000000000E+00 0.  1.
</event>
<event>
 7    1  0.2943257E-009  0.1077641E+03  0.7561462E-02  0.1264767E+00
         -1   -1    0    0    0  501 -0.00000000000E+00  0.00000000000E+00  0.55244090919E+02  0.55244090919E+02  0.00000000000E+00 0.  1.
          1   -1    0    0  501    0  0.00000000000E+00 -0.00000000000E+00 -0.22333974455E+03  0.22333974455E+03  0.00000000000E+00 0. -1.
         25    2    1    2    0    0  0.14651026604E+02 -0.24404134590E+01 -0.12056719861E+03  0.17437003583E+03  0.12509137387E+03 0.  0.
          5    1    3    3  502    0  0.15042666573E+02  0.59846199621E+02 -0.74255808193E+02  0.96639778958E+02  0.41800000000E+01 0. -1.
         -5    1    3    3    0  502 -0.39163996932E+00 -0.62286613080E+02 -0.46311390415E+02  0.77730256869E+02  0.41800000000E+01 0. -1.
        -11    1    1    2    0    0 -0.20189265734E+02  0.44480397141E+02 -0.16097825584E+02  0.51432015022E+02  0.00000000000E+00 0. -1.
         11    1    1    2    0    0  0.55382391306E+01 -0.42039983682E+02 -0.31430629438E+02  0.52781784619E+02  0.00000000000E+00 0.  1.
</event>
<event>
 7    1  0.2943257E-009  0.9417053E+02  0.7561462E-02  0.1293055E+00
         -2   -1    0    0    0  501 -0.00000000000E+00  0.00000000000E+00  0.15442887873E+02  0.15442887873E+02  0.00000000000E+00 0. -1.
          2   -1    0    0  501    0  0.00000000000E+00 -0.00000000000E+00 -0.11731872142E+04  0.11731872142E+04  0.00000000000E+00 0.  1.
         25    2    1    2    0    0  0.23050731233E+02 -0.20416275608E+02 -0.96569548096E+03  0.97425011732E+03  0.12508944250E+03 0.  0.
          5    1    3    3  502    0  0.49796978664E+02  0.13317866282E+02 -0.83465748756E+03  0.83625815308E+03  0.41800000000E+01 0. -1.
         -5    1    3    3    0  502 -0.26746247432E+02 -0.33734141891E+02 -0.13103799340E+03  0.13799196424E+03  0.41800000000E+01 0. -1.
        -11    1    1    2    0    0 -0.42908558664E+02 -0.20752797759E+02 -0.11923289262E+03  0.12840679773E+03  0.00000000000E+00 0.  1.
         11    1    1    2    0    0  0.19857827432E+02  0.41169073367E+02 -0.72815952742E+02  0.85973187018E+02  0.00000000000E+00 0. -1.
</event>
<event>
 7    1  0.2943257E-009  0.1135296E+03  0.7561462E-02  0.1254170E+00
          1   -1    0    0  501    0  0.00000000000E+00  0.00000000000E+00  0.19016424485E+03  0.19016424485E+03  0.00000000000E+00 0. -1.
         -1   -1    0    0    0  501 -0.00000000000E+00 -0.00000000000E+00 -0.69660460033E+02  0.69660460033E+02  0.00000000000E+00 0.  1.
         25    2    1    2    0    0  0.16492043369E+02 -0.31725132237E+02  0.81379234418E+02  0.15345526727E+03  0.12508983872E+03 0.  0.
          5    1    3    3  502    0  0.66804292681E+02  0.31765049513E+01  0.30025993207E+02  0.73429805750E+02  0.41800000000E+01 0.  1.
         -5    1    3    3    0  502 -0.50312249313E+02 -0.34901637188E+02  0.51353241211E+02  0.80025461524E+02  0.41800000000E+01 0.  1.
        -11    1    1    2    0    0  0.23105007253E+02  0.49986965140E+02  0.25493628402E+02  0.60683301930E+02  0.00000000000E+00 0.  1.
         11    1    1    2    0    0 -0.39597050621E+02 -0.18261832904E+02  0.13630922000E+02  0.45686135681E+02  0.00000000000E+00 0. -1.
</event>
<event>
 7    1  0.2943257E-009  0.5168519E+02  0.7561462E-02  0.1436458E+00
         -3   -1    0    0    0  501 -0.00000000000E+00  0.00000000000E+00  0.94631668935E+02  0.94631668935E+02  0.00000000000E+00 0.  1.
          3   -1    0    0  501    0  0.00000000000E+00 -0.00000000000E+00 -0.14014175320E+03  0.14014175320E+03  0.00000000000E+00 0. -1.
         25    2    1    2    0    0  0.95913162585E+01  0.61398567020E+00 -0.65062171355E+02  0.14132740397E+03  0.12509188081E+03 0.  0.
          5    1    3    3  502    0  0.35383582275E+02  0.56385109757E+01 -0.94795550854E+02  0.10142711453E+03  0.41800000000E+01 0.  1.
         -5    1    3    3    0  502 -0.25792266016E+02 -0.50245253055E+01  0.29733379499E+02  0.39900289438E+02  0.41800000000E+01 0.  1.
        -11    1    1    2    0    0 -0.16900598459E+02  0.15540029662E+02  0.51791657119E+02  0.56652435935E+02  0.00000000000E+00 0.  1.
         11    1    1    2    0    0  0.73092822005E+01 -0.16154015332E+02 -0.32239570031E+02  0.36793582231E+02  0.00000000000E+00 0. -1.
</event>
<event>
 7    1  0.3435022E-009  0.9502683E+02  0.7561462E-02  0.1291116E+00
         -2   -1    0    0    0  501 -0.00000000000E+00  0.00000000000E+00  0.16252027699E+03  0.16252027699E+03  0.00000000000E+00 0.  1.
          2   -1    0    0  501    0  0.00000000000E+00 -0.00000000000E+00 -0.93363920850E+02  0.93363920850E+02  0.00000000000E+00 0. -1.
         25    2    1    2    0    0  0.38314232326E+02 -0.24970404610E+02  0.75287316947E+02  0.15299309967E+03  0.12508879625E+03 0.  0.
          5    1    3    3  502    0  0.41791481708E+02  0.23743144302E+02  0.89743008075E+02  0.10188986575E+03  0.41800000000E+01 0. -1.
         -5    1    3    3    0  502 -0.34772493828E+01 -0.48713548911E+02 -0.14455691128E+02  0.51103233917E+02  0.41800000000E+01 0. -1.
        -11    1    1    2    0    0 -0.63693621377E+02  0.14417186802E+02  0.16420373846E+02  0.67337666700E+02  0.00000000000E+00 0.  1.
         11    1    1    2    0    0  0.25379389052E+02  0.10553217808E+02 -0.22551334652E+02  0.35553431471E+02  0.00000000000E+00 0. -1.
</event>
<event>
 7    1  0.2943257E-009  0.1153680E+03  0.7561462E-02  0.1250940E+00
          2   -1    0    0  501    0  0.00000000000E+00  0.00000000000E+00  0.14950974350E+04  0.14950974350E+04  0.00000000000E+00 0. -1.
         -2   -1    0    0    0  501 -0.00000000000E+00 -0.00000000000E+00 -0.14581977253E+02  0.14581977253E+02  0.00000000000E+00 0.  1.
         25    2    1    2    0    0 -0.47766994941E+02  0.65136598888E+02  0.11059249491E+04  0.11159039649E+04  0.12508878328E+03 0.  0.
          5    1    3    3  502    0  0.29405878180E+02  0.24328753358E+01  0.57244219537E+03  0.57321737935E+03  0.41800000000E+01 0.  1.
         -5    1    3    3    0  502 -0.77172873121E+02  0.62703723552E+02  0.53348275369E+03  0.54268658559E+03  0.41800000000E+01 0.  1.
        -11    1    1    2    0    0 -0.14619196352E+02 -0.18179088366E+02  0.20118400858E+02  0.30805035447E+02  0.00000000000E+00 0.  1.
         11    1    1    2    0    0  0.62386191293E+02 -0.46957510521E+02  0.35447210780E+03  0.36297041184E+03  0.00000000000E+00 0. -1.
</event>
<event>
 7    1  0.2943257E-009  0.6693070E+02  0.7561462E-02  0.1370853E+00
         -1   -1    0    0    0  501 -0.00000000000E+00  0.00000000000E+00  0.82596972181E+02  0.82596972181E+02  0.00000000000E+00 0.  1.
          1   -1    0    0  501    0  0.00000000000E+00 -0.00000000000E+00 -0.17477467190E+03  0.17477467190E+03  0.00000000000E+00 0. -1.
         25    2    1    2    0    0  0.16686893165E+02 -0.50680463014E+02 -0.66360465228E+02  0.15131770413E+03  0.12508546879E+03 0.  0.
          5    1    3    3  502    0  0.64119449538E+01 -0.48406009247E+02 -0.10240974078E+03  0.11353185534E+03  0.41800000000E+01 0. -1.
         -5    1    3    3    0  502  0.10274948211E+02 -0.22744537673E+01  0.36049275556E+02  0.37785848790E+02  0.41800000000E+01 0. -1.
        -11    1    1    2    0    0 -0.33366072081E+02  0.20823963562E+02  0.23666223589E+02  0.45902313270E+02  0.00000000000E+00 0.  1.
         11    1    1    2    0    0  0.16679178916E+02  0.29856499452E+02 -0.49483458081E+02  0.60151626682E+02  0.00000000000E+00 0. -1.
</event>
<event>
 7    1  0.2943257E-009  0.1011560E+03  0.7561462E-02  0.1277884E+00
          1   -1    0    0  501    0  0.00000000000E+00  0.00000000000E+00  0.32709822186E+03  0.32709822186E+03  0.00000000000E+00 0. -1.
         -1   -1    0    0    0  501 -0.00000000000E+00 -0.00000000000E+00 -0.44728415051E+02  0.44728415051E+02  0.00000000000E+00 0.  1.
         25    2    1    2    0    0  0.40351941035E+02 -0.24569974275E+02  0.12392068778E+03  0.18230987516E+03  0.12509432817E+03 0.  0.
          5    1    3    3  502    0  0.78367240771E+02  0.26667873282E+01  0.45070256751E+02  0.90539144155E+02  0.41800000000E+01 0.  1.
         -5    1    3    3    0  502 -0.38015299736E+02 -0.27236761603E+02  0.78850431025E+02  0.91770731007E+02  0.41800000000E+01 0.  1.
        -11    1    1    2    0    0 -0.24726258496E+02 -0.18589874370E+02  0.76225849368E+01  0.31860243085E+02  0.00000000000E+00 0.  1.
         11    1    1    2    0    0 -0.15625682538E+02  0.43159848645E+02  0.15082653410E+03  0.15765651866E+03  0.00000000000E+00 0. -1.
</event>
<event>
 7    1  0.2943257E-009  0.9842817E+02  0.7561462E-02  0.1283636E+00
         -2   -1    0    0    0  501 -0.00000000000E+00  0.00000000000E+00  0.88112290778E+02  0.88112290778E+02  0.00000000000E+00 0. -1.
          2   -1    0    0  501    0  0.00000000000E+00 -0.00000000000E+00 -0.18169340297E+03  0.18169340297E+03  0.00000000000E+00 0.  1.
         25    2    1    2    0    0 -0.59810259550E+02  0.25508400416E+02 -0.65278339101E+02  0.15535960993E+03  0.12508957272E+03 0.  0.
          5    1    3    3  502    0  0.11008855178E+02 -0.33224726866E+02  0.97430477061E+01  0.36571529176E+02  0.41800000000E+01 0.  1.
         -5    1    3    3    0  502 -0.70819114728E+02  0.58733127282E+02 -0.75021386807E+02  0.11878808076E+03  0.41800000000E+01 0.  1.
        -11    1    1    2    0    0  0.43423748995E+02 -0.56960367347E+01 -0.59588106663E+02  0.73951398005E+02  0.00000000000E+00 0.  1.
         11    1    1    2    0    0  0.16386510555E+02 -0.19812363682E+02  0.31285333568E+02  0.40494685815E+02  0.00000000000E+00 0. -1.
</event>
<event>
 7    1  0.2943257E-009  0.1084282E+03  0.7561462E-02  0.1263509E+00
         -3   -1    0    0    0  501 -0.00000000000E+00  0.00000000000E+00  0.21202562736E+03  0.21202562736E+03  0.00000000000E+00 0.  1.
          3   -1    0    0  501    0  0.00000000000E+00 -0.00000000000E+00 -0.72459194345E+02  0.72459194345E+02  0.00000000000E+00 0. -1.
         25    2    1    2    0    0 -0.86577307250E+01 -0.32171947978E+02  0.21297564767E+02  0.13119885228E+03  0.12509820957E+03 0.  0.
          5    1    3    3  502    0 -0.21443746365E+02 -0.78272791027E+02  0.16634482042E+02  0.82949638131E+02  0.41800000000E+01 0. -1.
         -5    1    3    3    0  502  0.12786015640E+02  0.46100843048E+02  0.46630827246E+01  0.48249214151E+02  0.41800000000E+01 0. -1.
        -11    1    1    2    0    0 -0.35485163526E+02  0.52707902330E+01  0.17244609901E+02  0.39803952452E+02  0.00000000000E+00 0. -1.
         11    1    1    2    0    0  0.44142894251E+02  0.26901157746E+02  0.10102425834E+03  0.11348201697E+03  0.00000000000E+00 0.  1.
</event>
<event>
 7    1  0.2943257E-009  0.1081959E+03  0.7561462E-02  0.1263948E+00
         -2   -1    0    0    0  501 -0.00000000000E+00  0.00000000000E+00  0.26312320864E+02  0.26312320864E+02  0.00000000000E+00 0.  1.
          2   -1    0    0  501    0  0.00000000000E+00 -0.00000000000E+00 -0.61618470497E+03  0.61618470497E+03  0.00000000000E+00 0. -1.
         25    2    1    2    0    0  0.31375715877E+02  0.40667129959E+02 -0.21760319216E+03  0.25619689669E+03  0.12508976629E+03 0.  0.
          5    1    3    3  502    0 -0.45172119125E+02  0.20526165113E+02 -0.12349957991E+03  0.13315953754E+03  0.41800000000E+01 0. -1.
         -5    1    3    3    0  502  0.76547835002E+02  0.20140964846E+02 -0.94103612244E+02  0.12303735915E+03  0.41800000000E+01 0. -1.
        -11    1    1    2    0    0  0.22947160732E+02 -0.11185210370E+02 -0.34473373154E+02  0.42896323540E+02  0.00000000000E+00 0.  1.
         11    1    1    2    0    0 -0.54322876609E+02 -0.29481919589E+02 -0.33779581879E+03  0.34340380560E+03  0.00000000000E+00 0. -1.
</event>
<event>
 7    1  0.2943257E-009  0.1248539E+03  0.7561462E-02  0.1235298E+00
          2   -1    0    0  501    0  0.00000000000E+00  0.00000000000E+00  0.22270297172E+03  0.22270297172E+03  0.00000000000E+00 0. -1.
         -2   -1    0    0    0  501 -0.00000000000E+00 -0.00000000000E+00 -0.77262180263E+02  0.77262180263E+02  0.00000000000E+00 0.  1.
         25    2    1    2    0    0  0.73255174076E+02 -0.34941179832E+02  0.10720278878E+03  0.18365077305E+03  0.12509181405E+03 0.  0.
          5    1    3    3  502    0 -0.20822316029E+02 -0.40926800627E+02  0.81082047857E+01  0.46816527415E+02  0.41800000000E+01 0. -1.
         -5    1    3    3    0  502  0.94077490105E+02  0.59856207945E+01  0.99094583991E+02  0.13683424563E+03  0.41800000000E+01 0. -1.
        -11    1    1    2    0    0  0.17525139485E+01  0.34182015129E+02  0.63726510566E+01  0.34815113742E+02  0.00000000000E+00 0.  1.
         11    1    1    2    0    0 -0.75007688024E+02  0.75916470376E+00  0.31865351629E+02  0.81499265200E+02  0.00000000000E+00 0. -1.
</event>
<event>
 7    1  0.4919192E-009  0.8566551E+02  0.7561462E-02  0.1313701E+00
          2   -1    0    0  501    0  0.00000000000E+00  0.00000000000E+00  0.39615376082E+03  0.39615376082E+03  0.00000000000E+00 0. -1.
         -2   -1    0    0    0  501 -0.00000000000E+00 -0.00000000000E+00 -0.39647239878E+02  0.39647239878E+02  0.00000000000E+00 0.  1.
         25    2    1    2    0    0 -0.47635583825E+01 -0.10752491170E+02  0.30566321274E+03  0.33048302877E+03  0.12510285819E+03 0.  0.
          5    1    3    3  502    0  0.83209942364E+01  0.55860063766E+02  0.11828008472E+03  0.13113823436E+03  0.41800000000E+01 0. -1.
         -5    1    3    3    0  502 -0.13084552619E+02 -0.66612554937E+02  0.18738312802E+03  0.19934479441E+03  0.41800000000E+01 0. -1.
        -11    1    1    2    0    0 -0.16904534462E+02 -0.73672587058E+01  0.69210839531E+02  0.71625275530E+02  0.00000000000E+00 0. -1.
         11    1    1    2    0    0  0.21668092845E+02  0.18119749876E+02 -0.18367531332E+02  0.33692696395E+02  0.00000000000E+00 0.  1.
</event>
<event>
 7    1  0.2943257E-009  0.9743445E+02  0.7561462E-02  0.1285785E+00
          1   -1    0    0  501    0  0.00000000000E+00  0.00000000000E+00  0.37306278132E+03  0.37306278132E+03  0.00000000000E+00 0. -1.
         -1   -1    0    0    0  501 -0.00000000000E+00 -0.00000000000E+00 -0.34595926244E+02  0.34595926244E+02  0.00000000000E+00 0.  1.
         25    2    1    2    0    0 -0.19814824806E+02  0.18214279171E+02  0.16224305634E+03  0.20662305594E+03  0.12508353476E+03 0.  0.
          5    1    3    3  502    0  0.49131539299E+02  0.16846793616E+02  0.38098937311E+02  0.64550166795E+02  0.41800000000E+01 0.  1.
         -5    1    3    3    0  502 -0.68946364105E+02  0.13674855549E+01  0.12414411903E+03  0.14207288914E+03  0.41800000000E+01 0.  1.
        -11    1    1    2    0    0  0.31028911901E+02  0.17925947149E+02  0.21583054152E+02  0.41832537354E+02  0.00000000000E+00 0.  1.
         11    1    1    2    0    0 -0.11214087096E+02 -0.36140226320E+02  0.15464074459E+03  0.15920311427E+03  0.00000000000E+00 0. -1.
</event>
<event>
 7    1  0.2943257E-009  0.1011735E+03  0.7561462E-02  0.1277847E+00
         -2   -1    0    0    0  501 -0.00000000000E+00  0.00000000000E+00  0.66547582644E+02  0.66547582644E+02  0.00000000000E+00 0.  1.
          2   -1    0    0  501    0  0.00000000000E+00 -0.00000000000E+00 -0.23955428423E+03  0.23955428423E+03  0.00000000000E+00 0. -1.
         25    2    1    2    0    0 -0.60926383668E+02  0.24781301603E+02 -0.87454352379E+02  0.16619272884E+03  0.12508246174E+03 0.  0.
          5    1    3    3  502    0  0.82758020631E+01  0.38089320082E+02  0.14829599111E+02  0.41912702298E+02  0.41800000000E+01 0. -1.
         -5    1    3    3    0  502 -0.69202185731E+02 -0.13308018479E+02 -0.10228395149E+03  0.12428002655E+03  0.41800000000E+01 0. -1.
        -11    1    1    2    0    0  0.57390854527E+02  0.94278025929E+01 -0.12966273269E+02  0.59587900513E+02  0.00000000000E+00 0.  1.
         11    1    1    2    0    0  0.35355291410E+01 -0.34209104196E+02 -0.72586075939E+02  0.80321237518E+02  0.00000000000E+00 0. -1.
</event>
<event>
 7    1  0.2943257E-009  0.1191653E+03  0.7561462E-02  0.1244480E+00
          2   -1    0    0  501    0  0.00000000000E+00  0.00000000000E+00  0.40591198449E+03  0.40591198449E+03  0.00000000000E+00 0. -1.
         -2   -1    0    0    0  501 -0.00000000000E+00 -0.00000000000E+00 -0.47545671774E+02  0.47545671774E+02  0.00000000000E+00 0.  1.
         25    2    1    2    0    0  0.29260239912E+02  0.70961126723E+02  0.26123482615E+03  0.29963698763E+03  0.12508815618E+03 0.  0.
          5    1    3    3  502    0  0.37762548127E+02 -0.16835123503E+02  0.15996014965E+03  0.16526994070E+03  0.41800000000E+01 0.  1.
         -5    1    3    3    0  502 -0.85023082143E+01  0.87796250226E+02  0.10127467650E+03  0.13436704692E+03  0.41800000000E+01 0.  1.
        -11    1    1    2    0    0  0.79721281763E+01 -0.70788281214E+02  0.91816927930E+02  0.11621051518E+03  0.00000000000E+00 0. -1.
         11    1    1    2    0    0 -0.37232368089E+02 -0.17284550961E+00  0.53145586351E+01  0.37610153450E+02  0.00000000000E+00 0.  1.
</event>
<event>
 7    1  0.2943257E-009  0.1079445E+03  0.7561462E-02  0.1264424E+00
          2   -1    0    0  501    0  0.00000000000E+00  0.00000000000E+00  0.33261644516E+04  0.33261644516E+04  0.00000000000E+00 0. -1.
         -2   -1    0    0    0  501 -0.00000000000E+00 -0.00000000000E+00 -0.69376665924E+01  0.69376665924E+01  0.00000000000E+00 0.  1.
         25    2    1    2    0    0 -0.37996609423E+01  0.28915326667E+02  0.29785089274E+04  0.29812773408E+04  0.12509443895E+03 0.  0.
          5    1    3    3  502    0 -0.46110644593E+02  0.59836708124E+02  0.16708271532E+04  0.16725392287E+04  0.41800000000E+01 0.  1.
         -5    1    3    3    0  502  0.42310983650E+02 -0.30921381458E+02  0.13076817741E+04  0.13087381121E+04  0.41800000000E+01 0.  1.
        -11    1    1    2    0    0 -0.27222351877E+02  0.17111676283E+02  0.11959570019E+03  0.12384263164E+03  0.00000000000E+00 0.  1.
         11    1    1    2    0    0  0.31022012819E+02 -0.46027002950E+02  0.22112215743E+03  0.22798214576E+03  0.00000000000E+00 0. -1.
</event>
<event>
 7    1  0.2943257E-009  0.9654848E+02  0.7561462E-02  0.1287726E+00
          4   -1    0    0  501    0  0.00000000000E+00  0.00000000000E+00  0.51516326981E+03  0.51516326981E+03  0.00000000000E+00 0.  1.
         -4   -1    0    0    0  501 -0.00000000000E+00 -0.00000000000E+00 -0.24028096026E+02  0.24028096026E+02  0.00000000000E+00 0. -1.
         25    2    1    2    0    0 -0.28331707451E+02 -0.21015226786E+01  0.29567480960E+03  0.32230013784E+03  0.12508670501E+03 0.  0.
          5    1    3    3  502    0  0.36614048593E+02 -0.38111120877E+02  0.14196258810E+03  0.15153842717E+03  0.41800000000E+01 0. -1.
         -5    1    3    3    0  502 -0.64945756044E+02  0.36009598198E+02  0.15371222150E+03  0.17076171067E+03  0.41800000000E+01 0. -1.
        -11    1    1    2    0    0  0.33730395681E+02  0.25123054219E+02  0.18716494778E+03  0.19183228384E+03  0.00000000000E+00 0.  1.
         11    1    1    2    0    0 -0.53986882295E+01 -0.23021531541E+02  0.82954164004E+01  0.25058944158E+02  0.00000000000E+00 0. -1.
</event>
<event>
 7    1  0.2943257E-009  0.1099555E+03  0.7561462E-02  0.1260652E+00
         -2   -1    0    0    0  501 -0.00000000000E+00  0.00000000000E+00  0.27160625072E+02  0.27160625072E+02  0.00000000000E+00 0. -1.
          2   -1    0    0  501    0  0.00000000000E+00 -0.00000000000E+00 -0.17178019692E+04  0.17178019692E+04  0.00000000000E+00 0.  1.
         25    2    1    2    0    0  0.32389875627E+02 -0.49795794082E+02 -0.15970991533E+04  0.16030915183E+04  0.12509190789E+03 0.  0.
          5    1    3    3  502    0  0.21467162509E+01 -0.88494696992E+02 -0.10939605541E+04  0.10975441158E+04  0.41800000000E+01 0. -1.
         -5    1    3    3    0  502  0.30243159376E+02  0.38698902910E+02 -0.50313859918E+03  0.50554740248E+03  0.41800000000E+01 0. -1.
        -11    1    1    2    0    0  0.16235446987E+02  0.92361352463E+01 -0.72923941986E+02  0.75278132602E+02  0.00000000000E+00 0.  1.
         11    1    1    2    0    0 -0.48625322614E+02  0.40559658836E+02 -0.20618248870E+02  0.66592943400E+02  0.00000000000E+00 0. -1.
</event>
<event>
 7    1  0.2943257E-009  0.1067997E+03  0.7561462E-02  0.1266614E+00
          2   -1    0    0  501    0  0.00000000000E+00  0.00000000000E+00  0.85585839724E+02  0.85585839724E+02  0.00000000000E+00 0. -1.
         -2   -1    0    0    0  501 -0.00000000000E+00 -0.00000000000E+00 -0.17958313925E+03  0.17958313925E+03  0.00000000000E+00 0.  1.
         25    2    1    2    0    0 -0.15660306056E+01  0.22688391853E+02  0.69438335597E+01  0.12732754986E+03  0.12508745961E+03 0.  0.
          5    1    3    3  502    0 -0.56689450172E+02  0.39054898527E+02  0.94953265897E+01  0.69617616210E+02  0.41800000000E+01 0.  1.
         -5    1    3    3    0  502  0.55123419566E+02 -0.16366506674E+02 -0.25514930300E+01  0.57709933651E+02  0.41800000000E+01 0.  1.
        -11    1    1    2    0    0 -0.69649409395E+00  0.32118117669E+02 -0.14002760059E+02  0.35044769594E+02  0.00000000000E+00 0.  1.
         11    1    1    2    0    0  0.22625246995E+01 -0.54806509522E+02 -0.86938373031E+02  0.10279665952E+03  0.00000000000E+00 0. -1.
</event>
<event>
 7    1  0.2943257E-009  0.9963240E+02  0.7561462E-02  0.1281071E+00
         -1   -1    0    0    0  501 -0.00000000000E+00  0.00000000000E+00  0.40604391478E+02  0.40604391478E+02  0.00000000000E+00 0.  1.
          1   -1    0    0  501    0  0.00000000000E+00 -0.00000000000E+00 -0.38961468049E+03  0.38961468049E+03  0.00000000000E+00 0. -1.
         25    2    1    2    0    0 -0.42291868659E+02 -0.43971482543E+02 -0.16781451348E+03  0.21801702088E+03  0.12509043540E+03 0.  0.
          5    1    3    3  502    0 -0.79360078923E+02 -0.35588876377E+02 -0.15483612774E+03  0.17764089929E+03  0.41800000000E+01 0. -1.
         -5    1    3    3    0  502  0.37068210264E+02 -0.83826061663E+01 -0.12978385745E+02  0.40376121592E+02  0.41800000000E+01 0. -1.
        -11    1    1    2    0    0  0.45676268587E+01  0.34845986288E+02 -0.98256927516E+01  0.36491782822E+02  0.00000000000E+00 0.  1.
         11    1    1    2    0    0  0.37724241800E+02  0.91254962551E+01 -0.17137008277E+03  0.17571026826E+03  0.00000000000E+00 0. -1.
</event>
<event>
 7    1  0.2943257E-009  0.9643163E+02  0.7561462E-02  0.1287984E+00
         -2   -1    0    0    0  501 -0.00000000000E+00  0.00000000000E+00  0.94399327860E+02  0.94399327860E+02  0.00000000000E+00 0.  1.
          2   -1    0    0  501    0  0.00000000000E+00 -0.00000000000E+00 -0.14035260437E+03  0.14035260437E+03  0.00000000000E+00 0. -1.
         25    2    1    2    0    0 -0.23156336130E+02 -0.55618351601E+01  0.20615232294E+02  0.12898969805E+03  0.12508478919E+03 0.  0.
          5    1    3    3  502    0  0.19993275532E+02  0.51548043078E+02  0.55534914958E+01  0.55724729514E+02  0.41800000000E+01 0. -1.
         -5    1    3    3    0  502 -0.43149611662E+02 -0.57109878238E+02  0.15061740798E+02  0.73264968538E+02  0.41800000000E+01 0. -1.
        -11    1    1    2    0    0  0.25069581564E+02  0.31190092178E+02 -0.66503144002E+01  0.40565163028E+02  0.00000000000E+00 0.  1.
         11    1    1    2    0    0 -0.19132454346E+01 -0.25628257018E+02 -0.59918194399E+02  0.65197071146E+02  0.00000000000E+00 0. -1.
</event>
<event>
 7    1  0.2943257E-009  0.3124971E+03  0.7561462E-02  0.1079155E+00
         -2   -1    0    0    0  501 -0.00000000000E+00  0.00000000000E+00  0.55839656291E+02  0.55839656291E+02  0.00000000000E+00 0.  1.
          2   -1    0    0  501    0  0.00000000000E+00 -0.00000000000E+00 -0.18669617289E+04  0.18669617289E+04  0.00000000000E+00 0. -1.
         25    2    1    2    0    0  0.21907172846E+03  0.21543587212E+03 -0.96901354354E+03  0.10242262826E+04  0.12508874092E+03 0.  0.
          5    1    3    3  502    0  0.15977410097E+03  0.18697115523E+03 -0.87832661698E+03  0.91211901347E+03  0.41800000000E+01 0.  1.
         -5    1    3    3    0  502  0.59297627491E+02  0.28464716897E+02 -0.90686926558E+02  0.11210726909E+03  0.41800000000E+01 0.  1.
        -11    1    1    2    0    0 -0.66997037114E+02 -0.10734197322E+03 -0.31820045550E+03  0.34243602626E+03  0.00000000000E+00 0. -1.
         11    1    1    2    0    0 -0.15207469134E+03 -0.10809389890E+03 -0.52390807357E+03  0.55613907639E+03  0.00000000000E+00 0.  1.
</event>
<event>
 7    1  0.2943257E-009  0.1362532E+03  0.7561462E-02  0.1218461E+00
         -2   -1    0    0    0  501 -0.00000000000E+00  0.00000000000E+00  0.61477980796E+02  0.61477980796E+02  0.00000000000E+00 0.  1.
          2   -1    0    0  501    0  0.00000000000E+00 -0.00000000000E+00 -0.40024949207E+03  0.40024949207E+03  0.00000000000E+00 0. -1.
         25    2    1    2    0    0  0.91095416668E+02 -0.65380675978E+02 -0.16229590272E+03  0.23358199189E+03  0.12509028406E+03 0.  0.
          5    1    3    3  502    0  0.47819956676E+02  0.31828884390E+01 -0.14195669945E+03  0.14988681047E+03  0.41800000000E+01 0. -1.
         -5    1    3    3    0  502  0.43275459992E+02 -0.68563564417E+02 -0.20339203277E+02  0.83695181421E+02  0.41800000000E+01 0. -1.
        -11    1    1    2    0    0 -0.10456464925E+03  0.35483183362E+02 -0.12190030938E+03  0.16447646519E+03  0.00000000000E+00 0.  1.
         11    1    1    2    0    0  0.13469232585E+02  0.29897492616E+02 -0.54575299172E+02  0.63669015784E+02  0.00000000000E+00 0. -1.
</event>
<event>
 7    1  0.2943257E-009  0.1076441E+03  0.7561462E-02  0.1264996E+00
         -1   -1    0    0    0  501 -0.00000000000E+00  0.00000000000E+00  0.34799933829E+02  0.34799933829E+02  0.00000000000E+00 0.  1.
          1   -1    0    0  501    0  0.00000000000E+00 -0.00000000000E+00 -0.40180112605E+03  0.40180112605E+03  0.00000000000E+00 0. -1.
         25    2    1    2    0    0  0.98540759733E+01 -0.89472752937E+01 -0.12716159310E+03  0.17886388929E+03  0.12508022859E+03 0.  0.
          5    1    3    3  502    0  0.62378960076E+02 -0.25439418322E+02 -0.89208429954E+02  0.11186561152E+03  0.41800000000E+01 0. -1.
         -5    1    3    3    0  502 -0.52524884103E+02  0.16492143028E+02 -0.37953163146E+02  0.66998277772E+02  0.41800000000E+01 0. -1.
        -11    1    1    2    0    0 -0.47910834372E+02  0.21490123285E+02 -0.16017895716E+03  0.16856622368E+03  0.00000000000E+00 0.  1.
         11    1    1    2    0    0  0.38056758399E+02 -0.12542847991E+02 -0.79660641968E+02  0.89170946918E+02  0.00000000000E+00 0. -1.
</event>
<event>
 7    1  0.2943257E-009  0.1188037E+03  0.7561462E-02  0.1245084E+00
         -3   -1    0    0    0  501 -0.00000000000E+00  0.00000000000E+00  0.68621365743E+02  0.68621365743E+02  0.00000000000E+00 0.  1.
          3   -1    0    0  501    0  0.00000000000E+00 -0.00000000000E+00 -0.25104148233E+03  0.25104148233E+03  0.00000000000E+00 0. -1.
         25    2    1    2    0    0 -0.33246832253E+02 -0.58882206666E+02 -0.14103097431E+03  0.20027480906E+03  0.12509115601E+03 0.  0.
          5    1    3    3  502    0  0.40670953687E+02 -0.38324066361E+01 -0.79198712932E+02  0.89211671572E+02  0.41800000000E+01 0. -1.
         -5    1    3    3    0  502 -0.73917785940E+02 -0.55049800030E+02 -0.61832261375E+02  0.11106313749E+03  0.41800000000E+01 0. -1.
        -11    1    1    2    0    0  0.57625779173E+02  0.54881841429E+02 -0.11174858510E+02  0.80359345484E+02  0.00000000000E+00 0.  1.
         11    1    1    2    0    0 -0.24378946920E+02  0.40003652370E+01 -0.30214283774E+02  0.39028693534E+02  0.00000000000E+00 0. -1.
</event>
<event>
 7    1  0.2943257E-009  0.1168068E+03  0.7561462E-02  0.1248460E+00
         -1   -1    0    0    0  501 -0.00000000000E+00  0.00000000000E+00  0.76750573008E+02  0.76750573008E+02  0.00000000000E+00 0.  1.
          1   -1    0    0  501    0  0.00000000000E+00 -0.00000000000E+00 -0.18608267697E+03  0.18608267697E+03  0.00000000000E+00 0. -1.
         25    2    1    2    0    0  0.20257596149E+02  0.39886432902E+02 -0.86722365293E+02  0.15864915560E+03  0.12508992045E+03 0.  0.
          5    1    3    3  502    0 -0.51459980738E+02  0.44807761435E+01 -0.25020547255E+02  0.57547433977E+02  0.41800000000E+01 0. -1.
         -5    1    3    3    0  502  0.71717576888E+02  0.35405656758E+02 -0.61701818038E+02  0.10110172162E+03  0.41800000000E+01 0. -1.
        -11    1    1    2    0    0 -0.56425184004E+02 -0.31307021929E+02 -0.14608394308E+02  0.66161440403E+02  0.00000000000E+00 0.  1.
         11    1    1    2    0    0  0.36167587854E+02 -0.85794109723E+01 -0.80013443587E+01  0.38022653976E+02  0.00000000000E+00 0. -1.
</event>
<event>
 7    1  0.2943257E-009  0.1112449E+03  0.7561462E-02  0.1258282E+00
          2   -1    0    0  501    0  0.00000000000E+00  0.00000000000E+00  0.33946695558E+03  0.33946695558E+03  0.00000000000E+00 0. -1.
         -2   -1    0    0    0  501 -0.00000000000E+00 -0.00000000000E+00 -0.65227354700E+02  0.65227354700E+02  0.00000000000E+00 0.  1.
         25    2    1    2    0    0 -0.60646476086E+02 -0.24733582096E+02  0.25329029219E+03  0.28998847153E+03  0.12509035279E+03 0.  0.
          5    1    3    3  502    0 -0.82652706413E+02 -0.27830311322E+02  0.25270996907E+03  0.26736827967E+03  0.41800000000E+01 0.  1.
         -5    1    3    3    0  502  0.22006230326E+02  0.30967292267E+01  0.58032311930E+00  0.22620191865E+02  0.41800000000E+01 0.  1.
        -11    1    1    2    0    0 -0.11909681713E+02  0.37097687594E+02  0.10608126250E+02  0.40380828197E+02  0.00000000000E+00 0. -1.
         11    1    1    2    0    0  0.72556157799E+02 -0.12364105499E+02  0.10341182444E+02  0.74325010553E+02  0.00000000000E+00 0.  1.
</event>
<event>
 7    1  0.2943257E-009  0.1095871E+03  0.7561462E-02  0.1261336E+00
         -2   -1    0    0    0  501 -0.00000000000E+00  0.00000000000E+00  0.48863222284E+02  0.48863222284E+02  0.00000000000E+00 0.  1.
          2   -1    0    0  501    0  0.00000000000E+00 -0.00000000000E+00 -0.30544549080E+03  0.30544549080E+03  0.00000000000E+00 0. -1.
         25    2    1    2    0    0  0.47285706473E+02 -0.29057999455E+02 -0.13194353664E+03  0.19009677575E+03  0.12508949564E+03 0.  0.
          5    1    3    3  502    0  0.89876878653E+02 -0.14457008073E+02 -0.95692757033E+02  0.13214172145E+03  0.41800000000E+01 0.  1.
         -5    1    3    3    0  502 -0.42591172180E+02 -0.14600991381E+02 -0.36250779603E+02  0.57955054299E+02  0.41800000000E+01 0.  1.
        -11    1    1    2    0    0 -0.20552024906E+02  0.46546812121E+02 -0.19774456280E+02  0.54589564640E+02  0.00000000000E+00 0.  1.
         11    1    1    2    0    0 -0.26733681567E+02 -0.17488812666E+02 -0.10486427560E+03  0.10962237270E+03  0.00000000000E+00 0. -1.
</event>
<event>
 7    1  0.2943257E-009  0.1498845E+03  0.7561462E-02  0.1200615E+00
         -2   -1    0    0    0  501 -0.00000000000E+00  0.00000000000E+00  0.68439237511E+02  0.68439237511E+02  0.00000000000E+00 0.  1.
          2   -1    0    0  501    0  0.00000000000E+00 -0.00000000000E+00 -0.48892412261E+03  0.48892412261E+03  0.00000000000E+00 0. -1.
         25    2    1    2    0    0 -0.82941534909E+02 -0.81681867832E+02 -0.86716090069E+02  0.19161882998E+03  0.12508744933E+03 0.  0.
          5    1    3    3  502    0 -0.53929918269E+02 -0.11420423147E+03 -0.71948215593E+02  0.14541341306E+03  0.41800000000E+01 0. -1.
         -5    1    3    3    0  502 -0.29011616640E+02  0.32522363635E+02 -0.14767874476E+02  0.46205416923E+02  0.41800000000E+01 0. -1.
        -11    1    1    2    0    0  0.84271942939E+02  0.50159382315E+02 -0.31291982866E+03  0.32792764929E+03  0.00000000000E+00 0. -1.
         11    1    1    2    0    0 -0.13304080293E+01  0.31522485517E+02 -0.20848966368E+02  0.37816880851E+02  0.00000000000E+00 0.  1.
</event>
<event>
 7    1  0.2943257E-009  0.2418777E+03  0.7561462E-02  0.1118548E+00
         -2   -1    0    0    0  501 -0.00000000000E+00  0.00000000000E+00  0.21909207974E+03  0.21909207974E+03  0.00000000000E+00 0.  1.
          2   -1    0    0  501    0  0.00000000000E+00 -0.00000000000E+00 -0.29873525838E+03  0.29873525838E+03  0.00000000000E+00 0. -1.
         25    2    1    2    0    0  0.77617894101E+02 -0.20764526848E+03  0.28298784374E+02  0.25610445014E+03  0.12509026011E+03 0.  0.
          5    1    3    3  502    0  0.19880503302E+02  0.94981952056E+01 -0.15351652821E+02  0.27177118465E+02  0.41800000000E+01 0.  1.
         -5    1    3    3    0  502  0.57737390799E+02 -0.21714346369E+03  0.43650437195E+02  0.22892733167E+03  0.41800000000E+01 0.  1.
        -11    1    1    2    0    0 -0.94057839543E+02  0.15358852059E+03 -0.95553469507E+02  0.20387931816E+03  0.00000000000E+00 0. -1.
         11    1    1    2    0    0  0.16439945442E+02  0.54056747889E+02 -0.12388493514E+02  0.57843569825E+02  0.00000000000E+00 0.  1.
</event>
<event>
 7    1  0.2943257E-009  0.8994083E+02  0.7561462E-02  0.1302995E+00
         -1   -1    0    0    0  501 -0.00000000000E+00  0.00000000000E+00  0.27460705817E+02  0.27460705817E+02  0.00000000000E+00 0.  1.
          1   -1    0    0  501    0  0.00000000000E+00 -0.00000000000E+00 -0.48673458029E+03  0.48673458029E+03  0.00000000000E+00 0. -1.
         25    2    1    2    0    0 -0.89420707063E+00  0.86224769818E+01 -0.34625835948E+03  0.36827913864E+03  0.12513802674E+03 0.  0.
          5    1    3    3  502    0 -0.53933546552E+02  0.20376110463E+02 -0.95194706825E+02  0.11137108210E+03  0.41800000000E+01 0. -1.
         -5    1    3    3    0  502  0.53039339481E+02 -0.11753633482E+02 -0.25106365265E+03  0.25690805654E+03  0.41800000000E+01 0. -1.
        -11    1    1    2    0    0  0.11786091232E+02 -0.36130123517E+02 -0.10975866492E+03  0.11615189321E+03  0.00000000000E+00 0. -1.
         11    1    1    2    0    0 -0.10891884161E+02  0.27507646535E+02 -0.32568500717E+01  0.29764254247E+02  0.00000000000E+00 0.  1.
</event>
<event>
 7    1  0.2943257E-009  0.8158710E+02  0.7561462E-02  0.1324607E+00
          2   -1    0    0  501    0  0.00000000000E+00  0.00000000000E+00  0.60226945049E+03  0.60226945049E+03  0.00000000000E+00 0. -1.
         -2   -1    0    0    0  501 -0.00000000000E+00 -0.00000000000E+00 -0.28942902227E+02  0.28942902227E+02  0.00000000000E+00 0.  1.
         25    2    1    2    0    0 -0.47219131286E+02 -0.36192236085E+02  0.20751561067E+03  0.24950051236E+03  0.12509297614E+03 0.  0.
          5    1    3    3  502    0 -0.19808047864E+02 -0.35259709259E+02  0.21654161502E+03  0.22032555297E+03  0.41800000000E+01 0.  1.
         -5    1    3    3    0  502 -0.27411083422E+02 -0.93252682648E+00 -0.90260043459E+01  0.29174959385E+02  0.41800000000E+01 0.  1.
        -11    1    1    2    0    0 -0.18097810087E+02  0.20980469389E+02  0.37526257390E+02  0.46646873630E+02  0.00000000000E+00 0.  1.
         11    1    1    2    0    0  0.65316941373E+02  0.15211766696E+02  0.32828468020E+03  0.33506496673E+03  0.00000000000E+00 0. -1.
</event>
<event>
 7    1  0.2943257E-009  0.1230243E+03  0.7561462E-02  0.1238190E+00
          2   -1    0    0  501    0  0.00000000000E+00  0.00000000000E+00  0.88771494739E+02  0.88771494739E+02  0.00000000000E+00 0.  1.
         -2   -1    0    0    0  501 -0.00000000000E+00 -0.00000000000E+00 -0.20561782577E+03  0.20561782577E+03  0.00000000000E+00 0. -1.
         25    2    1    2    0    0  0.22294610380E+02  0.75205538416E+02 -0.49925635082E+02  0.15586078620E+03  0.12508834069E+03 0.  0.
          5    1    3    3  502    0  0.62820927651E+02  0.45438416760E+02 -0.67038560537E+02  0.10258050335E+03  0.41800000000E+01 0.  1.
         -5    1    3    3    0  502 -0.40526317271E+02  0.29767121656E+02  0.17112925455E+02  0.53280282853E+02  0.41800000000E+01 0.  1.
        -11    1    1    2    0    0 -0.54884766769E+02 -0.61947205134E+02 -0.61083159232E+02  0.10286372630E+03  0.00000000000E+00 0.  1.
         11    1    1    2    0    0  0.32590156389E+02 -0.13258333282E+02 -0.58375367142E+01  0.35664808001E+02  0.00000000000E+00 0. -1.
</event>
<event>
 7    1  0.2943257E-009  0.2761557E+03  0.7561462E-02  0.1097807E+00
          2   -1    0    0  501    0  0.00000000000E+00  0.00000000000E+00  0.16597972983E+03  0.16597972983E+03  0.00000000000E+00 0. -1.
         -2   -1    0    0    0  501 -0.00000000000E+00 -0.00000000000E+00 -0.52380498587E+03  0.52380498587E+03  0.00000000000E+00 0.  1.
         25    2    1    2    0    0  0.15848319340E+03 -0.22308154894E+03 -0.20603251474E+03  0.36466255283E+03  0.12508828978E+03 0.  0.
          5    1    3    3  502    0  0.75619481529E+02 -0.14854083740E+03 -0.52324755354E+02  0.17475136275E+03  0.41800000000E+01 0. -1.
         -5    1    3    3    0  502  0.82863711868E+02 -0.74540711540E+02 -0.15370775938E+03  0.18991119007E+03  0.41800000000E+01 0. -1.
        -11    1    1    2    0    0 -0.11083450425E+03  0.16726404661E+03 -0.63821652870E+02  0.21055819148E+03  0.00000000000E+00 0. -1.
         11    1    1    2    0    0 -0.47648689145E+02  0.55817502322E+02 -0.87971088435E+02  0.11456397140E+03  0.00000000000E+00 0.  1.
</event>
<event>
 7    1  0.2943257E-009  0.6597816E+02  0.7561462E-02  0.1374329E+00
          2   -1    0    0  501    0  0.00000000000E+00  0.00000000000E+00  0.64840358220E+03  0.64840358220E+03  0.00000000000E+00 0.  1.
         -2   -1    0    0    0  501 -0.00000000000E+00 -0.00000000000E+00 -0.27960168715E+02  0.27960168715E+02  0.00000000000E+00 0. -1.
         25    2    1    2    0    0 -0.28708456919E+02  0.66104508681E+01  0.51672082913E+03  0.53246114484E+03  0.12508629800E+03 0.  0.
          5    1    3    3  502    0 -0.21311046600E+02 -0.15815395210E+02  0.16212084076E+02  0.31378201078E+02  0.41800000000E+01 0.  1.
         -5    1    3    3    0  502 -0.73974103191E+01  0.22425846078E+02  0.50050874506E+03  0.50108294376E+03  0.41800000000E+01 0.  1.
        -11    1    1    2    0    0  0.22813271222E+02  0.33520752428E+02  0.99750293563E+01  0.41756285729E+02  0.00000000000E+00 0. -1.
         11    1    1    2    0    0  0.58951856970E+01 -0.40131203296E+02  0.93747554999E+02  0.10214632035E+03  0.00000000000E+00 0.  1.
</event>
<event>
 7    1  0.2943257E-009  0.1742733E+03  0.7561462E-02  0.1173463E+00
         -2   -1    0    0    0  501 -0.00000000000E+00  0.00000000000E+00  0.23649821931E+02  0.23649821931E+02  0.00000000000E+00 0.  1.
          2   -1    0    0  501    0  0.00000000000E+00 -0.00000000000E+00 -0.17031588977E+04  0.17031588977E+04  0.00000000000E+00 0. -1.
         25    2    1    2    0    0 -0.52402244864E+02 -0.15207026064E+03 -0.10978205858E+04  0.11165672124E+04  0.12506375138E+03 0.  0.
          5    1    3    3  502    0  0.60298323487E+01 -0.11088780588E+03 -0.88661409207E+03  0.89355161296E+03  0.41800000000E+01 0. -1.
         -5    1    3    3    0  502 -0.58432077213E+02 -0.41182454758E+02 -0.21120649369E+03  0.22301559946E+03  0.41800000000E+01 0. -1.
        -11    1    1    2    0    0 -0.32196578180E+01  0.45334331054E+02 -0.62457197541E+02  0.77242923904E+02  0.00000000000E+00 0.  1.
         11    1    1    2    0    0  0.55621902682E+02  0.10673592959E+03 -0.51923129252E+03  0.53299858335E+03  0.00000000000E+00 0. -1.
</event>
<event>
 7    1  0.2943257E-009  0.8019280E+02  0.7561462E-02  0.1328505E+00
         -2   -1    0    0    0  501 -0.00000000000E+00  0.00000000000E+00  0.10398474871E+03  0.10398474871E+03  0.00000000000E+00 0.  1.
          2   -1    0    0  501    0  0.00000000000E+00 -0.00000000000E+00 -0.11562226062E+03  0.11562226062E+03  0.00000000000E+00 0. -1.
         25    2    1    2    0    0  0.36212857628E+00 -0.88229929193E+00  0.24362332670E+02  0.12744449126E+03  0.12509062918E+03 0.  0.
          5    1    3    3  502    0 -0.57898195072E+02 -0.21288697961E+02  0.26950087510E+01  0.61888166281E+02  0.41800000000E+01 0. -1.
         -5    1    3    3    0  502  0.58260323649E+02  0.20406398669E+02  0.21667323919E+02  0.65556324974E+02  0.41800000000E+01 0. -1.
        -11    1    1    2    0    0  0.16736937651E+01  0.18687755653E+02  0.23471798857E+02  0.30049272932E+02  0.00000000000E+00 0.  1.
         11    1    1    2    0    0 -0.20358223414E+01 -0.17805456361E+02 -0.59471643442E+02  0.62113245146E+02  0.00000000000E+00 0. -1.
</event>
<event>
 7    1  0.2943257E-009  0.1155773E+03  0.7561462E-02  0.1250577E+00
          1   -1    0    0  501    0  0.00000000000E+00  0.00000000000E+00  0.61094081299E+02  0.61094081299E+02  0.00000000000E+00 0. -1.
         -1   -1    0    0    0  501 -0.00000000000E+00 -0.00000000000E+00 -0.24816866487E+03  0.24816866487E+03  0.00000000000E+00 0.  1.
         25    2    1    2    0    0 -0.23350527286E+02 -0.50054817411E+02 -0.13283478338E+03  0.19063564852E+03  0.12508452718E+03 0.  0.
          5    1    3    3  502    0  0.63645291659E+01  0.38757129797E+02 -0.21088311124E+02  0.44775122643E+02  0.41800000000E+01 0. -1.
         -5    1    3    3    0  502 -0.29715056452E+02 -0.88811947209E+02 -0.11174647226E+03  0.14586052588E+03  0.41800000000E+01 0. -1.
        -11    1    1    2    0    0 -0.12885772286E+02  0.59161960197E+02 -0.54199956942E+02  0.81263866474E+02  0.00000000000E+00 0.  1.
         11    1    1    2    0    0  0.36236299572E+02 -0.91071427857E+01 -0.39843247208E-01  0.37363231175E+02  0.00000000000E+00 0. -1.
</event>
<event>
 7    1  0.2943257E-009  0.1511276E+03  0.7561462E-02  0.1199094E+00
          1   -1    0    0  501    0  0.00000000000E+00  0.00000000000E+00  0.52316348874E+02  0.52316348874E+02  0.00000000000E+00 0. -1.
         -1   -1    0    0    0  501 -0.00000000000E+00 -0.00000000000E+00 -0.58595873326E+03  0.58595873326E+03  0.00000000000E+00 0.  1.
         25    2    1    2    0    0 -0.13251736771E+03 -0.20846418585E+02 -0.33323101628E+03  0.38037830717E+03  0.12509724392E+03 0.  0.
          5    1    3    3  502    0 -0.91675243815E+02 -0.36329988823E+02 -0.31950606972E+03  0.33440367732E+03  0.41800000000E+01 0. -1.
         -5    1    3    3    0  502 -0.40842123895E+02  0.15483570238E+02 -0.13724946566E+02  0.45974629850E+02  0.41800000000E+01 0. -1.
        -11    1    1    2    0    0  0.71693867810E+02  0.54598149315E+02 -0.89724364941E+02  0.12716693853E+03  0.00000000000E+00 0. -1.
         11    1    1    2    0    0  0.60823499899E+02 -0.33751730730E+02 -0.11068700317E+03  0.13072983645E+03  0.00000000000E+00 0.  1.
</event>
<event>
 7    1  0.2943257E-009  0.8642583E+02  0.7561462E-02  0.1311745E+00
         -2   -1    0    0    0  501 -0.00000000000E+00  0.00000000000E+00  0.15234862845E+03  0.15234862845E+03  0.00000000000E+00 0.  1.
          2   -1    0    0  501    0  0.00000000000E+00 -0.00000000000E+00 -0.90520275582E+02  0.90520275582E+02  0.00000000000E+00 0. -1.
         25    2    1    2    0    0 -0.32336142607E+02  0.76437648484E+01  0.57749312050E+01  0.12955873014E+03  0.12509221185E+03 0.  0.
          5    1    3    3  502    0 -0.70432936543E+02 -0.15267744802E+02  0.30671252812E+02  0.78435328332E+02  0.41800000000E+01 0. -1.
         -5    1    3    3    0  502  0.38096793936E+02  0.22911509650E+02 -0.24896321607E+02  0.51123401806E+02  0.41800000000E+01 0. -1.
        -11    1    1    2    0    0  0.92133567282E+01  0.18767547812E+02  0.71840245576E+02  0.74820636709E+02  0.00000000000E+00 0.  1.
         11    1    1    2    0    0  0.23122785879E+02 -0.26411312660E+02 -0.15786823916E+02  0.38489537184E+02  0.00000000000E+00 0. -1.
</event>
<event>
 7    1  0.2943257E-009  0.1408958E+03  0.7561462E-02  0.1212129E+00
          2   -1    0    0  501    0  0.00000000000E+00  0.00000000000E+00  0.65908383739E+02  0.65908383739E+02  0.00000000000E+00 0. -1.
         -2   -1    0    0    0  501 -0.00000000000E+00 -0.00000000000E+00 -0.76930598931E+03  0.76930598931E+03  0.00000000000E+00 0.  1.
         25    2    1    2    0    0 -0.12029987725E+03  0.28563753045E+02 -0.65172371024E+03  0.67504034090E+03  0.12509084258E+03 0.  0.
          5    1    3    3  502    0 -0.57191463921E+02  0.43426534286E+02 -0.54763870732E+03  0.55234260526E+03  0.41800000000E+01 0.  1.
         -5    1    3    3    0  502 -0.63108413329E+02 -0.14862781242E+02 -0.10408500292E+03  0.12269773564E+03  0.41800000000E+01 0.  1.
        -11    1    1    2    0    0  0.87830997643E+02  0.16480200917E+02 -0.83639574875E+01  0.89754314403E+02  0.00000000000E+00 0. -1.
         11    1    1    2    0    0  0.32468879607E+02 -0.45043953961E+02 -0.43309937844E+02  0.70419717746E+02  0.00000000000E+00 0.  1.
</event>
<event>
 6    1  0.2943257E-009  0.8682202E+02  0.7561462E-02  0.1310735E+00
         -2   -1    0    0    0  501 -0.00000000000E+00  0.00000000000E+00  0.39157777362E+02  0.39157777362E+02  0.00000000000E+00 0.  1.
          2   -1    0    0  501    0  0.00000000000E+00 -0.00000000000E+00 -0.38633687070E+03  0.38633687070E+03  0.00000000000E+00 0. -1.
          5    1    1    2  502    0 -0.64827358570E+01 -0.18964053964E+02  0.12234792695E+02  0.23850026399E+02  0.41800000000E+01 0.  1.
         -5    1    1    2    0  502  0.36705760220E+02 -0.23155266080E+02 -0.21929701928E+03  0.22358920870E+03  0.41800000000E+01 0.  1.
        -11    1    1    2    0    0  0.35322648485E+02  0.18702086340E+02 -0.44916492577E+02  0.60124444570E+02  0.00000000000E+00 0.  1.
         11    1    1    2    0    0 -0.65545672847E+02  0.23417233704E+02 -0.95200374171E+02  0.11793096839E+03  0.00000000000E+00 0. -1.
</event>
<event>
 7    1  0.2943257E-009  0.1511893E+03  0.7561462E-02  0.1199019E+00
         -1   -1    0    0    0  501 -0.00000000000E+00  0.00000000000E+00  0.36769841945E+02  0.36769841945E+02  0.00000000000E+00 0.  1.
          1   -1    0    0  501    0  0.00000000000E+00 -0.00000000000E+00 -0.64571944533E+03  0.64571944533E+03  0.00000000000E+00 0. -1.
         25    2    1    2    0    0 -0.10849955715E+03 -0.14158825973E+02 -0.33338562521E+03  0.37251286225E+03  0.12508889314E+03 0.  0.
          5    1    3    3  502    0 -0.12227352785E+03  0.21526191757E+02 -0.21836846303E+03  0.25122987599E+03  0.41800000000E+01 0. -1.
         -5    1    3    3    0  502  0.13773970700E+02 -0.35685017730E+02 -0.11501716218E+03  0.12128298626E+03  0.41800000000E+01 0. -1.
        -11    1    1    2    0    0  0.42992586416E+02 -0.36871362275E+02 -0.13972110015E+03  0.15076420553E+03  0.00000000000E+00 0.  1.
         11    1    1    2    0    0  0.65506970732E+02  0.51030188248E+02 -0.13584287803E+03  0.15921221950E+03  0.00000000000E+00 0. -1.
</event>
<event>
 7    1  0.2943257E-009  0.2011186E+03  0.7561462E-02  0.1148799E+00
          2   -1    0    0  501    0  0.00000000000E+00  0.00000000000E+00  0.15949268681E+03  0.15949268681E+03  0.00000000000E+00 0. -1.
         -2   -1    0    0    0  501 -0.00000000000E+00 -0.00000000000E+00 -0.34678427685E+03  0.34678427685E+03  0.00000000000E+00 0.  1.
         25    2    1    2    0    0 -0.11454978938E+03 -0.14082570981E+03 -0.20528146639E+03  0.30123034939E+03  0.12508280521E+03 0.  0.
          5    1    3    3  502    0 -0.12559857605E+03 -0.15641626300E+03 -0.18279622970E+03  0.27142767661E+03  0.41800000000E+01 0.  1.
         -5    1    3    3    0  502  0.11048786666E+02  0.15590553195E+02 -0.22485236692E+02  0.29802672780E+02  0.41800000000E+01 0.  1.
        -11    1    1    2    0    0  0.76573776050E+02  0.10384245960E+03 -0.31188540513E+02  0.13273855753E+03  0.00000000000E+00 0.  1.
         11    1    1    2    0    0  0.37976013335E+02  0.36983250206E+02  0.49178416862E+02  0.72308056741E+02  0.00000000000E+00 0. -1.
</event>
<event>
 7    1  0.2943257E-009  0.1548026E+03  0.7561462E-02  0.1194693E+00
         -3   -1    0    0    0  501 -0.00000000000E+00  0.00000000000E+00  0.45712977259E+03  0.45712977259E+03  0.00000000000E+00 0.  1.
          3   -1    0    0  501    0  0.00000000000E+00 -0.00000000000E+00 -0.64195149336E+02  0.64195149336E+02  0.00000000000E+00 0. -1.
         25    2    1    2    0    0 -0.11334426709E+03 -0.49912306987E+02  0.26231892939E+03  0.31590431992E+03  0.12508460081E+03 0.  0.
          5    1    3    3  502    0 -0.67778497117E+02 -0.73604360916E+02  0.23941551958E+03  0.25951645427E+03  0.41800000000E+01 0.  1.
         -5    1    3    3    0  502 -0.45565769972E+02  0.23692053929E+02  0.22903409805E+02  0.56387865656E+02  0.41800000000E+01 0.  1.
        -11    1    1    2    0    0 -0.15452113530E+02  0.20759049763E+02  0.28446899102E+02  0.38456885315E+02  0.00000000000E+00 0.  1.
         11    1    1    2    0    0  0.12879638062E+03  0.29153257224E+02  0.10216879476E+03  0.16696371669E+03  0.00000000000E+00 0. -1.
</event>
<event>
 7    1  0.2943257E-009  0.8601098E+02  0.7561462E-02  0.1312810E+00
          2   -1    0    0  501    0  0.00000000000E+00  0.00000000000E+00  0.75061846868E+03  0.75061846868E+03  0.00000000000E+00 0.  1.
         -2   -1    0    0    0  501 -0.00000000000E+00 -0.00000000000E+00 -0.23752424867E+02  0.23752424867E+02  0.00000000000E+00 0. -1.
         25    2    1    2    0    0  0.47412775181E+02  0.24416102172E+02  0.57118329050E+03  0.58714722584E+03  0.12508955262E+03 0.  0.
          5    1    3    3  502    0  0.52035538538E+02  0.34237505463E+02  0.57208422111E+03  0.57548043624E+03  0.41800000000E+01 0. -1.
         -5    1    3    3    0  502 -0.46227633569E+01 -0.98214032903E+01 -0.90093061405E+00  0.11666789602E+02  0.41800000000E+01 0. -1.
        -11    1    1    2    0    0 -0.64092611746E+02  0.48495246726E+01  0.12944867783E+03  0.14452799370E+03  0.00000000000E+00 0.  1.
         11    1    1    2    0    0  0.16679836565E+02 -0.29265626845E+02  0.26234075488E+02  0.42695674010E+02  0.00000000000E+00 0. -1.
</event>
<event>
 7    1  0.2943257E-009  0.1635445E+03  0.7561462E-02  0.1184752E+00
         -2   -1    0    0    0  501 -0.00000000000E+00  0.00000000000E+00  0.13109590970E+03  0.13109590970E+03  0.00000000000E+00 0. -1.
          2   -1    0    0  501    0  0.00000000000E+00 -0.00000000000E+00 -0.33278898868E+03  0.33278898868E+03  0.00000000000E+00 0.  1.
         25    2    1    2    0    0  0.12235088966E+03  0.63208378405E+02  0.16749414998E+02  0.18678551313E+03  0.12507296156E+03 0.  0.
          5    1    3    3  502    0  0.88932600617E+02 -0.22936494970E+02 -0.38759648616E+01  0.92019485750E+02  0.41800000000E+01 0.  1.
         -5    1    3    3    0  502  0.33418289038E+02  0.86144873375E+02  0.20625379859E+02  0.94766027380E+02  0.41800000000E+01 0.  1.
        -11    1    1    2    0    0 -0.33095905430E+02 -0.36981555812E+02 -0.12587349122E+02  0.51199763520E+02  0.00000000000E+00 0. -1.
         11    1    1    2    0    0 -0.89254984225E+02 -0.26226822592E+02 -0.20585514486E+03  0.22589962173E+03  0.00000000000E+00 0.  1.
</event>
<event>
 7    1  0.2943257E-009  0.1100509E+03  0.7561462E-02  0.1260476E+00
          1   -1    0    0  501    0  0.00000000000E+00  0.00000000000E+00  0.32119214556E+02  0.32119214556E+02  0.00000000000E+00 0. -1.
         -1   -1    0    0    0  501 -0.00000000000E+00 -0.00000000000E+00 -0.40107068789E+03  0.40107068789E+03  0.00000000000E+00 0.  1.
         25    2    1    2    0    0 -0.26607457940E+02  0.10974106954E+02 -0.25301036396E+03  0.28370716539E+03  0.12508846302E+03 0.  0.
          5    1    3    3  502    0  0.48743713315E+02  0.11780379589E+02 -0.74544760746E+02  0.89939539056E+02  0.41800000000E+01 0.  1.
         -5    1    3    3    0  502 -0.75351171255E+02 -0.80627263457E+00 -0.17846560321E+03  0.19376762633E+03  0.41800000000E+01 0.  1.
        -11    1    1    2    0    0 -0.33499655754E+02 -0.22837062917E+01 -0.43501974240E+02  0.54953289372E+02  0.00000000000E+00 0. -1.
         11    1    1    2    0    0  0.60107113693E+02 -0.86904006624E+01 -0.72439135134E+02  0.94529447682E+02  0.00000000000E+00 0.  1.
</event>
<event>
 7    1  0.2943257E-009  0.1015673E+03  0.7561462E-02  0.1277034E+00
          1   -1    0    0  501    0  0.00000000000E+00  0.00000000000E+00  0.18133503261E+03  0.18133503261E+03  0.00000000000E+00 0. -1.
         -1   -1    0    0    0  501 -0.00000000000E+00 -0.00000000000E+00 -0.98748416256E+02  0.98748416256E+02  0.00000000000E+00 0.  1.
         25    2    1    2    0    0 -0.75305592365E+02 -0.17221503131E+02  0.36735998199E+02  0.15154986539E+03  0.12510122191E+03 0.  0.
          5    1    3    3  502    0  0.31446712811E+00  0.37884315211E+01  0.67067069610E+02  0.67304645672E+02  0.41800000000E+01 0. -1.
         -5    1    3    3    0  502 -0.75620059494E+02 -0.21009934653E+02 -0.30331071411E+02  0.84245219715E+02  0.41800000000E+01 0. -1.
        -11    1    1    2    0    0  0.35828546610E+02  0.54085351563E+02  0.33961902839E+02  0.73227869355E+02  0.00000000000E+00 0.  1.
         11    1    1    2    0    0  0.39477045755E+02 -0.36863848431E+02  0.11888715315E+02  0.55305714122E+02  0.00000000000E+00 0. -1.
</event>
<event>
 7    1  0.2943257E-009  0.4621404E+03  0.7561462E-02  0.1024162E+00
          2   -1    0    0  501    0  0.00000000000E+00  0.00000000000E+00  0.57680696801E+03  0.57680696801E+03  0.00000000000E+00 0. -1.
         -2   -1    0    0    0  501 -0.00000000000E+00 -0.00000000000E+00 -0.52917509345E+03  0.52917509345E+03  0.00000000000E+00 0.  1.
         25    2    1    2    0    0 -0.23616243826E+03 -0.39124182126E+03 -0.26653678435E+03  0.54362803023E+03  0.12508684139E+03 0.  0.
          5    1    3    3  502    0 -0.17255386904E+03 -0.26172129596E+03 -0.24453721823E+03  0.39760382038E+03  0.41800000000E+01 0. -1.
         -5    1    3    3    0  502 -0.63608569220E+02 -0.12952052530E+03 -0.21999566121E+02  0.14602420985E+03  0.41800000000E+01 0. -1.
        -11    1    1    2    0    0  0.83698093136E+02  0.63895488269E+02  0.71540519296E+02  0.12730298550E+03  0.00000000000E+00 0.  1.
         11    1    1    2    0    0  0.15246434513E+03  0.32734633299E+03  0.24262813961E+03  0.43505104573E+03  0.00000000000E+00 0. -1.
</event>
<event>
 7    1  0.2943257E-009  0.1528117E+03  0.7561462E-02  0.1197060E+00
         -2   -1    0    0    0  501 -0.00000000000E+00  0.00000000000E+00  0.40117646107E+02  0.40117646107E+02  0.00000000000E+00 0.  1.
          2   -1    0    0  501    0  0.00000000000E+00 -0.00000000000E+00 -0.10105523037E+04  0.10105523037E+04  0.00000000000E+00 0. -1.
         25    2    1    2    0    0  0.11791494785E+02 -0.11766358526E+03 -0.82357788014E+03  0.84137516299E+03  0.12509149292E+03 0.  0.
          5    1    3    3  502    0 -0.12054815473E+02  0.22583955023E+02 -0.20507156616E+03  0.20670552302E+03  0.41800000000E+01 0.  1.
         -5    1    3    3    0  502  0.23846310258E+02 -0.14024754028E+03 -0.61850631398E+03  0.63466963997E+03  0.41800000000E+01 0.  1.
        -11    1    1    2    0    0  0.21465172798E+02  0.94318406349E+02 -0.13661235201E+03  0.16739071104E+03  0.00000000000E+00 0. -1.
         11    1    1    2    0    0 -0.33256667583E+02  0.23345178911E+02 -0.10244425490E+02  0.41904075825E+02  0.00000000000E+00 0.  1.
</event>
<event>
 7    1  0.2943257E-009  0.1026690E+03  0.7561462E-02  0.1274781E+00
         -2   -1    0    0    0  501 -0.00000000000E+00  0.00000000000E+00  0.56567860060E+02  0.56567860060E+02  0.00000000000E+00 0. -1.
          2   -1    0    0  501    0  0.00000000000E+00 -0.00000000000E+00 -0.24732586021E+03  0.24732586021E+03  0.00000000000E+00 0.  1.
         25    2    1    2    0    0 -0.37835725209E+02 -0.19400272325E+02 -0.13808355875E+03  0.19110639285E+03  0.12508665605E+03 0.  0.
          5    1    3    3  502    0 -0.60832837006E+02 -0.59113338135E+02 -0.77366469233E+02  0.11488282624E+03  0.41800000000E+01 0.  1.
         -5    1    3    3    0  502  0.22997111797E+02  0.39713065811E+02 -0.60717089519E+02  0.76223566610E+02  0.41800000000E+01 0.  1.
        -11    1    1    2    0    0  0.52647614890E+01  0.36956296151E+02 -0.64000569733E+02  0.74091554612E+02  0.00000000000E+00 0.  1.
         11    1    1    2    0    0  0.32570963720E+02 -0.17556023826E+02  0.11326128332E+02  0.38695772808E+02  0.00000000000E+00 0. -1.
</event>
<event>
 7    1  0.2943257E-009  0.1504855E+03  0.7561462E-02  0.1199878E+00
         -2   -1    0    0    0  501 -0.00000000000E+00  0.00000000000E+00  0.41917226835E+02  0.41917226835E+02  0.00000000000E+00 0.  1.
          2   -1    0    0  501    0  0.00000000000E+00 -0.00000000000E+00 -0.73819457201E+03  0.73819457201E+03  0.00000000000E+00 0. -1.
         25    2    1    2    0    0  0.10803882299E+03 -0.75267819567E+02 -0.27448496522E+03  0.32913051637E+03  0.12508904324E+03 0.  0.
          5    1    3    3  502    0  0.11357333321E+03 -0.22761487580E+02 -0.12465598136E+03  0.17021625488E+03  0.41800000000E+01 0.  1.
         -5    1    3    3    0  502 -0.55345102266E+01 -0.52506331987E+02 -0.14982898386E+03  0.15891426149E+03  0.41800000000E+01 0.  1.
        -11    1    1    2    0    0 -0.38820876258E+02  0.33359921707E+02 -0.54043042862E+02  0.74435175095E+02  0.00000000000E+00 0.  1.
         11    1    1    2    0    0 -0.69217946728E+02  0.41907897860E+02 -0.36774933710E+03  0.37654610738E+03  0.00000000000E+00 0. -1.
</event>
<event>
 7    1  0.2943257E-009  0.1869480E+03  0.7561462E-02  0.1161243E+00
         -2   -1    0    0    0  501 -0.00000000000E+00  0.00000000000E+00  0.65199282447E+02  0.65199282447E+02  0.00000000000E+00 0.  1.
          2   -1    0    0  501    0  0.00000000000E+00 -0.00000000000E+00 -0.81202218940E+03  0.81202218940E+03  0.00000000000E+00 0. -1.
         25    2    1    2    0    0 -0.15101104561E+03  0.68017745946E+02 -0.16469633417E+03  0.26495520649E+03  0.12508248996E+03 0.  0.
          5    1    3    3  502    0  0.71955175893E+01  0.17841840673E+02  0.11549740904E+02  0.22824891389E+02  0.41800000000E+01 0.  1.
         -5    1    3    3    0  502 -0.15820656320E+03  0.50175905273E+02 -0.17624607507E+03  0.24213031510E+03  0.41800000000E+01 0.  1.
        -11    1    1    2    0    0  0.92208685235E+02  0.74530716476E+01 -0.32528582274E+03  0.33818464835E+03  0.00000000000E+00 0. -1.
         11    1    1    2    0    0  0.58802360380E+02 -0.75470817594E+02 -0.25684075005E+03  0.27408161700E+03  0.00000000000E+00 0.  1.
</event>
<event>
 7    1  0.2943257E-009  0.1421571E+03  0.7561462E-02  0.1210456E+00
         -1   -1    0    0    0  501 -0.00000000000E+00  0.00000000000E+00  0.34425176133E+02  0.34425176133E+02  0.00000000000E+00 0.  1.
          1   -1    0    0  501    0  0.00000000000E+00 -0.00000000000E+00 -0.90894522725E+03  0.90894522725E+03  0.00000000000E+00 0. -1.
         25    2    1    2    0    0 -0.45620755922E+02  0.11722190048E+03 -0.60840458457E+03  0.63374095507E+03  0.12509689161E+03 0.  0.
          5    1    3    3  502    0 -0.26410848881E+02  0.86653022729E+02 -0.16036764579E+03  0.18423228138E+03  0.41800000000E+01 0. -1.
         -5    1    3    3    0  502 -0.19209907042E+02  0.30568877754E+02 -0.44803693878E+03  0.44950867369E+03  0.41800000000E+01 0. -1.
        -11    1    1    2    0    0 -0.26623167831E+02 -0.58184125790E+02 -0.91524548035E+02  0.11167331128E+03  0.00000000000E+00 0.  1.
         11    1    1    2    0    0  0.72243923753E+02 -0.59037774694E+02 -0.17459091852E+03  0.19795613703E+03  0.00000000000E+00 0. -1.
</event>
<event>
 7    1  0.2943257E-009  0.1187483E+03  0.7561462E-02  0.1245176E+00
         -1   -1    0    0    0  501 -0.00000000000E+00  0.00000000000E+00  0.10557650005E+03  0.10557650005E+03  0.00000000000E+00 0.  1.
          1   -1    0    0  501    0  0.00000000000E+00 -0.00000000000E+00 -0.17326517430E+03  0.17326517430E+03  0.00000000000E+00 0. -1.
         25    2    1    2    0    0  0.73502673700E+02 -0.14415400774E+02 -0.17331618993E+02  0.14684904949E+03  0.12511519291E+03 0.  0.
          5    1    3    3  502    0  0.45268196905E+02 -0.69743918816E+02 -0.14676041797E+02  0.84535687527E+02  0.41800000000E+01 0.  1.
         -5    1    3    3    0  502  0.28234476795E+02  0.55328518042E+02 -0.26555771956E+01  0.62313361961E+02  0.41800000000E+01 0.  1.
        -11    1    1    2    0    0 -0.30117751976E+02 -0.20386906102E+02 -0.64996133501E+02  0.74479542793E+02  0.00000000000E+00 0. -1.
         11    1    1    2    0    0 -0.43384921724E+02  0.34802306876E+02  0.14639078249E+02  0.57513082067E+02  0.00000000000E+00 0.  1.
</event>
<event>
 7    1  0.2943257E-009  0.1284880E+03  0.7561462E-02  0.1229717E+00
          2   -1    0    0  501    0  0.00000000000E+00  0.00000000000E+00  0.90724113661E+02  0.90724113661E+02  0.00000000000E+00 0. -1.
         -2   -1    0    0    0  501 -0.00000000000E+00 -0.00000000000E+00 -0.20244077813E+03  0.20244077813E+03  0.00000000000E+00 0.  1.
         25    2    1    2    0    0 -0.55401789416E+02  0.56925935234E+02 -0.72776946534E+02  0.16508712769E+03  0.12508938968E+03 0.  0.
          5    1    3    3  502    0 -0.37420935459E+02  0.96947317437E+02 -0.53913885249E+02  0.11714643909E+03  0.41800000000E+01 0. -1.
         -5    1    3    3    0  502 -0.17980853957E+02 -0.40021382203E+02 -0.18863061286E+02  0.47940688601E+02  0.41800000000E+01 0. -1.
        -11    1    1    2    0    0  0.15634230309E+02  0.18141597488E+02 -0.35796663852E+02  0.43069105629E+02  0.00000000000E+00 0.  1.
         11    1    1    2    0    0  0.39767559107E+02 -0.75067532722E+02 -0.31430540829E+01  0.85008658472E+02  0.00000000000E+00 0. -1.
</event>
<event>
 7    1  0.2943257E-009  0.6650058E+02  0.7561462E-02  0.1372414E+00
          1   -1    0    0  501    0  0.00000000000E+00  0.00000000000E+00  0.15295214496E+03  0.15295214496E+03  0.00000000000E+00 0. -1.
         -1   -1    0    0    0  501 -0.00000000000E+00 -0.00000000000E+00 -0.88915170418E+02  0.88915170418E+02  0.00000000000E+00 0.  1.
         25    2    1    2    0    0  0.14475005555E+02 -0.36956513122E+02  0.45066479420E+02  0.13875914778E+03  0.12509118226E+03 0.  0.
          5    1    3    3  502    0 -0.18993050386E+02  0.65769598278E+01  0.73828878028E+02  0.76630072389E+02  0.41800000000E+01 0. -1.
         -5    1    3    3    0  502  0.33468055941E+02 -0.43533472950E+02 -0.28762398608E+02  0.62129075393E+02  0.41800000000E+01 0. -1.
        -11    1    1    2    0    0  0.10641080453E+02  0.29256024935E+02 -0.32696277656E+02  0.45146363760E+02  0.00000000000E+00 0.  1.
         11    1    1    2    0    0 -0.25116086008E+02  0.77004881866E+01  0.51666772781E+02  0.57961803839E+02  0.00000000000E+00 0. -1.
</event>
<event>
 7    1  0.2943257E-009  0.9484617E+02  0.7561462E-02  0.1291523E+00
         -2   -1    0    0    0  501 -0.00000000000E+00  0.00000000000E+00  0.18686740321E+03  0.18686740321E+03  0.00000000000E+00 0.  1.
          2   -1    0    0  501    0  0.00000000000E+00 -0.00000000000E+00 -0.79079799335E+02  0.79079799335E+02  0.00000000000E+00 0. -1.
         25    2    1    2    0    0  0.46943537381E+01  0.19166141922E+02  0.11846059273E+03  0.17340525202E+03  0.12508833456E+03 0.  0.
          5    1    3    3  502    0  0.37860434719E+02  0.51839945845E+02  0.10768246243E+03  0.12543435581E+03  0.41800000000E+01 0. -1.
         -5    1    3    3    0  502 -0.33166080980E+02 -0.32673803922E+02  0.10778130302E+02  0.47970896210E+02  0.41800000000E+01 0. -1.
        -11    1    1    2    0    0 -0.10472060438E+02  0.28624515602E+02 -0.27991313361E+02  0.41382853537E+02  0.00000000000E+00 0. -1.
         11    1    1    2    0    0  0.57777067000E+01 -0.47790657524E+02  0.17318324505E+02  0.51159096991E+02  0.00000000000E+00 0.  1.
</event>
<event>
 7    1  0.2943257E-009  0.1559171E+03  0.7561462E-02  0.1193385E+00
          1   -1    0    0  501    0  0.00000000000E+00  0.00000000000E+00  0.54377586130E+02  0.54377586130E+02  0.00000000000E+00 0. -1.
         -1   -1    0    0    0  501 -0.00000000000E+00 -0.00000000000E+00 -0.46487588036E+03  0.46487588036E+03  0.00000000000E+00 0.  1.
         25    2    1    2    0    0 -0.10264226400E+03 -0.53699409330E+02 -0.18766766336E+03  0.25354283965E+03  0.12508300742E+03 0.  0.
          5    1    3    3  502    0 -0.10896748870E+03  0.69310989111E+01 -0.11588545289E+03  0.15927606323E+03  0.41800000000E+01 0. -1.
         -5    1    3    3    0  502  0.63252246998E+01 -0.60630508241E+02 -0.71782210473E+02  0.94266776425E+02  0.41800000000E+01 0. -1.
        -11    1    1    2    0    0  0.11264629826E+03  0.31272320883E+02 -0.15926559575E+03  0.19756689134E+03  0.00000000000E+00 0.  1.
         11    1    1    2    0    0 -0.10004034254E+02  0.22427088447E+02 -0.63565035125E+02  0.68143735501E+02  0.00000000000E+00 0. -1.
</event>
<event>
 7    1  0.2943257E-009  0.1118468E+03  0.7561462E-02  0.1257188E+00
         -1   -1    0    0    0  501 -0.00000000000E+00  0.00000000000E+00  0.88803706042E+02  0.88803706042E+02  0.00000000000E+00 0.  1.
          1   -1    0    0  501    0  0.00000000000E+00 -0.00000000000E+00 -0.21822481003E+03  0.21822481003E+03  0.00000000000E+00 0. -1.
         25    2    1    2    0    0  0.48579504667E+02  0.71824481367E+02 -0.84549850021E+02  0.17410992920E+03  0.12508743306E+03 0.  0.
          5    1    3    3  502    0  0.38942879898E+02  0.16549055175E+02  0.26160523302E+02  0.49922585083E+02  0.41800000000E+01 0.  1.
         -5    1    3    3    0  502  0.96366247687E+01  0.55275426192E+02 -0.11071037332E+03  0.12418734412E+03  0.41800000000E+01 0.  1.
        -11    1    1    2    0    0  0.60125733961E+01 -0.70030394286E+02 -0.21457682533E+02  0.73490402790E+02  0.00000000000E+00 0.  1.
         11    1    1    2    0    0 -0.54592078063E+02 -0.17940870814E+01 -0.23413571431E+02  0.59428184078E+02  0.00000000000E+00 0. -1.
</event>
<event>
 7    1  0.2943257E-009  0.9513225E+02  0.7561462E-02  0.1290879E+00
         -1   -1    0    0    0  501 -0.00000000000E+00  0.00000000000E+00  0.43116797080E+02  0.43116797080E+02  0.00000000000E+00 0.  1.
          1   -1    0    0  501    0  0.00000000000E+00 -0.00000000000E+00 -0.34393850192E+03  0.34393850192E+03  0.00000000000E+00 0. -1.
         25    2    1    2    0    0 -0.39020169562E+02  0.24290044144E+02 -0.11556693531E+03  0.17639035599E+03  0.12508101883E+03 0.  0.
          5    1    3    3  502    0  0.32025952616E+02 -0.46028154871E+01 -0.89527324290E+02  0.95286209631E+02  0.41800000000E+01 0. -1.
         -5    1    3    3    0  502 -0.71046122178E+02  0.28892859631E+02 -0.26039611023E+02  0.81104146358E+02  0.41800000000E+01 0. -1.
        -11    1    1    2    0    0  0.37575189350E+02  0.15765590683E+02 -0.30758999431E+02  0.51054527226E+02  0.00000000000E+00 0.  1.
         11    1    1    2    0    0  0.14449802124E+01 -0.40055634826E+02 -0.15449577010E+03  0.15961041578E+03  0.00000000000E+00 0. -1.
</event>
<event>
 7    1  0.4379646E-009  0.1638883E+03  0.7561462E-02  0.1184376E+00
         -1   -1    0    0    0  501 -0.00000000000E+00  0.00000000000E+00  0.27139305325E+02  0.27139305325E+02  0.00000000000E+00 0.  1.
          1   -1    0    0  501    0  0.00000000000E+00 -0.00000000000E+00 -0.13065196929E+04  0.13065196929E+04  0.00000000000E+00 0. -1.
         25    2    1    2    0    0  0.96968477313E+02 -0.10479568309E+03 -0.86962921944E+03  0.89010542461E+03  0.12509063448E+03 0.  0.
          5    1    3    3  502    0  0.32371477085E+02  0.24226216342E+02 -0.28681765113E+03  0.28968372320E+03  0.41800000000E+01 0.  1.
         -5    1    3    3    0  502  0.64597000227E+02 -0.12902189943E+03 -0.58281156831E+03  0.60042170141E+03  0.41800000000E+01 0.  1.
        -11    1    1    2    0    0 -0.52690186300E+02  0.57514417236E+02 -0.33801754321E+03  0.34690059590E+03  0.00000000000E+00 0. -1.
         11    1    1    2    0    0 -0.44278291013E+02  0.47281265856E+02 -0.71733624951E+02  0.96652977733E+02  0.00000000000E+00 0.  1.
</event>
<event>
 7    1  0.2943257E-009  0.8799128E+02  0.7561462E-02  0.1307790E+00
         -2   -1    0    0    0  501 -0.00000000000E+00  0.00000000000E+00  0.15977782950E+02  0.15977782950E+02  0.00000000000E+00 0. -1.
          2   -1    0    0  501    0  0.00000000000E+00 -0.00000000000E+00 -0.87568734589E+03  0.87568734589E+03  0.00000000000E+00 0.  1.
         25    2    1    2    0    0  0.44334882036E+02 -0.27412303174E+01 -0.42861765036E+03  0.44870375363E+03  0.12509545241E+03 0.  0.
          5    1    3    3  502    0 -0.91435753875E+01  0.14852266400E+02 -0.16395799275E+01  0.18009869806E+02  0.41800000000E+01 0.  1.
         -5    1    3    3    0  502  0.53478457423E+02 -0.17593496717E+02 -0.42697807043E+03  0.43069388382E+03  0.41800000000E+01 0.  1.
        -11    1    1    2    0    0 -0.69429189235E+02  0.18639682038E+02 -0.31900572328E+03  0.32700535401E+03  0.00000000000E+00 0.  1.
         11    1    1    2    0    0  0.25094307199E+02 -0.15898451721E+02 -0.11208618930E+03  0.11595602120E+03  0.00000000000E+00 0. -1.
</event>
<event>
 7    1  0.2943257E-009  0.8355424E+02  0.7561462E-02  0.1319257E+00
          2   -1    0    0  501    0  0.00000000000E+00  0.00000000000E+00  0.49483767213E+03  0.49483767213E+03  0.00000000000E+00 0. -1.
         -2   -1    0    0    0  501 -0.00000000000E+00 -0.00000000000E+00 -0.35827426322E+02  0.35827426322E+02  0.00000000000E+00 0.  1.
         25    2    1    2    0    0 -0.35316130298E+02  0.28163668263E+02  0.37696372491E+03  0.39973684592E+03  0.12508986697E+03 0.  0.
          5    1    3    3  502    0  0.11931214799E+02  0.38095584525E+01  0.32505476456E+03  0.32532282273E+03  0.41800000000E+01 0.  1.
         -5    1    3    3    0  502 -0.47247345097E+02  0.24354109810E+02  0.51908960352E+02  0.74414023196E+02  0.41800000000E+01 0.  1.
        -11    1    1    2    0    0  0.58051058708E+02  0.72504989275E+01  0.36690279888E+02  0.69055570304E+02  0.00000000000E+00 0.  1.
         11    1    1    2    0    0 -0.22734928410E+02 -0.35414167190E+02  0.45356241007E+02  0.61872682226E+02  0.00000000000E+00 0. -1.
</event>
<event>
 7    1  0.2943257E-009  0.3585139E+03  0.7561462E-02  0.1059174E+00
          2   -1    0    0  501    0  0.00000000000E+00  0.00000000000E+00  0.22631170331E+03  0.22631170331E+03  0.00000000000E+00 0. -1.
         -2   -1    0    0    0  501 -0.00000000000E+00 -0.00000000000E+00 -0.61671230146E+03  0.61671230146E+03  0.00000000000E+00 0.  1.
         25    2    1    2    0    0 -0.22524711742E+03 -0.27737148152E+03 -0.17691680156E+03  0.41787346946E+03  0.12508988425E+03 0.  0.
          5    1    3    3  502    0 -0.11568719906E+03 -0.15117550507E+03 -0.16207117558E+03  0.25004419552E+03  0.41800000000E+01 0. -1.
         -5    1    3    3    0  502 -0.10955991836E+03 -0.12619597645E+03 -0.14845625985E+02  0.16782927395E+03  0.41800000000E+01 0. -1.
        -11    1    1    2    0    0  0.19091082101E+03  0.20984108366E+03 -0.20261619893E+03  0.34861661756E+03  0.00000000000E+00 0.  1.
         11    1    1    2    0    0  0.34336296411E+02  0.67530397863E+02 -0.10867597665E+02  0.76533917748E+02  0.00000000000E+00 0. -1.
</event>
<event>
 6    1  0.2943257E-009  0.1104088E+03  0.7561462E-02  0.1259815E+00
         -1   -1    0    0    0  501 -0.00000000000E+00  0.00000000000E+00  0.32833331285E+02  0.32833331285E+02  0.00000000000E+00 0.  1.
          1   -1    0    0  501    0  0.00000000000E+00 -0.00000000000E+00 -0.58798760910E+03  0.58798760910E+03  0.00000000000E+00 0. -1.
          5    1    1    2  502    0  0.19555131070E+02 -0.94330347364E+02 -0.39537559951E+03  0.40696431622E+03  0.41800000000E+01 0.  1.
         -5    1    1    2    0  502 -0.16085675188E+02  0.21912855798E+02 -0.23627679849E+02  0.36258265962E+02  0.41800000000E+01 0.  1.
        -11    1    1    2    0    0 -0.23193281876E+02  0.14585349829E+01 -0.50103967717E+00  0.23244498043E+02  0.00000000000E+00 0.  1.
         11    1    1    2    0    0  0.19723825994E+02  0.70958956583E+02 -0.13564995878E+03  0.15435386016E+03  0.00000000000E+00 0. -1.
</event>
<event>
 7    1  0.2943257E-009  0.6397076E+02  0.7561462E-02  0.1381885E+00
          1   -1    0    0  501    0  0.00000000000E+00  0.00000000000E+00  0.71089985661E+02  0.71089985661E+02  0.00000000000E+00 0.  1.
         -1   -1    0    0    0  501 -0.00000000000E+00 -0.00000000000E+00 -0.17057516706E+03  0.17057516706E+03  0.00000000000E+00 0. -1.
         25    2    1    2    0    0 -0.90067433230E+01 -0.14665335199E+02 -0.33345342702E+02  0.13059733583E+03  0.12509020251E+03 0.  0.
          5    1    3    3  502    0 -0.83315106181E+01 -0.30929641985E+02 -0.77171155571E+02  0.83659527100E+02  0.41800000000E+01 0.  1.
         -5    1    3    3    0  502 -0.67523270491E+00  0.16264306787E+02  0.43825812869E+02  0.46937808727E+02  0.41800000000E+01 0.  1.
        -11    1    1    2    0    0  0.31062206691E+02 -0.20574877255E+02 -0.56722476627E+01  0.37687672415E+02  0.00000000000E+00 0.  1.
         11    1    1    2    0    0 -0.22055463368E+02  0.35240212453E+02 -0.60467591035E+02  0.73380144478E+02  0.00000000000E+00 0. -1.
</event>
<event>
 7    1  0.2943257E-009  0.9311062E+02  0.7561462E-02  0.1295489E+00
         -2   -1    0    0    0  501 -0.00000000000E+00  0.00000000000E+00  0.32932556070E+02  0.32932556070E+02  0.00000000000E+00 0. -1.
          2   -1    0    0  501    0  0.00000000000E+00 -0.00000000000E+00 -0.56805560740E+03  0.56805560740E+03  0.00000000000E+00 0.  1.
         25    2    1    2    0    0 -0.47947577920E+02 -0.32042401952E+02 -0.43809248724E+03  0.45923683300E+03  0.12509098951E+03 0.  0.
          5    1    3    3  502    0 -0.14074067597E+02  0.20274117549E+02 -0.35190134679E+03  0.35279051787E+03  0.41800000000E+01 0. -1.
         -5    1    3    3    0  502 -0.33873510323E+02 -0.52316519500E+02 -0.86191140448E+02  0.10644631514E+03  0.41800000000E+01 0. -1.
        -11    1    1    2    0    0 -0.17033899494E+02  0.29047684409E+02 -0.14491294685E+02  0.36659505222E+02  0.00000000000E+00 0. -1.
         11    1    1    2    0    0  0.64981477414E+02  0.29947175430E+01 -0.82539269404E+02  0.10509182525E+03  0.00000000000E+00 0.  1.
</event>
<event>
 7    1  0.3217507E-009  0.1101839E+03  0.7561462E-02  0.1260230E+00
         -2   -1    0    0    0  501 -0.00000000000E+00  0.00000000000E+00  0.34060776470E+02  0.34060776470E+02  0.00000000000E+00 0. -1.
          2   -1    0    0  501    0  0.00000000000E+00 -0.00000000000E+00 -0.51659640643E+03  0.51659640643E+03  0.00000000000E+00 0.  1.
         25    2    1    2    0    0  0.51485390607E+02  0.53808279384E+02 -0.29545681213E+03  0.32937554064E+03  0.12508973804E+03 0.  0.
          5    1    3    3  502    0  0.41380395533E+01  0.84386501096E+02 -0.13560101560E+03  0.15982275423E+03  0.41800000000E+01 0.  1.
         -5    1    3    3    0  502  0.47347351053E+02 -0.30578221712E+02 -0.15985579653E+03  0.16955278641E+03  0.41800000000E+01 0.  1.
        -11    1    1    2    0    0 -0.33329079155E+02 -0.15276261623E+02 -0.84232048492E+01  0.37618374053E+02  0.00000000000E+00 0. -1.
         11    1    1    2    0    0 -0.18156311452E+02 -0.38532017761E+02 -0.17865561298E+03  0.18366326820E+03  0.00000000000E+00 0.  1.
</event>
<event>
 7    1  0.2943257E-009  0.1093165E+03  0.7561462E-02  0.1261841E+00
         -1   -1    0    0    0  501 -0.00000000000E+00  0.00000000000E+00  0.99706331124E+02  0.99706331124E+02  0.00000000000E+00 0.  1.
          1   -1    0    0  501    0  0.00000000000E+00 -0.00000000000E+00 -0.15416112620E+03  0.15416112620E+03  0.00000000000E+00 0. -1.
         25    2    1    2    0    0 -0.81538324168E+01 -0.27081923013E+02 -0.82749764077E+02  0.15262844519E+03  0.12509197932E+03 0.  0.
          5    1    3    3  502    0  0.57144902091E+02 -0.25677862609E+02 -0.39400383747E+02  0.74126615345E+02  0.41800000000E+01 0. -1.
         -5    1    3    3    0  502 -0.65298734508E+02 -0.14040604042E+01 -0.43349380330E+02  0.78501829845E+02  0.41800000000E+01 0. -1.
        -11    1    1    2    0    0 -0.58804732315E+00 -0.31329693560E+02  0.28231000455E+02  0.42176828768E+02  0.00000000000E+00 0.  1.
         11    1    1    2    0    0  0.87418797399E+01  0.58411616573E+02  0.63968545967E-01  0.59062183367E+02  0.00000000000E+00 0. -1.
</event>
<event>
 7    1  0.2943257E-009  0.1644873E+03  0.7561462E-02  0.1183722E+00
         -1   -1    0    0    0  501 -0.00000000000E+00  0.00000000000E+00  0.13619228253E+03  0.13619228253E+03  0.00000000000E+00 0.  1.
          1   -1    0    0  501    0  0.00000000000E+00 -0.00000000000E+00 -0.28868929790E+03  0.28868929790E+03  0.00000000000E+00 0. -1.
         25    2    1    2    0    0  0.16254722720E+03 -0.17198125417E+02 -0.69886737059E+02  0.21736884380E+03  0.12509069369E+03 0.  0.
          5    1    3    3  502    0  0.65841465173E+02 -0.18500168365E+02 -0.95214332272E+02  0.11730556780E+03  0.41800000000E+01 0.  1.
         -5    1    3    3    0  502  0.96705762030E+02  0.13020429474E+01  0.25327595213E+02  0.10006327600E+03  0.41800000000E+01 0.  1.
        -11    1    1    2    0    0 -0.14082204779E+03  0.17631382637E+02 -0.10482548992E+03  0.17643723568E+03  0.00000000000E+00 0. -1.
         11    1    1    2    0    0 -0.21725179418E+02 -0.43325721930E+00  0.22215211609E+02  0.31075500952E+02  0.00000000000E+00 0.  1.
</event>
<event>
 7    1  0.2943257E-009  0.8886351E+02  0.7561462E-02  0.1305627E+00
         -2   -1    0    0    0  501 -0.00000000000E+00  0.00000000000E+00  0.13247492397E+03  0.13247492397E+03  0.00000000000E+00 0.  1.
          2   -1    0    0  501    0  0.00000000000E+00 -0.00000000000E+00 -0.19110695257E+03  0.19110695257E+03  0.00000000000E+00 0. -1.
         25    2    1    2    0    0 -0.16888548816E+02 -0.65708897132E+02 -0.12489989735E+03  0.18934345136E+03  0.12509226984E+03 0.  0.
          5    1    3    3  502    0 -0.49492297170E+02 -0.57530679417E+02 -0.19261866492E+02  0.78407642830E+02  0.41800000000E+01 0. -1.
         -5    1    3    3    0  502  0.32603748354E+02 -0.81782177155E+01 -0.10563803086E+03  0.11093580853E+03  0.41800000000E+01 0. -1.
        -11    1    1    2    0    0  0.31079199916E+01  0.13410764111E+02  0.77741977861E+02  0.78951395697E+02  0.00000000000E+00 0.  1.
         11    1    1    2    0    0  0.13780628825E+02  0.52298133021E+02 -0.11474109119E+02  0.55287029477E+02  0.00000000000E+00 0. -1.
</event>
<event>
 7    1  0.2943257E-009  0.8265967E+02  0.7561462E-02  0.1321669E+00
         -2   -1    0    0    0  501 -0.00000000000E+00  0.00000000000E+00  0.33972355450E+02  0.33972355450E+02  0.00000000000E+00 0.  1.
          2   -1    0    0  501    0  0.00000000000E+00 -0.00000000000E+00 -0.50344359395E+03  0.50344359395E+03  0.00000000000E+00 0. -1.
         25    2    1    2    0    0 -0.49680880366E+01 -0.86917066066E+01 -0.40647035495E+03  0.42540213321E+03  0.12509435565E+03 0.  0.
          5    1    3    3  502    0  0.41202294322E+02 -0.18269034016E+02 -0.57222840576E+02  0.72961034429E+02  0.41800000000E+01 0. -1.
         -5    1    3    3    0  502 -0.46170382359E+02  0.95773274097E+01 -0.34924751438E+03  0.35244109878E+03  0.41800000000E+01 0. -1.
        -11    1    1    2    0    0  0.37825722514E+02 -0.27463477465E+01  0.23295813697E+01  0.37996771692E+02  0.00000000000E+00 0.  1.
         11    1    1    2    0    0 -0.32857634477E+02  0.11438054353E+02 -0.65330464913E+02  0.74017044500E+02  0.00000000000E+00 0. -1.
</event>
<event>
 7    1  0.3175667E-009  0.1403938E+03  0.7561462E-02  0.1212800E+00
         -2   -1    0    0    0  501 -0.00000000000E+00  0.00000000000E+00  0.77976047621E+02  0.77976047621E+02  0.00000000000E+00 0. -1.
          2   -1    0    0  501    0  0.00000000000E+00 -0.00000000000E+00 -0.58769359210E+03  0.58769359210E+03  0.00000000000E+00 0.  1.
         25    2    1    2    0    0  0.62538204547E+02  0.74245754135E+02 -0.21801499876E+02  0.15983193325E+03  0.12508989749E+03 0.  0.
          5    1    3    3  502    0  0.94719223666E+02  0.56217480945E+02 -0.41533608056E+02  0.11779070207E+03  0.41800000000E+01 0. -1.
         -5    1    3    3    0  502 -0.32181019119E+02  0.18028273190E+02  0.19732108179E+02  0.42041231178E+02  0.41800000000E+01 0. -1.
        -11    1    1    2    0    0  0.14690860502E+02 -0.50573206015E+02 -0.18904605558E+03  0.19624444369E+03  0.00000000000E+00 0.  1.
         11    1    1    2    0    0 -0.77229065048E+02 -0.23672548120E+02 -0.29886998903E+03  0.30959326279E+03  0.00000000000E+00 0. -1.
</event>
<event>
 7    1  0.2943257E-009  0.1422891E+03  0.7561462E-02  0.1210282E+00
         -3   -1    0    0    0  501 -0.00000000000E+00  0.00000000000E+00  0.44928464978E+03  0.44928464978E+03  0.00000000000E+00 0.  1.
          3   -1    0    0  501    0  0.00000000000E+00 -0.00000000000E+00 -0.72461758096E+02  0.72461758096E+02  0.00000000000E+00 0. -1.
         25    2    1    2    0    0  0.39651742118E+02  0.12916820882E+03  0.27702210526E+03  0.33263442078E+03  0.12509086403E+03 0.  0.
          5    1    3    3  502    0  0.33702366031E+02  0.13156039973E+03  0.28846764160E+03  0.31886523941E+03  0.41800000000E+01 0.  1.
         -5    1    3    3    0  502  0.59493760865E+01 -0.23921909120E+01 -0.11445536347E+02  0.13769181365E+02  0.41800000000E+01 0.  1.
        -11    1    1    2    0    0 -0.17210916443E+02 -0.11057981401E+03  0.33703010291E+02  0.11687601899E+03  0.00000000000E+00 0. -1.
         11    1    1    2    0    0 -0.22440825675E+02 -0.18588394805E+02  0.66097776139E+02  0.72235968111E+02  0.00000000000E+00 0.  1.
</event>
<event>
 7    1  0.2943257E-009  0.2580229E+03  0.7561462E-02  0.1108337E+00
         -2   -1    0    0    0  501 -0.00000000000E+00  0.00000000000E+00  0.45165752897E+02  0.45165752897E+02  0.00000000000E+00 0. -1.
          2   -1    0    0  501    0  0.00000000000E+00 -0.00000000000E+00 -0.16305881898E+04  0.16305881898E+04  0.00000000000E+00 0.  1.
         25    2    1    2    0    0 -0.34530378393E+02 -0.23853789524E+03 -0.10012600875E+04  0.10374301638E+04  0.12508759880E+03 0.  0.
          5    1    3    3  502    0 -0.12709238711E+02 -0.24362241171E+03 -0.84512792205E+03  0.87964315564E+03  0.41800000000E+01 0. -1.
         -5    1    3    3    0  502 -0.21821139682E+02  0.50845164706E+01 -0.15613216548E+03  0.15778700816E+03  0.41800000000E+01 0. -1.
        -11    1    1    2    0    0 -0.17153331615E+02  0.31446457338E+02 -0.15408664686E+03  0.15819548415E+03  0.00000000000E+00 0.  1.
         11    1    1    2    0    0  0.51683710008E+02  0.20709143790E+03 -0.43007570252E+03  0.48012829476E+03  0.00000000000E+00 0. -1.
</event>
<event>
 7    1  0.2943257E-009  0.9629219E+02  0.7561462E-02  0.1288292E+00
         -3   -1    0    0    0  501 -0.00000000000E+00  0.00000000000E+00  0.40685928226E+02  0.40685928226E+02  0.00000000000E+00 0.  1.
          3   -1    0    0  501    0  0.00000000000E+00 -0.00000000000E+00 -0.57589208078E+03  0.57589208078E+03  0.00000000000E+00 0. -1.
         25    2    1    2    0    0 -0.54184652833E+02 -0.38627282975E+01 -0.47742551285E+03  0.49652158461E+03  0.12509063272E+03 0.  0.
          5    1    3    3  502    0  0.37005799112E+02  0.12279087935E+02 -0.20607965126E+03  0.20977726338E+03  0.41800000000E+01 0. -1.
         -5    1    3    3    0  502 -0.91190451945E+02 -0.16141816232E+02 -0.27134586159E+03  0.28674432123E+03  0.41800000000E+01 0. -1.
        -11    1    1    2    0    0  0.15725364443E+02 -0.11262174120E+02 -0.73378028735E+02  0.75884509314E+02  0.00000000000E+00 0. -1.
         11    1    1    2    0    0  0.38459288390E+02  0.15124902418E+02  0.15597389034E+02  0.44171915074E+02  0.00000000000E+00 0.  1.
</event>
<event>
 7    1  0.2943257E-009  0.1540227E+03  0.7561462E-02  0.1195615E+00
         -2   -1    0    0    0  501 -0.00000000000E+00  0.00000000000E+00  0.10159006214E+04  0.10159006214E+04  0.00000000000E+00 0.  1.
          2   -1    0    0  501    0  0.00000000000E+00 -0.00000000000E+00 -0.32711458344E+02  0.32711458344E+02  0.00000000000E+00 0. -1.
         25    2    1    2    0    0  0.91811535709E+02  0.11296618302E+03  0.55765231385E+03  0.58975741146E+03  0.12508790763E+03 0.  0.
          5    1    3    3  502    0  0.75109207160E+02  0.83340395810E+02  0.19133753194E+03  0.22184349912E+03  0.41800000000E+01 0. -1.
         -5    1    3    3    0  502  0.16702328549E+02  0.29625787208E+02  0.36631478190E+03  0.36791391233E+03  0.41800000000E+01 0. -1.
        -11    1    1    2    0    0 -0.41489120141E+02 -0.10184778503E+03  0.35398830335E+03  0.37067780796E+03  0.00000000000E+00 0. -1.
         11    1    1    2    0    0 -0.50322415568E+02 -0.11118397986E+02  0.71548545859E+02  0.88176860326E+02  0.00000000000E+00 0.  1.
</event>
<event>
 7    1  0.2943257E-009  0.1052249E+03  0.7561462E-02  0.1269677E+00
          1   -1    0    0  501    0  0.00000000000E+00  0.00000000000E+00  0.14186296077E+03  0.14186296077E+03  0.00000000000E+00 0. -1.
         -1   -1    0    0    0  501 -0.00000000000E+00 -0.00000000000E+00 -0.92125474736E+02  0.92125474736E+02  0.00000000000E+00 0.  1.
         25    2    1    2    0    0  0.23900974438E+02  0.16357242342E+02  0.49079027970E+02  0.13745825380E+03  0.12508878685E+03 0.  0.
          5    1    3    3  502    0 -0.42360270124E+02 -0.16261168082E+02 -0.49797615869E+01  0.45837631896E+02  0.41800000000E+01 0.  1.
         -5    1    3    3    0  502  0.66261244562E+02  0.32618410424E+02  0.54058789557E+02  0.91620621902E+02  0.41800000000E+01 0.  1.
        -11    1    1    2    0    0 -0.47350120632E+02  0.16849743555E+02  0.16504192415E+02  0.52899301971E+02  0.00000000000E+00 0. -1.
         11    1    1    2    0    0  0.23449146195E+02 -0.33206985896E+02 -0.15845734350E+02  0.43630879738E+02  0.00000000000E+00 0.  1.
</event>
<event>
 7    1  0.2943257E-009  0.8497084E+02  0.7561462E-02  0.1315509E+00
          2   -1    0    0  501    0  0.00000000000E+00  0.00000000000E+00  0.39545520951E+03  0.39545520951E+03  0.00000000000E+00 0. -1.
         -2   -1    0    0    0  501 -0.00000000000E+00 -0.00000000000E+00 -0.35832109237E+02  0.35832109237E+02  0.00000000000E+00 0.  1.
         25    2    1    2    0    0 -0.36280512802E+02 -0.14106883237E+02  0.25777220270E+03  0.28915085516E+03  0.12508568579E+03 0.  0.
          5    1    3    3  502    0  0.19619694185E+02  0.39572120325E+01  0.21595313431E+03  0.21691892621E+03  0.41800000000E+01 0. -1.
         -5    1    3    3    0  502 -0.55900206987E+02 -0.18064095269E+02  0.41819068391E+02  0.72231928953E+02  0.41800000000E+01 0. -1.
        -11    1    1    2    0    0 -0.25801089251E+02 -0.35797569594E+01  0.59445353115E+02  0.64901932740E+02  0.00000000000E+00 0. -1.
         11    1    1    2    0    0  0.62081602053E+02  0.17686640196E+02  0.42405544457E+02  0.77234530850E+02  0.00000000000E+00 0.  1.
</event>
<event>
 7    1  0.2943257E-009  0.1665840E+03  0.7561462E-02  0.1181458E+00
          1   -1    0    0  501    0  0.00000000000E+00  0.00000000000E+00  0.40855388929E+03  0.40855388929E+03  0.00000000000E+00 0. -1.
         -1   -1    0    0    0  501 -0.00000000000E+00 -0.00000000000E+00 -0.69697378248E+02  0.69697378248E+02  0.00000000000E+00 0.  1.
         25    2    1    2    0    0 -0.13382951100E+03 -0.47827640583E+02  0.17019203462E+03  0.25457916582E+03  0.12508957511E+03 0.  0.
          5    1    3    3  502    0  0.19249771557E+02 -0.24380283755E+02  0.13173117898E+02  0.33999343760E+02  0.41800000000E+01 0.  1.
         -5    1    3    3    0  502 -0.15307928256E+03 -0.23447356828E+02  0.15701891672E+03  0.22057982206E+03  0.41800000000E+01 0.  1.
        -11    1    1    2    0    0  0.10468250599E+03  0.19941574815E+02  0.12300234921E+03  0.16274419000E+03  0.00000000000E+00 0.  1.
         11    1    1    2    0    0  0.29147005008E+02  0.27886065768E+02  0.45662127215E+02  0.60927911722E+02  0.00000000000E+00 0. -1.
</event>
<event>
 7    1  0.2943257E-009  0.1937273E+03  0.7561462E-02  0.1155142E+00
          2   -1    0    0  501    0  0.00000000000E+00  0.00000000000E+00  0.36648199939E+03  0.36648199939E+03  0.00000000000E+00 0. -1.
         -2   -1    0    0    0  501 -0.00000000000E+00 -0.00000000000E+00 -0.10393197485E+03  0.10393197485E+03  0.00000000000E+00 0.  1.
         25    2    1    2    0    0  0.13709187436E+03 -0.80462408282E+02  0.15038457465E+03  0.25205531109E+03  0.12509187981E+03 0.  0.
          5    1    3    3  502    0 -0.22523809916E+02 -0.21461500831E+02  0.16331662941E+02  0.35385217895E+02  0.41800000000E+01 0. -1.
         -5    1    3    3    0  502  0.15961568428E+03 -0.59000907451E+02  0.13405291171E+03  0.21667009320E+03  0.41800000000E+01 0. -1.
        -11    1    1    2    0    0 -0.61956324531E+02  0.90876703640E+02  0.52627556250E+02  0.12192957431E+03  0.00000000000E+00 0. -1.
         11    1    1    2    0    0 -0.75135549831E+02 -0.10414295359E+02  0.59537893642E+02  0.96429088845E+02  0.00000000000E+00 0.  1.
</event>
<event>
 7    1  0.2943257E-009  0.1188689E+03  0.7561462E-02  0.1244975E+00
          1   -1    0    0  501    0  0.00000000000E+00  0.00000000000E+00  0.27121807645E+03  0.27121807645E+03  0.00000000000E+00 0. -1.
         -1   -1    0    0    0  501 -0.00000000000E+00 -0.00000000000E+00 -0.93466171268E+02  0.93466171268E+02  0.00000000000E+00 0.  1.
         25    2    1    2    0    0  0.49818566660E+02  0.44096628226E+02 -0.13470020518E+02  0.14232125007E+03  0.12508994590E+03 0.  0.
          5    1    3    3  502    0 -0.18942187213E+02 -0.21621663614E+02 -0.34212593297E+02  0.44880694446E+02  0.41800000000E+01 0.  1.
         -5    1    3    3    0  502  0.68760753873E+02  0.65718291839E+02  0.20742572779E+02  0.97440555627E+02  0.41800000000E+01 0.  1.
        -11    1    1    2    0    0  0.25000143981E+02  0.28389756539E+01  0.41544518193E+02  0.48569681631E+02  0.00000000000E+00 0.  1.
         11    1    1    2    0    0 -0.74818710641E+02 -0.46935603879E+02  0.14967740751E+03  0.17379331602E+03  0.00000000000E+00 0. -1.
</event>
<event>
 7    1  0.2981320E-009  0.1121190E+03  0.7561462E-02  0.1256695E+00
          2   -1    0    0  501    0  0.00000000000E+00  0.00000000000E+00  0.55183855412E+03  0.55183855412E+03  0.00000000000E+00 0.  1.
         -2   -1    0    0    0  501 -0.00000000000E+00 -0.00000000000E+00 -0.36727241459E+02  0.36727241459E+02  0.00000000000E+00 0. -1.
         25    2    1    2    0    0  0.66960753422E+02 -0.27131909827E+02  0.16257581963E+03  0.21748069130E+03  0.12508825257E+03 0.  0.
          5    1    3    3  502    0  0.93958092280E+02  0.12563613429E+02  0.93127136793E+02  0.13295150806E+03  0.41800000000E+01 0. -1.
         -5    1    3    3    0  502 -0.26997338858E+02 -0.39695523256E+02  0.69448682833E+02  0.84529183240E+02  0.41800000000E+01 0. -1.
        -11    1    1    2    0    0 -0.65596993667E+02  0.12883553098E+02  0.35027147009E+03  0.35659368233E+03  0.00000000000E+00 0.  1.
         11    1    1    2    0    0 -0.13637597553E+01  0.14248356729E+02  0.22640229384E+01  0.14491421946E+02  0.00000000000E+00 0. -1.
</event>
<event>
 7    1  0.2943257E-009  0.1495585E+03  0.7561462E-02  0.1201017E+00
         -1   -1    0    0    0  501 -0.00000000000E+00  0.00000000000E+00  0.73251416241E+02  0.73251416241E+02  0.00000000000E+00 0.  1.
          1   -1    0    0  501    0  0.00000000000E+00 -0.00000000000E+00 -0.40955598049E+03  0.40955598049E+03  0.00000000000E+00 0. -1.
         25    2    1    2    0    0 -0.70595602687E+02 -0.11335593039E+03 -0.15658850685E+03  0.24083227648E+03  0.12508764464E+03 0.  0.
          5    1    3    3  502    0 -0.39271237942E+02 -0.24557934222E+02  0.11692660732E+02  0.47953237406E+02  0.41800000000E+01 0.  1.
         -5    1    3    3    0  502 -0.31324364745E+02 -0.88797996165E+02 -0.16828116758E+03  0.19287903907E+03  0.41800000000E+01 0.  1.
        -11    1    1    2    0    0  0.89866941745E+02  0.82589706584E+02 -0.15807083454E+03  0.19970857664E+03  0.00000000000E+00 0.  1.
         11    1    1    2    0    0 -0.19271339059E+02  0.30766223803E+02 -0.21645222853E+02  0.42266543608E+02  0.00000000000E+00 0. -1.
</event>
<event>
 7    1  0.2943257E-009  0.1520165E+03  0.7561462E-02  0.1198017E+00
         -1   -1    0    0    0  501 -0.00000000000E+00  0.00000000000E+00  0.12862316070E+03  0.12862316070E+03  0.00000000000E+00 0.  1.
          1   -1    0    0  501    0  0.00000000000E+00 -0.00000000000E+00 -0.28773299958E+03  0.28773299958E+03  0.00000000000E+00 0. -1.
         25    2    1    2    0    0 -0.17280972304E+02  0.12377955826E+03  0.12137395621E+02  0.17724119958E+03  0.12508843036E+03 0.  0.
          5    1    3    3  502    0  0.21673624776E+02  0.71238355518E+02 -0.47671200682E+02  0.88513643481E+02  0.41800000000E+01 0. -1.
         -5    1    3    3    0  502 -0.38954597080E+02  0.52541202742E+02  0.59808596303E+02  0.88727556097E+02  0.41800000000E+01 0. -1.
        -11    1    1    2    0    0  0.18183988481E+02  0.15945560820E+02 -0.11191278385E+02  0.26648884758E+02  0.00000000000E+00 0.  1.
         11    1    1    2    0    0 -0.90301617733E+00 -0.13972511908E+03 -0.16005595612E+03  0.21246607595E+03  0.00000000000E+00 0. -1.
</event>
<event>
 7    1  0.2943257E-009  0.2532304E+03  0.7561462E-02  0.1111280E+00
         -2   -1    0    0    0  501 -0.00000000000E+00  0.00000000000E+00  0.11767363209E+03  0.11767363209E+03  0.00000000000E+00 0.  1.
          2   -1    0    0  501    0  0.00000000000E+00 -0.00000000000E+00 -0.66105682705E+03  0.66105682705E+03  0.00000000000E+00 0. -1.
         25    2    1    2    0    0  0.16291482960E+03 -0.19175315886E+03 -0.21082173584E+03  0.35128868931E+03  0.12508966103E+03 0.  0.
          5    1    3    3  502    0  0.77672256336E+01 -0.26945519437E+02  0.14533005183E+02  0.31860185992E+02  0.41800000000E+01 0.  1.
         -5    1    3    3    0  502  0.15514760397E+03 -0.16480763943E+03 -0.22535474102E+03  0.31942850331E+03  0.41800000000E+01 0.  1.
        -11    1    1    2    0    0 -0.88374772774E+02  0.10968004181E+03 -0.25764386232E+03  0.29363271586E+03  0.00000000000E+00 0.  1.
         11    1    1    2    0    0 -0.74540056826E+02  0.82073117051E+02 -0.74917596806E+02  0.13380905397E+03  0.00000000000E+00 0. -1.
</event>
<event>
 7    1  0.3122291E-009  0.1211400E+03  0.7561462E-02  0.1241228E+00
          1   -1    0    0  501    0  0.00000000000E+00  0.00000000000E+00  0.14111250006E+03  0.14111250006E+03  0.00000000000E+00 0. -1.
         -1   -1    0    0    0  501 -0.00000000000E+00 -0.00000000000E+00 -0.16695189209E+03  0.16695189209E+03  0.00000000000E+00 0.  1.
         25    2    1    2    0    0 -0.10075707429E+03  0.68712788774E+01 -0.53493158816E+02  0.16943538818E+03  0.12509048819E+03 0.  0.
          5    1    3    3  502    0 -0.51856988816E+02 -0.37112373985E+02  0.23498943039E+02  0.68089267258E+02  0.41800000000E+01 0. -1.
         -5    1    3    3    0  502 -0.48900085471E+02  0.43983652862E+02 -0.76992101855E+02  0.10134612092E+03  0.41800000000E+01 0. -1.
        -11    1    1    2    0    0  0.51958843685E+02 -0.28310157998E+02 -0.24513906615E+02  0.64047779825E+02  0.00000000000E+00 0.  1.
         11    1    1    2    0    0  0.48798230601E+02  0.21438879120E+02  0.52167673393E+02  0.74581224145E+02  0.00000000000E+00 0. -1.
</event>
<event>
 6    1  0.2943257E-009  0.1530670E+03  0.7561462E-02  0.1196754E+00
         -1   -1    0    0    0  501 -0.00000000000E+00  0.00000000000E+00  0.96641985361E+02  0.96641985361E+02  0.00000000000E+00 0.  1.
          1   -1    0    0  501    0  0.00000000000E+00 -0.00000000000E+00 -0.37792231952E+03  0.37792231952E+03  0.00000000000E+00 0. -1.
          5    1    1    2  502    0 -0.59875072750E+02  0.14756580211E+02  0.25343452550E+02  0.66802275287E+02  0.41800000000E+01 0. -1.
         -5    1    1    2    0  502 -0.84558375908E+02 -0.44274198855E+02 -0.10667684981E+03  0.14320525936E+03  0.41800000000E+01 0. -1.
        -11    1    1    2    0    0  0.97892595812E+02  0.29515467749E+02 -0.63424884799E+02  0.12031973721E+03  0.00000000000E+00 0.  1.
         11    1    1    2    0    0  0.46540852846E+02  0.21508954802E-02 -0.13652205210E+03  0.14423703303E+03  0.00000000000E+00 0. -1.
</event>
<event>
 7    1  0.2943257E-009  0.1400096E+03  0.7561462E-02  0.1213316E+00
          1   -1    0    0  501    0  0.00000000000E+00  0.00000000000E+00  0.65293152872E+03  0.65293152872E+03  0.00000000000E+00 0. -1.
         -1   -1    0    0    0  501 -0.00000000000E+00 -0.00000000000E+00 -0.45697627683E+02  0.45697627683E+02  0.00000000000E+00 0.  1.
         25    2    1    2    0    0 -0.93309290127E+02 -0.82931595067E+02  0.22074939172E+03  0.28277636203E+03  0.12509158203E+03 0.  0.
          5    1    3    3  502    0 -0.54042850148E+02 -0.24719936317E+02  0.97585166043E+01  0.60368915428E+02  0.41800000000E+01 0.  1.
         -5    1    3    3    0  502 -0.39266439978E+02 -0.58211658750E+02  0.21099087511E+03  0.22240744660E+03  0.41800000000E+01 0.  1.
        -11    1    1    2    0    0  0.53286413948E+02 -0.49708610762E+01  0.98451821622E+02  0.11205763049E+03  0.00000000000E+00 0.  1.
         11    1    1    2    0    0  0.40022876179E+02  0.87902456143E+02  0.28803268769E+03  0.30379516387E+03  0.00000000000E+00 0. -1.
</event>
<event>
 7    1  0.2943257E-009  0.7282202E+02  0.7561462E-02  0.1350751E+00
         -4   -1    0    0    0  501 -0.00000000000E+00  0.00000000000E+00  0.21715266758E+03  0.21715266758E+03  0.00000000000E+00 0. -1.
          4   -1    0    0  501    0  0.00000000000E+00 -0.00000000000E+00 -0.78049603683E+02  0.78049603683E+02  0.00000000000E+00 0.  1.
         25    2    1    2    0    0 -0.36137388936E+02 -0.66126967134E+01  0.87789392587E+01  0.13066939552E+03  0.12509109686E+03 0.  0.
          5    1    3    3  502    0 -0.38951015930E+02  0.97710469887E+01 -0.52960090595E+02  0.66595034327E+02  0.41800000000E+01 0.  1.
         -5    1    3    3    0  502  0.28136269937E+01 -0.16383743702E+02  0.61739029853E+02  0.64074361189E+02  0.41800000000E+01 0.  1.
        -11    1    1    2    0    0  0.14350308447E+02  0.43213324224E+02  0.27397287768E+02  0.53140701162E+02  0.00000000000E+00 0.  1.
         11    1    1    2    0    0  0.21787080490E+02 -0.36600627511E+02  0.10292683687E+03  0.11139217459E+03  0.00000000000E+00 0. -1.
</event>
<event>
 7    1  0.2943257E-009  0.9726789E+02  0.7561462E-02  0.1286148E+00
         -2   -1    0    0    0  501 -0.00000000000E+00  0.00000000000E+00  0.12250658169E+03  0.12250658169E+03  0.00000000000E+00 0.  1.
          2   -1    0    0  501    0  0.00000000000E+00 -0.00000000000E+00 -0.28513265828E+03  0.28513265828E+03  0.00000000000E+00 0. -1.
         25    2    1    2    0    0 -0.62852288658E+02 -0.32499624058E+02 -0.23137424692E+03  0.27237387348E+03  0.12508736571E+03 0.  0.
          5    1    3    3  502    0 -0.62743760026E+02 -0.49839370912E+02 -0.60296339476E+02  0.10036863688E+03  0.41800000000E+01 0. -1.
         -5    1    3    3    0  502 -0.10852863142E+00  0.17339746854E+02 -0.17107790745E+03  0.17200523660E+03  0.41800000000E+01 0. -1.
        -11    1    1    2    0    0  0.67759766914E+02  0.46131244158E+02  0.19954554127E+02  0.84366236910E+02  0.00000000000E+00 0. -1.
         11    1    1    2    0    0 -0.49074782567E+01 -0.13631620100E+02  0.48793616207E+02  0.50899129580E+02  0.00000000000E+00 0.  1.
</event>
<event>
 7    1  0.2943257E-009  0.8400912E+02  0.7561462E-02  0.1318044E+00
         -1   -1    0    0    0  501 -0.00000000000E+00  0.00000000000E+00  0.30153823194E+03  0.30153823194E+03  0.00000000000E+00 0.  1.
          1   -1    0    0  501    0  0.00000000000E+00 -0.00000000000E+00 -0.44632329499E+02  0.44632329499E+02  0.00000000000E+00 0. -1.
         25    2    1    2    0    0  0.33179760769E+01 -0.36433989399E+02  0.10750393076E+03  0.16894839003E+03  0.12509204138E+03 0.  0.
          5    1    3    3  502    0 -0.21302771903E+02 -0.61167500142E+02  0.11587706264E+03  0.13281655473E+03  0.41800000000E+01 0. -1.
         -5    1    3    3    0  502  0.24620747980E+02  0.24733510743E+02 -0.83731318785E+01  0.36131835301E+02  0.41800000000E+01 0. -1.
        -11    1    1    2    0    0 -0.27374340253E+02  0.41254944604E+01  0.12925035128E+03  0.13218179722E+03  0.00000000000E+00 0.  1.
         11    1    1    2    0    0  0.24056364176E+02  0.32308494939E+02  0.20151620396E+02  0.45040374190E+02  0.00000000000E+00 0. -1.
</event>
<event>
 7    1  0.2943257E-009  0.7436763E+02  0.7561462E-02  0.1345841E+00
          1   -1    0    0  501    0  0.00000000000E+00  0.00000000000E+00  0.15924836101E+04  0.15924836101E+04  0.00000000000E+00 0. -1.
         -1   -1    0    0    0  501 -0.00000000000E+00 -0.00000000000E+00 -0.11413903363E+02  0.11413903363E+02  0.00000000000E+00 0.  1.
         25    2    1    2    0    0 -0.28146144917E+02 -0.21876170520E+02  0.12827670929E+04  0.12893446296E+04  0.12508951590E+03 0.  0.
          5    1    3    3  502    0  0.14214144904E+02 -0.25759228716E+01  0.11173633331E+04  0.11174645264E+04  0.41800000000E+01 0.  1.
         -5    1    3    3    0  502 -0.42360289821E+02 -0.19300247648E+02  0.16540375981E+03  0.17188010319E+03  0.41800000000E+01 0.  1.
        -11    1    1    2    0    0 -0.24639420707E+02  0.23638248627E+02  0.20063426829E+03  0.20351898551E+03  0.00000000000E+00 0. -1.
         11    1    1    2    0    0  0.52785565624E+02 -0.17620781077E+01  0.97668345542E+02  0.11103389833E+03  0.00000000000E+00 0.  1.
</event>
<event>
 7    1  0.2943257E-009  0.1693481E+03  0.7561462E-02  0.1178529E+00
         -4   -1    0    0    0  501 -0.00000000000E+00  0.00000000000E+00  0.36210824796E+03  0.36210824796E+03  0.00000000000E+00 0.  1.
          4   -1    0    0  501    0  0.00000000000E+00 -0.00000000000E+00 -0.94146048628E+02  0.94146048628E+02  0.00000000000E+00 0. -1.
         25    2    1    2    0    0  0.12871054474E+03 -0.75615544860E+02  0.14530622850E+03  0.24299429869E+03  0.12509282235E+03 0.  0.
          5    1    3    3  502    0  0.16272554232E+02  0.23840363307E+02 -0.60438813955E+01  0.29785228658E+02  0.41800000000E+01 0. -1.
         -5    1    3    3    0  502  0.11243799051E+03 -0.99455908167E+02  0.15135010990E+03  0.21320907003E+03  0.41800000000E+01 0. -1.
        -11    1    1    2    0    0 -0.10037965600E+03  0.28439594890E+02  0.35537406694E+02  0.11021702759E+03  0.00000000000E+00 0.  1.
         11    1    1    2    0    0 -0.28330888748E+02  0.47175949970E+02  0.87118564139E+02  0.10304297031E+03  0.00000000000E+00 0. -1.
</event>
<event>
 7    1  0.2943257E-009  0.1277054E+03  0.7561462E-02  0.1230901E+00
         -1   -1    0    0    0  501 -0.00000000000E+00  0.00000000000E+00  0.37587602018E+02  0.37587602018E+02  0.00000000000E+00 0.  1.
          1   -1    0    0  501    0  0.00000000000E+00 -0.00000000000E+00 -0.70199708271E+03  0.70199708271E+03  0.00000000000E+00 0. -1.
         25    2    1    2    0    0 -0.24847148680E+02  0.11745936400E+03 -0.35843044643E+03  0.39816225708E+03  0.12508683004E+03 0.  0.
          5    1    3    3  502    0 -0.13420613541E+02  0.91956640281E+02 -0.94077274284E+02  0.13230322179E+03  0.41800000000E+01 0. -1.
         -5    1    3    3    0  502 -0.11426535139E+02  0.25502723715E+02 -0.26435317215E+03  0.26585903529E+03  0.41800000000E+01 0. -1.
        -11    1    1    2    0    0 -0.13463696100E+02 -0.77918730000E+02 -0.25279579045E+03  0.26487414232E+03  0.00000000000E+00 0.  1.
         11    1    1    2    0    0  0.38310844780E+02 -0.39540633996E+02 -0.53183243803E+02  0.76548285324E+02  0.00000000000E+00 0. -1.
</event>
<event>
 7    1  0.2943257E-009  0.1004262E+03  0.7561462E-02  0.1279402E+00
         -1   -1    0    0    0  501 -0.00000000000E+00  0.00000000000E+00  0.29959080918E+02  0.29959080918E+02  0.00000000000E+00 0.  1.
          1   -1    0    0  501    0  0.00000000000E+00 -0.00000000000E+00 -0.44096546608E+03  0.44096546608E+03  0.00000000000E+00 0. -1.
         25    2    1    2    0    0 -0.44204457617E+02  0.18301196147E+02 -0.26653259867E+03  0.29828888945E+03  0.12509063738E+03 0.  0.
          5    1    3    3  502    0 -0.15463932415E+02 -0.39967550258E+02 -0.20229755206E+03  0.20682918133E+03  0.41800000000E+01 0.  1.
         -5    1    3    3    0  502 -0.28740525203E+02  0.58268746404E+02 -0.64235046613E+02  0.91459708123E+02  0.41800000000E+01 0.  1.
        -11    1    1    2    0    0 -0.23219484193E+02 -0.75287219031E+01 -0.54246150442E+02  0.59485048017E+02  0.00000000000E+00 0. -1.
         11    1    1    2    0    0  0.67423941811E+02 -0.10772474244E+02 -0.90227636050E+02  0.11315060953E+03  0.00000000000E+00 0.  1.
</event>
<event>
 7    1  0.2943257E-009  0.4961101E+02  0.7561462E-02  0.1447451E+00
          2   -1    0    0  501    0  0.00000000000E+00  0.00000000000E+00  0.18474576107E+03  0.18474576107E+03  0.00000000000E+00 0. -1.
         -2   -1    0    0    0  501 -0.00000000000E+00 -0.00000000000E+00 -0.91491191953E+02  0.91491191953E+02  0.00000000000E+00 0.  1.
         25    2    1    2    0    0  0.56204182371E+01  0.19202587951E+02 -0.20614974376E+02  0.12835210807E+03  0.12509579527E+03 0.  0.
          5    1    3    3  502    0  0.24897726271E+02  0.42493498029E+01  0.48552663176E+02  0.54888862702E+02  0.41800000000E+01 0. -1.
         -5    1    3    3    0  502 -0.19277308034E+02  0.14953238148E+02 -0.69167637553E+02  0.73463245373E+02  0.41800000000E+01 0. -1.
        -11    1    1    2    0    0 -0.20576473203E+02 -0.25391621366E+02  0.12436911765E+03  0.12859161369E+03  0.00000000000E+00 0. -1.
         11    1    1    2    0    0  0.14956054966E+02  0.61890334150E+01 -0.10499574162E+02  0.19293231257E+02  0.00000000000E+00 0.  1.
</event>
<event>
 7    1  0.2943257E-009  0.1660838E+03  0.7561462E-02  0.1181994E+00
          3   -1    0    0  501    0  0.00000000000E+00  0.00000000000E+00  0.60316691963E+02  0.60316691963E+02  0.00000000000E+00 0. -1.
         -3   -1    0    0    0  501 -0.00000000000E+00 -0.00000000000E+00 -0.57187463210E+03  0.57187463210E+03  0.00000000000E+00 0.  1.
         25    2    1    2    0    0 -0.13395248228E+03  0.67883657750E+02 -0.28100625285E+03  0.34229138913E+03  0.12508965757E+03 0.  0.
          5    1    3    3  502    0 -0.11651265085E+03  0.29582380768E+02 -0.10003520715E+03  0.15644433556E+03  0.41800000000E+01 0.  1.
         -5    1    3    3    0  502 -0.17439831438E+02  0.38301276982E+02 -0.18097104569E+03  0.18584705357E+03  0.41800000000E+01 0.  1.
        -11    1    1    2    0    0  0.75120316838E+01 -0.39235678862E+02 -0.25801628520E+02  0.47556210426E+02  0.00000000000E+00 0. -1.
         11    1    1    2    0    0  0.12644045060E+03 -0.28647978888E+02 -0.20475005877E+03  0.24234372451E+03  0.00000000000E+00 0.  1.
</event>
<event>
 7    1  0.2943257E-009  0.1080538E+03  0.7561462E-02  0.1264217E+00
          2   -1    0    0  501    0  0.00000000000E+00  0.00000000000E+00  0.18156816439E+03  0.18156816439E+03  0.00000000000E+00 0. -1.
         -2   -1    0    0    0  501 -0.00000000000E+00 -0.00000000000E+00 -0.67090598261E+02  0.67090598261E+02  0.00000000000E+00 0.  1.
         25    2    1    2    0    0  0.19712538550E+02 -0.13663913465E+02  0.68321001145E+02  0.14453473297E+03  0.12508894087E+03 0.  0.
          5    1    3    3  502    0  0.77530513413E+01  0.54799832034E+02  0.43845277303E+02  0.70731973942E+02  0.41800000000E+01 0.  1.
         -5    1    3    3    0  502  0.11959487208E+02 -0.68463745498E+02  0.24475723842E+02  0.73802759024E+02  0.41800000000E+01 0.  1.
        -11    1    1    2    0    0  0.20781237051E+02  0.38303284043E+02  0.10541930734E+02  0.44834514444E+02  0.00000000000E+00 0.  1.
         11    1    1    2    0    0 -0.40493775601E+02 -0.24639370578E+02  0.35614634252E+02  0.59289515243E+02  0.00000000000E+00 0. -1.
</event>
<event>
 7    1  0.2943257E-009  0.1022526E+03  0.7561462E-02  0.1275629E+00
          1   -1    0    0  501    0  0.00000000000E+00  0.00000000000E+00  0.12197152882E+03  0.12197152882E+03  0.00000000000E+00 0. -1.
         -1   -1    0    0    0  501 -0.00000000000E+00 -0.00000000000E+00 -0.13770437263E+03  0.13770437263E+03  0.00000000000E+00 0.  1.
         25    2    1    2    0    0 -0.11754642284E+02 -0.59541394538E+02 -0.41835271202E+02  0.14519161022E+03  0.12508822679E+03 0.  0.
          5    1    3    3  502    0  0.30351695463E+02 -0.14360490728E+02  0.33548935771E+02  0.47649266550E+02  0.41800000000E+01 0. -1.
         -5    1    3    3    0  502 -0.42106337746E+02 -0.45180903809E+02 -0.75384206973E+02  0.97542343669E+02  0.41800000000E+01 0. -1.
        -11    1    1    2    0    0  0.46073254081E+02  0.78744562028E+01 -0.11025006409E+01  0.46754329316E+02  0.00000000000E+00 0. -1.
         11    1    1    2    0    0 -0.34318611798E+02  0.51666938335E+02  0.27204928028E+02  0.67729961920E+02  0.00000000000E+00 0.  1.
</event>
<event>
 7    1  0.2943257E-009  0.1157395E+03  0.7561462E-02  0.1250296E+00
          2   -1    0    0  501    0  0.00000000000E+00  0.00000000000E+00  0.39393670481E+03  0.39393670481E+03  0.00000000000E+00 0.  1.
         -2   -1    0    0    0  501 -0.00000000000E+00 -0.00000000000E+00 -0.66305981203E+02  0.66305981203E+02  0.00000000000E+00 0. -1.
         25    2    1    2    0    0  0.27837677499E+02 -0.40078438986E+02  0.20505982474E+02  0.13583576617E+03  0.12509853114E+03 0.  0.
          5    1    3    3  502    0  0.35230426915E+02  0.36122542196E+02 -0.12827350495E+02  0.52230588318E+02  0.41800000000E+01 0. -1.
         -5    1    3    3    0  502 -0.73927494157E+01 -0.76200981182E+02  0.33333332970E+02  0.83605177853E+02  0.41800000000E+01 0. -1.
        -11    1    1    2    0    0 -0.30643035523E+02 -0.24686305449E+02  0.10438962652E+03  0.11155986477E+03  0.00000000000E+00 0.  1.
         11    1    1    2    0    0  0.28053580238E+01  0.64764744435E+02  0.20273511461E+03  0.21284705507E+03  0.00000000000E+00 0. -1.
</event>
<event>
 7    1  0.2943257E-009  0.8020439E+02  0.7561462E-02  0.1328472E+00
         -2   -1    0    0    0  501 -0.00000000000E+00  0.00000000000E+00  0.30836967837E+02  0.30836967837E+02  0.00000000000E+00 0. -1.
          2   -1    0    0  501    0  0.00000000000E+00 -0.00000000000E+00 -0.56705293537E+03  0.56705293537E+03  0.00000000000E+00 0.  1.
         25    2    1    2    0    0  0.33237811710E+01 -0.51105143518E+02 -0.41507778986E+03  0.43653664179E+03  0.12510749289E+03 0.  0.
          5    1    3    3  502    0 -0.18664110701E+02  0.19514215282E+02 -0.28912214885E+03  0.29041047327E+03  0.41800000000E+01 0.  1.
         -5    1    3    3    0  502  0.21987891872E+02 -0.70619358800E+02 -0.12595564100E+03  0.14612616852E+03  0.41800000000E+01 0.  1.
        -11    1    1    2    0    0  0.12481294608E+02  0.31077377245E+02 -0.13007747308E+03  0.13431952611E+03  0.00000000000E+00 0.  1.
         11    1    1    2    0    0 -0.15805075779E+02  0.20027766273E+02  0.89392954054E+01  0.27033735306E+02  0.00000000000E+00 0. -1.
</event>
<event>
 7    1  0.2943257E-009  0.8487201E+02  0.7561462E-02  0.1315768E+00
         -1   -1    0    0    0  501 -0.00000000000E+00  0.00000000000E+00  0.11921759752E+03  0.11921759752E+03  0.00000000000E+00 0.  1.
          1   -1    0    0  501    0  0.00000000000E+00 -0.00000000000E+00 -0.13456339385E+03  0.13456339385E+03  0.00000000000E+00 0. -1.
         25    2    1    2    0    0 -0.48668594206E+02 -0.44329834801E+02 -0.11873789402E+02  0.14185098444E+03  0.12508776358E+03 0.  0.
          5    1    3    3  502    0 -0.43190695243E+02  0.12927062220E+02  0.42857516952E+02  0.62344079531E+02  0.41800000000E+01 0.  1.
         -5    1    3    3    0  502 -0.54778989632E+01 -0.57256897021E+02 -0.54731306354E+02  0.79506904912E+02  0.41800000000E+01 0.  1.
        -11    1    1    2    0    0  0.78478942575E+01  0.13601682606E+02  0.41181328067E+02  0.44073767656E+02  0.00000000000E+00 0.  1.
         11    1    1    2    0    0  0.40820699949E+02  0.30728152195E+02 -0.44653334996E+02  0.67856239270E+02  0.00000000000E+00 0. -1.
</event>
<event>
 7    1  0.2943257E-009  0.1094778E+03  0.7561462E-02  0.1261540E+00
          2   -1    0    0  501    0  0.00000000000E+00  0.00000000000E+00  0.66859690088E+03  0.66859690088E+03  0.00000000000E+00 0. -1.
         -2   -1    0    0    0  501 -0.00000000000E+00 -0.00000000000E+00 -0.23846717379E+02  0.23846717379E+02  0.00000000000E+00 0.  1.
         25    2    1    2    0    0 -0.18187056529E+02 -0.49447776117E+02  0.36197446672E+03  0.38658148384E+03  0.12507548721E+03 0.  0.
          5    1    3    3  502    0  0.30451237423E+02 -0.74471146741E+02  0.20264324438E+03  0.21807105826E+03  0.41800000000E+01 0.  1.
         -5    1    3    3    0  502 -0.48638293951E+02  0.25023370623E+02  0.15933122234E+03  0.16851042558E+03  0.41800000000E+01 0.  1.
        -11    1    1    2    0    0  0.22227825752E+02 -0.96968093544E+01  0.92005121552E+01  0.25937497436E+02  0.00000000000E+00 0.  1.
         11    1    1    2    0    0 -0.40407692232E+01  0.59144585472E+02  0.27357520463E+03  0.27992463699E+03  0.00000000000E+00 0. -1.
</event>
<event>
 7    1  0.2943257E-009  0.8760419E+02  0.7561462E-02  0.1308759E+00
          2   -1    0    0  501    0  0.00000000000E+00  0.00000000000E+00  0.13294899879E+04  0.13294899879E+04  0.00000000000E+00 0. -1.
         -2   -1    0    0    0  501 -0.00000000000E+00 -0.00000000000E+00 -0.14897045648E+02  0.14897045648E+02  0.00000000000E+00 0.  1.
         25    2    1    2    0    0  0.56636363656E+02  0.13194744337E+02  0.10424475984E+04  0.10515346918E+04  0.12508570512E+03 0.  0.
          5    1    3    3  502    0  0.29233919765E+02  0.23228993593E+02  0.99477007495E+03  0.99547937328E+03  0.41800000000E+01 0.  1.
         -5    1    3    3    0  502  0.27402443891E+02 -0.10034249256E+02  0.47677523462E+02  0.56055318506E+02  0.41800000000E+01 0.  1.
        -11    1    1    2    0    0 -0.18465563468E+02  0.39200202886E+02  0.11071888384E+03  0.11889619077E+03  0.00000000000E+00 0.  1.
         11    1    1    2    0    0 -0.38170800188E+02 -0.52394947223E+02  0.16142646004E+03  0.17395615103E+03  0.00000000000E+00 0. -1.
</event>
<event>
 6    1  0.3429160E-009  0.1429940E+03  0.7561462E-02  0.1209356E+00
          2   -1    0    0  501    0  0.00000000000E+00  0.00000000000E+00  0.54075494224E+03  0.54075494224E+03  0.00000000000E+00 0. -1.
         -2   -1    0    0    0  501 -0.00000000000E+00 -0.00000000000E+00 -0.50231734498E+02  0.50231734498E+02  0.00000000000E+00 0.  1.
          5    1    1    2  502    0  0.30464118385E+02  0.50223754847E+01  0.16886126390E+00  0.31157465856E+02  0.41800000000E+01 0.  1.
         -5    1    1    2    0  502 -0.23706025188E+02 -0.11773019135E+03  0.17106133205E+03  0.20904981537E+03  0.41800000000E+01 0.  1.
        -11    1    1    2    0    0  0.21358875886E+02  0.10257945983E+03  0.17964145731E+03  0.20796586341E+03  0.00000000000E+00 0.  1.
         11    1    1    2    0    0 -0.28116969082E+02  0.10128356030E+02  0.13965155712E+03  0.14281353211E+03  0.00000000000E+00 0. -1.
</event>
<event>
 7    1  0.3247234E-009  0.9828139E+02  0.7561462E-02  0.1283952E+00
         -3   -1    0    0    0  501 -0.00000000000E+00  0.00000000000E+00  0.45407459456E+02  0.45407459456E+02  0.00000000000E+00 0.  1.
          3   -1    0    0  501    0  0.00000000000E+00 -0.00000000000E+00 -0.31820721325E+03  0.31820721325E+03  0.00000000000E+00 0. -1.
         25    2    1    2    0    0  0.27169686493E+02  0.67876053116E+01 -0.21809637084E+03  0.25297733419E+03  0.12508893314E+03 0.  0.
          5    1    3    3  502    0  0.43306054608E+02 -0.34743817663E+02 -0.19464814101E+03  0.20245473180E+03  0.41800000000E+01 0.  1.
         -5    1    3    3    0  502 -0.16136368114E+02  0.41531422974E+02 -0.23448229827E+02  0.50522602389E+02  0.41800000000E+01 0.  1.
        -11    1    1    2    0    0 -0.61503249510E+02 -0.27720488393E+01 -0.36441069449E+02  0.71542193828E+02  0.00000000000E+00 0. -1.
         11    1    1    2    0    0  0.34333563017E+02 -0.40155564724E+01 -0.18262313506E+02  0.39095144684E+02  0.00000000000E+00 0.  1.
</event>
<event>
 7    1  0.2943257E-009  0.1080662E+03  0.7561462E-02  0.1264193E+00
          2   -1    0    0  501    0  0.00000000000E+00  0.00000000000E+00  0.11387846725E+04  0.11387846725E+04  0.00000000000E+00 0. -1.
         -2   -1    0    0    0  501 -0.00000000000E+00 -0.00000000000E+00 -0.13964060609E+02  0.13964060609E+02  0.00000000000E+00 0.  1.
         25    2    1    2    0    0  0.37239272553E+02 -0.24326853796E+02  0.79392674369E+03  0.80495113128E+03  0.12509232655E+03 0.  0.
          5    1    3    3  502    0  0.45378033344E+02 -0.60742250493E+02  0.29510511404E+03  0.30471837431E+03  0.41800000000E+01 0. -1.
         -5    1    3    3    0  502 -0.81387607915E+01  0.36415396697E+02  0.49882162965E+03  0.50023275697E+03  0.41800000000E+01 0. -1.
        -11    1    1    2    0    0  0.29842303835E+02  0.18954385056E+02  0.70760694733E+02  0.79100617761E+02  0.00000000000E+00 0.  1.
         11    1    1    2    0    0 -0.67081576387E+02  0.53724687398E+01  0.26013317348E+03  0.26869698409E+03  0.00000000000E+00 0. -1.
</event>
<event>
 7    1  0.2943257E-009  0.1742121E+03  0.7561462E-02  0.1173525E+00
          2   -1    0    0  501    0  0.00000000000E+00  0.00000000000E+00  0.32837699535E+03  0.32837699535E+03  0.00000000000E+00 0. -1.
         -2   -1    0    0    0  501 -0.00000000000E+00 -0.00000000000E+00 -0.99179897265E+02  0.99179897265E+02  0.00000000000E+00 0.  1.
         25    2    1    2    0    0 -0.14067189777E+03  0.35447346975E+01  0.85676892745E+02  0.20685674856E+03  0.12509211208E+03 0.  0.
          5    1    3    3  502    0 -0.13117596671E+03 -0.42728419796E+02  0.47468746098E+02  0.14595754984E+03  0.41800000000E+01 0. -1.
         -5    1    3    3    0  502 -0.94959310635E+01  0.46273154493E+02  0.38208146647E+02  0.60899198712E+02  0.41800000000E+01 0. -1.
        -11    1    1    2    0    0  0.10017678368E+02 -0.28282030809E+02  0.84805838983E+01  0.31179279174E+02  0.00000000000E+00 0.  1.
         11    1    1    2    0    0  0.13065421940E+03  0.24737296111E+02  0.13503962144E+03  0.18952086488E+03  0.00000000000E+00 0. -1.
</event>
<event>
 7    1  0.2943257E-009  0.1580066E+03  0.7561462E-02  0.1190966E+00
          3   -1    0    0  501    0  0.00000000000E+00  0.00000000000E+00  0.23740334824E+03  0.23740334824E+03  0.00000000000E+00 0. -1.
         -3   -1    0    0    0  501 -0.00000000000E+00 -0.00000000000E+00 -0.19828990616E+03  0.19828990616E+03  0.00000000000E+00 0.  1.
         25    2    1    2    0    0 -0.18932469757E+02 -0.15617993173E+03  0.12198266830E+03  0.23511108473E+03  0.12508733472E+03 0.  0.
          5    1    3    3  502    0 -0.20834322038E+01 -0.89943855538E+02 -0.56805343341E+01  0.90243995419E+02  0.41800000000E+01 0. -1.
         -5    1    3    3    0  502 -0.16849037553E+02 -0.66236076195E+02  0.12766320264E+03  0.14486708931E+03  0.41800000000E+01 0. -1.
        -11    1    1    2    0    0  0.13871484570E+02  0.85867753607E+02 -0.95271704902E+02  0.12900537566E+03  0.00000000000E+00 0.  1.
         11    1    1    2    0    0  0.50609851875E+01  0.70312178126E+02  0.12402478685E+02  0.71576794015E+02  0.00000000000E+00 0. -1.
</event>
<event>
 7    1  0.2943257E-009  0.2029977E+03  0.7561462E-02  0.1147234E+00
         -2   -1    0    0    0  501 -0.00000000000E+00  0.00000000000E+00  0.12264782220E+03  0.12264782220E+03  0.00000000000E+00 0. -1.
          2   -1    0    0  501    0  0.00000000000E+00 -0.00000000000E+00 -0.46487584098E+03  0.46487584098E+03  0.00000000000E+00 0.  1.
         25    2    1    2    0    0 -0.42705147609E+02  0.17844868294E+03 -0.44760288044E+02  0.22653681012E+03  0.12509109033E+03 0.  0.
          5    1    3    3  502    0  0.20730064115E+02  0.13121798732E+02 -0.42668241487E+02  0.49396036195E+02  0.41800000000E+01 0. -1.
         -5    1    3    3    0  502 -0.63435211723E+02  0.16532688421E+03 -0.20920465572E+01  0.17714077393E+03  0.41800000000E+01 0. -1.
        -11    1    1    2    0    0  0.28214435271E+02 -0.34988521970E+01 -0.32989701679E+02  0.43550163504E+02  0.00000000000E+00 0. -1.
         11    1    1    2    0    0  0.14490712337E+02 -0.17494983075E+03 -0.26447802906E+03  0.31743668956E+03  0.00000000000E+00 0.  1.
</event>
<event>
 7    1  0.2943257E-009  0.9454993E+02  0.7561462E-02  0.1292193E+00
         -1   -1    0    0    0  501 -0.00000000000E+00  0.00000000000E+00  0.15525329162E+03  0.15525329162E+03  0.00000000000E+00 0.  1.
          1   -1    0    0  501    0  0.00000000000E+00 -0.00000000000E+00 -0.79645588134E+02  0.79645588134E+02  0.00000000000E+00 0. -1.
         25    2    1    2    0    0  0.15100309114E+02 -0.14232968686E+02  0.24850193987E+02  0.12921106833E+03  0.12508945321E+03 0.  0.
          5    1    3    3  502    0  0.59181999350E+02 -0.22954246529E+02 -0.18892154558E+02  0.66361075825E+02  0.41800000000E+01 0. -1.
         -5    1    3    3    0  502 -0.44081690236E+02  0.87212778420E+01  0.43742348545E+02  0.62849992502E+02  0.41800000000E+01 0. -1.
        -11    1    1    2    0    0  0.13371964063E+01  0.45240178529E+02  0.15998658205E+01  0.45288203963E+02  0.00000000000E+00 0. -1.
         11    1    1    2    0    0 -0.16437505520E+02 -0.31007209842E+02  0.49157643680E+02  0.60399607466E+02  0.00000000000E+00 0.  1.
</event>
<event>
 7    1  0.2943257E-009  0.1738920E+03  0.7561462E-02  0.1173849E+00
         -3   -1    0    0    0  501 -0.00000000000E+00  0.00000000000E+00  0.46628912477E+03  0.46628912477E+03  0.00000000000E+00 0.  1.
          3   -1    0    0  501    0  0.00000000000E+00 -0.00000000000E+00 -0.77783204340E+02  0.77783204340E+02  0.00000000000E+00 0. -1.
         25    2    1    2    0    0 -0.12077621363E+02 -0.14935178893E+03  0.27031938044E+03  0.33342434940E+03  0.12508958206E+03 0.  0.
          5    1    3    3  502    0  0.52279858935E+02 -0.10176948658E+03  0.17124081472E+03  0.20598810906E+03  0.41800000000E+01 0. -1.
         -5    1    3    3    0  502 -0.64357480298E+02 -0.47582302344E+02  0.99078565722E+02  0.12743624034E+03  0.41800000000E+01 0. -1.
        -11    1    1    2    0    0 -0.10145280512E+02  0.28051561661E+02 -0.11240436605E+02  0.31877331183E+02  0.00000000000E+00 0. -1.
         11    1    1    2    0    0  0.22222901876E+02  0.12130022727E+03  0.12942697660E+03  0.17877064853E+03  0.00000000000E+00 0.  1.
</event>
<event>
 7    1  0.2943257E-009  0.1170701E+03  0.7561462E-02  0.1248010E+00
         -3   -1    0    0    0  501 -0.00000000000E+00  0.00000000000E+00  0.10592654620E+04  0.10592654620E+04  0.00000000000E+00 0.  1.
          3   -1    0    0  501    0  0.00000000000E+00 -0.00000000000E+00 -0.20607452488E+02  0.20607452488E+02  0.00000000000E+00 0. -1.
         25    2    1    2    0    0 -0.40846564239E+02 -0.89471454586E+02  0.47309924862E+03  0.49914397726E+03  0.12509287747E+03 0.  0.
          5    1    3    3  502    0 -0.47297307485E+02 -0.68597065932E+02  0.46920114034E+03  0.47656035845E+03  0.41800000000E+01 0. -1.
         -5    1    3    3    0  502  0.64507432460E+01 -0.20874388654E+02  0.38981082726E+01  0.22583618802E+02  0.41800000000E+01 0. -1.
        -11    1    1    2    0    0  0.60325913157E+02  0.33064981684E+02  0.36718451676E+03  0.37357325676E+03  0.00000000000E+00 0.  1.
         11    1    1    2    0    0 -0.19479348918E+02  0.56406472902E+02  0.19837424417E+03  0.20715568052E+03  0.00000000000E+00 0. -1.
</event>
<event>
 7    1  0.2943257E-009  0.1249445E+03  0.7561462E-02  0.1235156E+00
         -1   -1    0    0    0  501 -0.00000000000E+00  0.00000000000E+00  0.33314350939E+03  0.33314350939E+03  0.00000000000E+00 0.  1.
          1   -1    0    0  501    0  0.00000000000E+00 -0.00000000000E+00 -0.66048858108E+02  0.66048858108E+02  0.00000000000E+00 0. -1.
         25    2    1    2    0    0 -0.88776972248E+02  0.42399582714E+02  0.13770544797E+03  0.21045141175E+03  0.12509168994E+03 0.  0.
          5    1    3    3  502    0 -0.47062581059E+02  0.52283652884E+02  0.14994053183E+03  0.16567468842E+03  0.41800000000E+01 0.  1.
         -5    1    3    3    0  502 -0.41714391188E+02 -0.98840701709E+01 -0.12235083864E+02  0.44776723334E+02  0.41800000000E+01 0.  1.
        -11    1    1    2    0    0  0.56858863849E+02  0.24738813035E+02  0.70604207731E+02  0.93967512566E+02  0.00000000000E+00 0. -1.
         11    1    1    2    0    0  0.31918108399E+02 -0.67138395748E+02  0.58784995583E+02  0.94773443185E+02  0.00000000000E+00 0.  1.
</event>
<event>
 7    1  0.2943257E-009  0.1151628E+03  0.7561462E-02  0.1251297E+00
         -1   -1    0    0    0  501 -0.00000000000E+00  0.00000000000E+00  0.92281481021E+01  0.92281481021E+01  0.00000000000E+00 0.  1.
          1   -1    0    0  501    0  0.00000000000E+00 -0.00000000000E+00 -0.19133715046E+04  0.19133715046E+04  0.00000000000E+00 0. -1.
         25    2    1    2    0    0 -0.40413350446E+02 -0.24300200592E+02 -0.14981462520E+04  0.15040988398E+04  0.12508952394E+03 0.  0.
          5    1    3    3  502    0 -0.85044406419E+02 -0.23675785785E+02 -0.93234002253E+03  0.93651934518E+03  0.41800000000E+01 0. -1.
         -5    1    3    3    0  502  0.44631055973E+02 -0.62441480710E+00 -0.56580622944E+03  0.56757949463E+03  0.41800000000E+01 0. -1.
        -11    1    1    2    0    0  0.39879126518E+02 -0.25486626272E+02 -0.13726015539E+03  0.14519043738E+03  0.00000000000E+00 0.  1.
         11    1    1    2    0    0  0.53422392841E+00  0.49786826864E+02 -0.26873694913E+03  0.27331037549E+03  0.00000000000E+00 0. -1.
</event>
<event>
 7    1  0.2943257E-009  0.9847126E+02  0.7561462E-02  0.1283544E+00
         -2   -1    0    0    0  501 -0.00000000000E+00  0.00000000000E+00  0.79629180512E+02  0.79629180512E+02  0.00000000000E+00 0.  1.
          2   -1    0    0  501    0  0.00000000000E+00 -0.00000000000E+00 -0.16896370980E+03  0.16896370980E+03  0.00000000000E+00 0. -1.
         25    2    1    2    0    0 -0.11218967673E+02  0.29614727634E+02 -0.79177848736E+02  0.15139369049E+03  0.12509204795E+03 0.  0.
          5    1    3    3  502    0 -0.54146602310E+02  0.21493854716E+01  0.31912916722E+01  0.54443834749E+02  0.41800000000E+01 0.  1.
         -5    1    3    3    0  502  0.42927634638E+02  0.27465342163E+02 -0.82369140408E+02  0.96949855736E+02  0.41800000000E+01 0.  1.
        -11    1    1    2    0    0 -0.14571407173E+02  0.26196940203E+02  0.11364987503E+02  0.32058829111E+02  0.00000000000E+00 0. -1.
         11    1    1    2    0    0  0.25790374846E+02 -0.55811667837E+02 -0.21521668059E+02  0.65140370720E+02  0.00000000000E+00 0.  1.
</event>
<event>
 7    1  0.2943257E-009  0.9837130E+02  0.7561462E-02  0.1283759E+00
          1   -1    0    0  501    0  0.00000000000E+00  0.00000000000E+00  0.31269494152E+02  0.31269494152E+02  0.00000000000E+00 0. -1.
         -1   -1    0    0    0  501 -0.00000000000E+00 -0.00000000000E+00 -0.53803597776E+03  0.53803597776E+03  0.00000000000E+00 0.  1.
         25    2    1    2    0    0  0.38756166402E+02 -0.37383645444E+02 -0.37005418946E+03  0.39431858310E+03  0.12508982557E+03 0.  0.
          5    1    3    3  502    0  0.30833396320E+01 -0.50315631608E+02 -0.47100454763E+02  0.69116532077E+02  0.41800000000E+01 0. -1.
         -5    1    3    3    0  502  0.35672826770E+02  0.12931986164E+02 -0.32295373469E+03  0.32520205102E+03  0.41800000000E+01 0. -1.
        -11    1    1    2    0    0  0.14763443826E+02  0.50723602776E+02 -0.53773291449E+02  0.75381761889E+02  0.00000000000E+00 0.  1.
         11    1    1    2    0    0 -0.53519610228E+02 -0.13339957332E+02 -0.82939002698E+02  0.99605126922E+02  0.00000000000E+00 0. -1.
</event>
<event>
 7    1  0.2943257E-009  0.1598897E+03  0.7561462E-02  0.1188821E+00
         -1   -1    0    0    0  501 -0.00000000000E+00  0.00000000000E+00  0.24107581718E+02  0.24107581718E+02  0.00000000000E+00 0.  1.
          1   -1    0    0  501    0  0.00000000000E+00 -0.00000000000E+00 -0.13281166517E+04  0.13281166517E+04  0.00000000000E+00 0. -1.
         25    2    1    2    0    0  0.13980549945E+03 -0.16059817345E+02 -0.63095447738E+03  0.65844848955E+03  0.12508942983E+03 0.  0.
          5    1    3    3  502    0  0.61635585839E+02  0.21900374116E+02 -0.47807882145E+03  0.48255093383E+03  0.41800000000E+01 0.  1.
         -5    1    3    3    0  502  0.78169913613E+02 -0.37960191461E+02 -0.15287565593E+03  0.17589755571E+03  0.41800000000E+01 0.  1.
        -11    1    1    2    0    0 -0.54896904132E+02  0.51457881220E+02 -0.34187138075E+03  0.35005374530E+03  0.00000000000E+00 0.  1.
         11    1    1    2    0    0 -0.84908595320E+02 -0.35398063875E+02 -0.33118321182E+03  0.34372199854E+03  0.00000000000E+00 0. -1.
</event>
<event>
 7    1  0.2943257E-009  0.1134461E+03  0.7561462E-02  0.1254318E+00
         -1   -1    0    0    0  501 -0.00000000000E+00  0.00000000000E+00  0.81982500944E+02  0.81982500944E+02  0.00000000000E+00 0.  1.
          1   -1    0    0  501    0  0.00000000000E+00 -0.00000000000E+00 -0.22930031915E+03  0.22930031915E+03  0.00000000000E+00 0. -1.
         25    2    1    2    0    0 -0.75790771194E+02  0.31351135585E+02 -0.62155150910E+02  0.16198034040E+03  0.12508890116E+03 0.  0.
          5    1    3    3  502    0 -0.90219856380E+02  0.48298622069E+02 -0.73535795743E+01  0.10268362533E+03  0.41800000000E+01 0.  1.
         -5    1    3    3    0  502  0.14429085186E+02 -0.16947486485E+02 -0.54801571335E+02  0.59296715071E+02  0.41800000000E+01 0.  1.
        -11    1    1    2    0    0  0.15898097213E+02 -0.38359870398E+02  0.39426578737E+01  0.41710594614E+02  0.00000000000E+00 0.  1.
         11    1    1    2    0    0  0.59892673982E+02  0.70087348139E+01 -0.89105325170E+02  0.10759188508E+03  0.00000000000E+00 0. -1.
</event>
<event>
 7    1  0.2943257E-009  0.1378083E+03  0.7561462E-02  0.1216309E+00
          1   -1    0    0  501    0  0.00000000000E+00  0.00000000000E+00  0.49011692999E+03  0.49011692999E+03  0.00000000000E+00 0. -1.
         -1   -1    0    0    0  501 -0.00000000000E+00 -0.00000000000E+00 -0.57059836837E+02  0.57059836837E+02  0.00000000000E+00 0.  1.
         25    2    1    2    0    0 -0.79796778248E+02  0.94510372253E+02  0.21656241250E+03  0.27901083038E+03  0.12509208080E+03 0.  0.
          5    1    3    3  502    0 -0.48810399638E+02  0.13010939571E+02  0.17525767054E+03  0.18244030022E+03  0.41800000000E+01 0. -1.
         -5    1    3    3    0  502 -0.30986378610E+02  0.81499432682E+02  0.41304741963E+02  0.96570530161E+02  0.41800000000E+01 0. -1.
        -11    1    1    2    0    0  0.47364307764E+02 -0.11823377040E+02  0.20428520213E+02  0.52919697020E+02  0.00000000000E+00 0.  1.
         11    1    1    2    0    0  0.32432470484E+02 -0.82686995213E+02  0.19606616044E+03  0.21524623943E+03  0.00000000000E+00 0. -1.
</event>
<event>
 6    1  0.2943257E-009  0.2292262E+03  0.7561462E-02  0.1127186E+00
         -2   -1    0    0    0  501 -0.00000000000E+00  0.00000000000E+00  0.15595085175E+03  0.15595085175E+03  0.00000000000E+00 0. -1.
          2   -1    0    0  501    0  0.00000000000E+00 -0.00000000000E+00 -0.35627262780E+03  0.35627262780E+03  0.00000000000E+00 0.  1.
          5    1    1    2  502    0 -0.15800490789E+03  0.22979948091E+02 -0.39972136686E+02  0.16464772408E+03  0.41800000000E+01 0. -1.
         -5    1    1    2    0  502 -0.43776979140E+02 -0.67725015038E+02 -0.27378445429E+02  0.85265193594E+02  0.41800000000E+01 0. -1.
        -11    1    1    2    0    0  0.10063072928E+03  0.57705946960E+02 -0.35676459975E+02  0.12136445026E+03  0.00000000000E+00 0.  1.
         11    1    1    2    0    0  0.10115115775E+03 -0.12960880013E+02 -0.97294733957E+02  0.14094611162E+03  0.00000000000E+00 0. -1.
</event>
<event>
 7    1  0.2943257E-009  0.9899591E+02  0.7561462E-02  0.1282422E+00
          2   -1    0    0  501    0  0.00000000000E+00  0.00000000000E+00  0.81608788980E+02  0.81608788980E+02  0.00000000000E+00 0. -1.
         -2   -1    0    0    0  501 -0.00000000000E+00 -0.00000000000E+00 -0.20866985705E+03  0.20866985705E+03  0.00000000000E+00 0.  1.
         25    2    1    2    0    0 -0.49407953513E+02 -0.16333679805E+02 -0.12454205344E+03  0.18403697139E+03  0.12510375212E+03 0.  0.
          5    1    3    3  502    0  0.31776665301E+02  0.28295172955E+02 -0.40009340038E+02  0.58554188240E+02  0.41800000000E+01 0. -1.
         -5    1    3    3    0  502 -0.81184618813E+02 -0.44628852760E+02 -0.84532713406E+02  0.12548278315E+03  0.41800000000E+01 0. -1.
        -11    1    1    2    0    0  0.34981002557E+02 -0.64144995952E+01 -0.44127345668E+02  0.56674853159E+02  0.00000000000E+00 0.  1.
         11    1    1    2    0    0  0.14426950956E+02  0.22748179400E+02  0.41608331042E+02  0.49566821484E+02  0.00000000000E+00 0. -1.
</event>
<event>
 7    1  0.2943257E-009  0.8612778E+02  0.7561462E-02  0.1312509E+00
          1   -1    0    0  501    0  0.00000000000E+00  0.00000000000E+00  0.18431857271E+03  0.18431857271E+03  0.00000000000E+00 0. -1.
         -1   -1    0    0    0  501 -0.00000000000E+00 -0.00000000000E+00 -0.77632322303E+02  0.77632322303E+02  0.00000000000E+00 0.  1.
         25    2    1    2    0    0 -0.27755876818E+02 -0.34217951404E+02  0.33904349877E+02  0.13688613431E+03  0.12508817662E+03 0.  0.
          5    1    3    3  502    0 -0.60010358664E+02 -0.45651059026E+02  0.57665235795E+02  0.95015862657E+02  0.41800000000E+01 0.  1.
         -5    1    3    3    0  502  0.32254481846E+02  0.11433107622E+02 -0.23760885918E+02  0.41870271657E+02  0.41800000000E+01 0.  1.
        -11    1    1    2    0    0  0.20576435955E+02 -0.59816306531E+01 -0.16396295319E+02  0.26981625638E+02  0.00000000000E+00 0.  1.
         11    1    1    2    0    0  0.71794408630E+01  0.40199582058E+02  0.89178195847E+02  0.98083135060E+02  0.00000000000E+00 0. -1.
</event>
<event>
 7    1  0.2943257E-009  0.1398416E+03  0.7561462E-02  0.1213542E+00
         -2   -1    0    0    0  501 -0.00000000000E+00  0.00000000000E+00  0.65227715842E+03  0.65227715842E+03  0.00000000000E+00 0. -1.
          2   -1    0    0  501    0  0.00000000000E+00 -0.00000000000E+00 -0.49025930087E+02  0.49025930087E+02  0.00000000000E+00 0.  1.
         25    2    1    2    0    0 -0.12956547714E+03 -0.24497924281E+02  0.23331224165E+03  0.29575286269E+03  0.12509113686E+03 0.  0.
          5    1    3    3  502    0 -0.72390297798E+02 -0.46631020024E+02  0.21498447447E+03  0.23162600006E+03  0.41800000000E+01 0. -1.
         -5    1    3    3    0  502 -0.57175179342E+02  0.22133095743E+02  0.18327767187E+02  0.64126862624E+02  0.41800000000E+01 0. -1.
        -11    1    1    2    0    0  0.11369866235E+03  0.19308060007E+02  0.37130272319E+03  0.38880059060E+03  0.00000000000E+00 0. -1.
         11    1    1    2    0    0  0.15866814793E+02  0.51898642745E+01 -0.13637365086E+01  0.16749635223E+02  0.00000000000E+00 0.  1.
</event>
<event>
 7    1  0.2943257E-009  0.1539189E+03  0.7561462E-02  0.1195739E+00
          2   -1    0    0  501    0  0.00000000000E+00  0.00000000000E+00  0.43380935908E+03  0.43380935908E+03  0.00000000000E+00 0. -1.
         -2   -1    0    0    0  501 -0.00000000000E+00 -0.00000000000E+00 -0.10056660065E+03  0.10056660065E+03  0.00000000000E+00 0.  1.
         25    2    1    2    0    0 -0.14020206975E+03 -0.38756167242E+02  0.30405157212E+03  0.35951849975E+03  0.12509009669E+03 0.  0.
          5    1    3    3  502    0 -0.26886015581E+02 -0.27398379742E+02  0.20476346680E+03  0.20837245207E+03  0.41800000000E+01 0.  1.
         -5    1    3    3    0  502 -0.11331605417E+03 -0.11357787500E+02  0.99288105320E+02  0.15114604768E+03  0.41800000000E+01 0.  1.
        -11    1    1    2    0    0  0.55738745034E+02 -0.11593854623E+02  0.48331011494E+02  0.74680063170E+02  0.00000000000E+00 0. -1.
         11    1    1    2    0    0  0.84463324719E+02  0.50350021865E+02 -0.19139825181E+02  0.10017739681E+03  0.00000000000E+00 0.  1.
</event>
<event>
 7    1  0.2943257E-009  0.1176194E+03  0.7561462E-02  0.1247077E+00
          1   -1    0    0  501    0  0.00000000000E+00  0.00000000000E+00  0.55156618419E+03  0.55156618419E+03  0.00000000000E+00 0. -1.
         -1   -1    0    0    0  501 -0.00000000000E+00 -0.00000000000E+00 -0.56459415660E+02  0.56459415660E+02  0.00000000000E+00 0.  1.
         25    2    1    2    0    0 -0.37895374734E+02  0.57910692177E+02  0.55177508710E+02  0.15323675220E+03  0.12508891663E+03 0.  0.
          5    1    3    3  502    0 -0.13523954752E+02  0.84851516321E+02  0.72753159974E+02  0.11266397765E+03  0.41800000000E+01 0. -1.
         -5    1    3    3    0  502 -0.24371419982E+02 -0.26940824144E+02 -0.17575651264E+02  0.40572774552E+02  0.41800000000E+01 0. -1.
        -11    1    1    2    0    0  0.65772443380E+02 -0.52711972170E+02  0.28175074383E+03  0.29408850363E+03  0.00000000000E+00 0.  1.
         11    1    1    2    0    0 -0.27877068646E+02 -0.51987200065E+01  0.15817851599E+03  0.16070034402E+03  0.00000000000E+00 0. -1.
</event>
<event>
 7    1  0.3013850E-009  0.1486058E+03  0.7561462E-02  0.1202197E+00
         -2   -1    0    0    0  501 -0.00000000000E+00  0.00000000000E+00  0.13993562235E+03  0.13993562235E+03  0.00000000000E+00 0. -1.
          2   -1    0    0  501    0  0.00000000000E+00 -0.00000000000E+00 -0.25748051543E+03  0.25748051543E+03  0.00000000000E+00 0.  1.
         25    2    1    2    0    0  0.89159110435E+02  0.85134834285E+02 -0.16073879800E+03  0.23807791136E+03  0.12508734433E+03 0.  0.
          5    1    3    3  502    0  0.48721374139E+02 -0.10287519315E+02 -0.40034220456E+01  0.50130880101E+02  0.41800000000E+01 0. -1.
         -5    1    3    3    0  502  0.40437736296E+02  0.95422353599E+02 -0.15673537596E+03  0.18794703126E+03  0.41800000000E+01 0. -1.
        -11    1    1    2    0    0  0.60799011997E+01 -0.35701848833E+02 -0.12664208908E+02  0.38366253348E+02  0.00000000000E+00 0.  1.
         11    1    1    2    0    0 -0.95239011634E+02 -0.49432985452E+02  0.55858113829E+02  0.12097197307E+03  0.00000000000E+00 0. -1.
</event>
<event>
 7    1  0.2943257E-009  0.1187160E+03  0.7561462E-02  0.1245230E+00
          1   -1    0    0  501    0  0.00000000000E+00  0.00000000000E+00  0.11327482493E+03  0.11327482493E+03  0.00000000000E+00 0. -1.
         -1   -1    0    0    0  501 -0.00000000000E+00 -0.00000000000E+00 -0.26209423200E+03  0.26209423200E+03  0.00000000000E+00 0.  1.
         25    2    1    2    0    0  0.64722583960E+02 -0.32677194339E+02  0.43211023354E+02  0.15090231014E+03  0.12508997867E+03 0.  0.
          5    1    3    3  502    0 -0.34850173048E+02  0.74578610911E+01  0.19647129508E+02  0.40910100849E+02  0.41800000000E+01 0.  1.
         -5    1    3    3    0  502  0.99572757008E+02 -0.40135055430E+02  0.23563893846E+02  0.10999220930E+03  0.41800000000E+01 0.  1.
        -11    1    1    2    0    0 -0.65899094629E+02  0.46235367772E+02 -0.19462144596E+03  0.21061316942E+03  0.00000000000E+00 0.  1.
         11    1    1    2    0    0  0.11765106690E+01 -0.13558173433E+02  0.25910155408E+01  0.13853577362E+02  0.00000000000E+00 0. -1.
</event>
<event>
 7    1  0.2943257E-009  0.1027555E+03  0.7561462E-02  0.1274606E+00
          2   -1    0    0  501    0  0.00000000000E+00  0.00000000000E+00  0.60092403302E+02  0.60092403302E+02  0.00000000000E+00 0. -1.
         -2   -1    0    0    0  501 -0.00000000000E+00 -0.00000000000E+00 -0.24426797640E+03  0.24426797640E+03  0.00000000000E+00 0.  1.
         25    2    1    2    0    0  0.52622682307E+01  0.34378862006E+02 -0.50983441522E+02  0.13948963804E+03  0.12509376560E+03 0.  0.
          5    1    3    3  502    0  0.45635527534E+02  0.53329536836E+02  0.17020899850E+01  0.70334986904E+02  0.41800000000E+01 0.  1.
         -5    1    3    3    0  502 -0.40373259303E+02 -0.18950674831E+02 -0.52685531507E+02  0.69154651134E+02  0.41800000000E+01 0.  1.
        -11    1    1    2    0    0 -0.39862730653E+02  0.23623685391E+01 -0.29826252548E+02  0.49841984524E+02  0.00000000000E+00 0.  1.
         11    1    1    2    0    0  0.34600462422E+02 -0.36741230545E+02 -0.10336587903E+03  0.11502875714E+03  0.00000000000E+00 0. -1.
</event>
<event>
 7    1  0.2943257E-009  0.9936286E+02  0.7561462E-02  0.1281641E+00
         -2   -1    0    0    0  501 -0.00000000000E+00  0.00000000000E+00  0.15173883260E+02  0.15173883260E+02  0.00000000000E+00 0.  1.
          2   -1    0    0  501    0  0.00000000000E+00 -0.00000000000E+00 -0.11991588165E+04  0.11991588165E+04  0.00000000000E+00 0. -1.
         25    2    1    2    0    0  0.35230111600E+02 -0.51988637127E+02 -0.87682285831E+03  0.88792457943E+03  0.12509098586E+03 0.  0.
          5    1    3    3  502    0 -0.49122782295E+01  0.24282394269E+02 -0.44196264333E+02  0.50838443425E+02  0.41800000000E+01 0.  1.
         -5    1    3    3    0  502  0.40142389830E+02 -0.76271031397E+02 -0.83262659398E+03  0.83708613601E+03  0.41800000000E+01 0.  1.
        -11    1    1    2    0    0 -0.40243933068E+02  0.55770270394E+01 -0.47154876448E+02  0.62243551892E+02  0.00000000000E+00 0.  1.
         11    1    1    2    0    0  0.50138214674E+01  0.46411610088E+02 -0.26000719850E+03  0.26416456845E+03  0.00000000000E+00 0. -1.
</event>
<event>
 7    1  0.2943257E-009  0.8559762E+02  0.7561462E-02  0.1313877E+00
          1   -1    0    0  501    0  0.00000000000E+00  0.00000000000E+00  0.24147317912E+02  0.24147317912E+02  0.00000000000E+00 0. -1.
         -1   -1    0    0    0  501 -0.00000000000E+00 -0.00000000000E+00 -0.63051780007E+03  0.63051780007E+03  0.00000000000E+00 0.  1.
         25    2    1    2    0    0 -0.28769002019E+02  0.31398077619E+02 -0.39686254514E+03  0.41828438266E+03  0.12509376596E+03 0.  0.
          5    1    3    3  502    0 -0.20407245240E+02 -0.23398932104E+02 -0.19612204341E+02  0.36960474036E+02  0.41800000000E+01 0. -1.
         -5    1    3    3    0  502 -0.83617567790E+01  0.54797009723E+02 -0.37725034080E+03  0.38132390862E+03  0.41800000000E+01 0. -1.
        -11    1    1    2    0    0 -0.23968525936E+02 -0.17686887076E+02 -0.13077028744E+02  0.32531905735E+02  0.00000000000E+00 0. -1.
         11    1    1    2    0    0  0.52737527955E+02 -0.13711190542E+02 -0.19643090827E+03  0.20384882959E+03  0.00000000000E+00 0.  1.
</event>
<event>
 7    1  0.2943257E-009  0.8433358E+02  0.7561462E-02  0.1317185E+00
         -1   -1    0    0    0  501 -0.00000000000E+00  0.00000000000E+00  0.22779298070E+02  0.22779298070E+02  0.00000000000E+00 0.  1.
          1   -1    0    0  501    0  0.00000000000E+00 -0.00000000000E+00 -0.57624374338E+03  0.57624374338E+03  0.00000000000E+00 0. -1.
         25    2    1    2    0    0  0.64964987901E+01 -0.41512977988E+01 -0.21381404066E+03  0.24783761320E+03  0.12509037039E+03 0.  0.
          5    1    3    3  502    0 -0.10177310497E+02 -0.43460080782E+02 -0.19577695444E+02  0.48919472906E+02  0.41800000000E+01 0. -1.
         -5    1    3    3    0  502  0.16673809287E+02  0.39308782983E+02 -0.19423634522E+03  0.19891814030E+03  0.41800000000E+01 0. -1.
        -11    1    1    2    0    0  0.19953855061E+02 -0.31045722666E+02 -0.83688430891E+02  0.91464455898E+02  0.00000000000E+00 0.  1.
         11    1    1    2    0    0 -0.26450353851E+02  0.35197020465E+02 -0.25596197376E+03  0.25972097235E+03  0.00000000000E+00 0. -1.
</event>
<event>
 7    1  0.2943257E-009  0.1022270E+03  0.7561462E-02  0.1275681E+00
          1   -1    0    0  501    0  0.00000000000E+00  0.00000000000E+00  0.39280085786E+03  0.39280085786E+03  0.00000000000E+00 0. -1.
         -1   -1    0    0    0  501 -0.00000000000E+00 -0.00000000000E+00 -0.61710509227E+02  0.61710509227E+02  0.00000000000E+00 0.  1.
         25    2    1    2    0    0 -0.50891630942E+02  0.74273618420E+02  0.82936498074E+02  0.17502068716E+03  0.12508896725E+03 0.  0.
          5    1    3    3  502    0 -0.15211178080E+02  0.13027353252E+02  0.99936563367E+02  0.10200922002E+03  0.41800000000E+01 0. -1.
         -5    1    3    3    0  502 -0.35680452862E+02  0.61246265168E+02 -0.17000065293E+02  0.73011467137E+02  0.41800000000E+01 0. -1.
        -11    1    1    2    0    0  0.60908179306E+02 -0.30561686399E+02  0.78228306116E+02  0.10374724507E+03  0.00000000000E+00 0.  1.
         11    1    1    2    0    0 -0.10016548364E+02 -0.43711932021E+02  0.16992554444E+03  0.17574343486E+03  0.00000000000E+00 0. -1.
</event>
<event>
 7    1  0.2943257E-009  0.6957938E+02  0.7561462E-02  0.1361529E+00
         -1   -1    0    0    0  501 -0.00000000000E+00  0.00000000000E+00  0.36897181071E+02  0.36897181071E+02  0.00000000000E+00 0.  1.
          1   -1    0    0  501    0  0.00000000000E+00 -0.00000000000E+00 -0.33211360668E+03  0.33211360668E+03  0.00000000000E+00 0. -1.
         25    2    1    2    0    0  0.39005309568E+01 -0.28268862200E+01 -0.14844239991E+03  0.19417362097E+03  0.12508014854E+03 0.  0.
          5    1    3    3  502    0  0.19486869162E+02  0.39099048798E+02 -0.14219970071E+03  0.14881767693E+03  0.41800000000E+01 0.  1.
         -5    1    3    3    0  502 -0.15586338205E+02 -0.41925935018E+02 -0.62426992080E+01  0.45355944034E+02  0.41800000000E+01 0.  1.
        -11    1    1    2    0    0  0.44587722068E+01  0.25654374078E+02 -0.14821466449E+03  0.15048459831E+03  0.00000000000E+00 0. -1.
         11    1    1    2    0    0 -0.83593031636E+01 -0.22827487857E+02  0.14406387931E+01  0.24352568476E+02  0.00000000000E+00 0.  1.
</event>
<event>
 7    1  0.2943257E-009  0.9749761E+02  0.7561462E-02  0.1285648E+00
         -2   -1    0    0    0  501 -0.00000000000E+00  0.00000000000E+00  0.82397170081E+02  0.82397170081E+02  0.00000000000E+00 0.  1.
          2   -1    0    0  501    0  0.00000000000E+00 -0.00000000000E+00 -0.21934231908E+03  0.21934231908E+03  0.00000000000E+00 0. -1.
         25    2    1    2    0    0  0.63188140686E+02 -0.32598485611E+01 -0.12860155800E+03  0.19023653178E+03  0.12509280383E+03 0.  0.
          5    1    3    3  502    0  0.57811593277E+02 -0.23606498348E+02 -0.14839013361E+03  0.16104828852E+03  0.41800000000E+01 0. -1.
         -5    1    3    3    0  502  0.53765474087E+01  0.20346649787E+02  0.19788575618E+02  0.29188243260E+02  0.41800000000E+01 0. -1.
        -11    1    1    2    0    0 -0.45384765828E+02 -0.42298831533E+02 -0.10538627299E+01  0.62049002772E+02  0.00000000000E+00 0. -1.
         11    1    1    2    0    0 -0.17803374858E+02  0.45558680094E+02 -0.72897282758E+01  0.49453954610E+02  0.00000000000E+00 0.  1.
</event>
<event>
 7    1  0.2943257E-009  0.8798048E+02  0.7561462E-02  0.1307817E+00
         -1   -1    0    0    0  501 -0.00000000000E+00  0.00000000000E+00  0.13436217524E+02  0.13436217524E+02  0.00000000000E+00 0.  1.
          1   -1    0    0  501    0  0.00000000000E+00 -0.00000000000E+00 -0.97271695055E+03  0.97271695055E+03  0.00000000000E+00 0. -1.
         25    2    1    2    0    0 -0.25758090610E+02 -0.24694825721E+02 -0.55906231669E+03  0.57398698285E+03  0.12504826624E+03 0.  0.
          5    1    3    3  502    0  0.18546996076E+02  0.11175886784E+02 -0.14411118904E+02  0.26344719716E+02  0.41800000000E+01 0. -1.
         -5    1    3    3    0  502 -0.44305086686E+02 -0.35870712505E+02 -0.54465119779E+03  0.54764226314E+03  0.41800000000E+01 0. -1.
        -11    1    1    2    0    0  0.56499387472E+02 -0.12634444483E+01 -0.27094793623E+03  0.27677890315E+03  0.00000000000E+00 0. -1.
         11    1    1    2    0    0 -0.30741296862E+02  0.25958270169E+02 -0.12927048010E+03  0.13538728208E+03  0.00000000000E+00 0.  1.
</event>
<event>
 7    1  0.2943257E-009  0.1568929E+03  0.7561462E-02  0.1192250E+00
          2   -1    0    0  501    0  0.00000000000E+00  0.00000000000E+00  0.37575599951E+02  0.37575599951E+02  0.00000000000E+00 0. -1.
         -2   -1    0    0    0  501 -0.00000000000E+00 -0.00000000000E+00 -0.74891152922E+03  0.74891152922E+03  0.00000000000E+00 0.  1.
         25    2    1    2    0    0 -0.74610567575E+02 -0.87270249335E+02 -0.50736370013E+03  0.53502148539E+03  0.12508889802E+03 0.  0.
          5    1    3    3  502    0 -0.77810160052E+02 -0.11602518444E+03 -0.43771171033E+03  0.45948370830E+03  0.41800000000E+01 0.  1.
         -5    1    3    3    0  502  0.31995924770E+01  0.28754935105E+02 -0.69651989801E+02  0.75537777093E+02  0.41800000000E+01 0.  1.
        -11    1    1    2    0    0  0.36748244313E+02 -0.11908580253E+02 -0.36282253389E+02  0.52996694753E+02  0.00000000000E+00 0.  1.
         11    1    1    2    0    0  0.37862323262E+02  0.99178829588E+02 -0.16768997575E+03  0.19846894903E+03  0.00000000000E+00 0. -1.
</event>
<event>
 7    1  0.2943257E-009  0.1076762E+03  0.7561462E-02  0.1264935E+00
         -2   -1    0    0    0  501 -0.00000000000E+00  0.00000000000E+00  0.22610844435E+03  0.22610844435E+03  0.00000000000E+00 0.  1.
          2   -1    0    0  501    0  0.00000000000E+00 -0.00000000000E+00 -0.79375536255E+02  0.79375536255E+02  0.00000000000E+00 0. -1.
         25    2    1    2    0    0 -0.51175644044E+02  0.51492295469E+02  0.11626370112E+03  0.18556614749E+03  0.12508854409E+03 0.  0.
          5    1    3    3  502    0 -0.67656277131E+02  0.63004677388E+02  0.30594070481E+02  0.97470153158E+02  0.41800000000E+01 0. -1.
         -5    1    3    3    0  502  0.16480633087E+02 -0.11512381919E+02  0.85669630639E+02  0.88095994337E+02  0.41800000000E+01 0. -1.
        -11    1    1    2    0    0  0.28170308448E+02  0.15000126149E+02  0.37459630149E+02  0.49211725772E+02  0.00000000000E+00 0.  1.
         11    1    1    2    0    0  0.23005335595E+02 -0.66492421618E+02 -0.69904231751E+01  0.70706107337E+02  0.00000000000E+00 0. -1.
</event>
<event>
 7    1  0.2943257E-009  0.1937165E+03  0.7561462E-02  0.1155151E+00
          2   -1    0    0  501    0  0.00000000000E+00  0.00000000000E+00  0.14221428792E+04  0.14221428792E+04  0.00000000000E+00 0. -1.
         -2   -1    0    0    0  501 -0.00000000000E+00 -0.00000000000E+00 -0.32805629231E+02  0.32805629231E+02  0.00000000000E+00 0.  1.
         25    2    1    2    0    0  0.17157044321E+03 -0.71798422958E+02  0.76295981804E+03  0.79520273163E+03  0.12509304506E+03 0.  0.
          5    1    3    3  502    0  0.11454739842E+03 -0.57840497337E+02  0.68810821271E+03  0.69998358153E+03  0.41800000000E+01 0. -1.
         -5    1    3    3    0  502  0.57023044786E+02 -0.13957925621E+02  0.74851605337E+02  0.95219150100E+02  0.41800000000E+01 0. -1.
        -11    1    1    2    0    0 -0.12322829112E+03  0.85448023997E+02  0.53326597623E+03  0.55394871418E+03  0.00000000000E+00 0. -1.
         11    1    1    2    0    0 -0.48342152091E+02 -0.13649601039E+02  0.93111455685E+02  0.10579706261E+03  0.00000000000E+00 0.  1.
</event>
<event>
 7    1  0.2943257E-009  0.1099340E+03  0.7561462E-02  0.1260692E+00
          4   -1    0    0  501    0  0.00000000000E+00  0.00000000000E+00  0.54824037594E+02  0.54824037594E+02  0.00000000000E+00 0.  1.
         -4   -1    0    0    0  501 -0.00000000000E+00 -0.00000000000E+00 -0.33988411101E+03  0.33988411101E+03  0.00000000000E+00 0. -1.
         25    2    1    2    0    0 -0.38003352598E+01  0.71366603187E+02 -0.21347674366E+03  0.25754124033E+03  0.12509011067E+03 0.  0.
          5    1    3    3  502    0 -0.61792113406E+02  0.55089042298E+02 -0.13670948021E+03  0.15987502068E+03  0.41800000000E+01 0.  1.
         -5    1    3    3    0  502  0.57991778146E+02  0.16277560890E+02 -0.76767263458E+02  0.97666219646E+02  0.41800000000E+01 0.  1.
        -11    1    1    2    0    0  0.15812698327E+02 -0.41368498468E+02  0.13381207674E+02  0.46265006351E+02  0.00000000000E+00 0.  1.
         11    1    1    2    0    0 -0.12012363067E+02 -0.29998104720E+02 -0.84964537427E+02  0.90901901924E+02  0.00000000000E+00 0. -1.
</event>
<event>
 7    1  0.2943257E-009  0.1295152E+03  0.7561462E-02  0.1228177E+00
          2   -1    0    0  501    0  0.00000000000E+00  0.00000000000E+00  0.10772400761E+04  0.10772400761E+04  0.00000000000E+00 0. -1.
         -2   -1    0    0    0  501 -0.00000000000E+00 -0.00000000000E+00 -0.22799837682E+02  0.22799837682E+02  0.00000000000E+00 0.  1.
         25    2    1    2    0    0  0.49789807980E+02 -0.48812103530E+02  0.67486379434E+03  0.68989185116E+03  0.12509188206E+03 0.  0.
          5    1    3    3  502    0 -0.10678988378E+01 -0.65514096194E+02  0.17093348273E+03  0.18310916178E+03  0.41800000000E+01 0.  1.
         -5    1    3    3    0  502  0.50857706817E+02  0.16701992664E+02  0.50393031161E+03  0.50678268939E+03  0.41800000000E+01 0.  1.
        -11    1    1    2    0    0  0.33319767168E+01 -0.37870276231E+02  0.37955164414E+02  0.53720148886E+02  0.00000000000E+00 0.  1.
         11    1    1    2    0    0 -0.53121784696E+02  0.86682379760E+02  0.34162127969E+03  0.35642791376E+03  0.00000000000E+00 0. -1.
</event>
<event>
 7    1  0.2943257E-009  0.1563604E+03  0.7561462E-02  0.1192868E+00
          2   -1    0    0  501    0  0.00000000000E+00  0.00000000000E+00  0.85747911100E+03  0.85747911100E+03  0.00000000000E+00 0. -1.
         -2   -1    0    0    0  501 -0.00000000000E+00 -0.00000000000E+00 -0.76754754568E+02  0.76754754568E+02  0.00000000000E+00 0.  1.
         25    2    1    2    0    0 -0.73488968432E+01  0.14457121925E+03  0.73511516242E+03  0.75960547918E+03  0.12510530870E+03 0.  0.
          5    1    3    3  502    0  0.33010897511E+02  0.44515898946E+02  0.47108758174E+03  0.47435468448E+03  0.41800000000E+01 0. -1.
         -5    1    3    3    0  502 -0.40359794355E+02  0.10005532031E+03  0.26402758067E+03  0.28525079470E+03  0.41800000000E+01 0. -1.
        -11    1    1    2    0    0  0.18011878052E+02 -0.12929767500E+03  0.57980503457E+01  0.13067491687E+03  0.00000000000E+00 0.  1.
         11    1    1    2    0    0 -0.10662981209E+02 -0.15273544257E+02  0.39811143666E+02  0.43953469515E+02  0.00000000000E+00 0. -1.
</event>
<event>
 7    1  0.2943257E-009  0.6918928E+02  0.7561462E-02  0.1362872E+00
         -2   -1    0    0    0  501 -0.00000000000E+00  0.00000000000E+00  0.12436820716E+03  0.12436820716E+03  0.00000000000E+00 0.  1.
          2   -1    0    0  501    0  0.00000000000E+00 -0.00000000000E+00 -0.95833594476E+02  0.95833594476E+02  0.00000000000E+00 0. -1.
         25    2    1    2    0    0  0.44871535673E+01 -0.42820317725E+02  0.17233567753E+02  0.13340898760E+03  0.12508896017E+03 0.  0.
          5    1    3    3  502    0  0.32518176949E+02  0.66610405113E+01 -0.40318496542E+02  0.52391362419E+02  0.41800000000E+01 0.  1.
         -5    1    3    3    0  502 -0.28031023381E+02 -0.49481358236E+02  0.57552064294E+02  0.81017625176E+02  0.41800000000E+01 0.  1.
        -11    1    1    2    0    0 -0.12180513643E+02  0.16698717244E+02  0.41357785197E+02  0.46235035056E+02  0.00000000000E+00 0.  1.
         11    1    1    2    0    0  0.76933600754E+01  0.26121600481E+02 -0.30056740265E+02  0.40557778986E+02  0.00000000000E+00 0. -1.
</event>
<event>
 7    1  0.2943257E-009  0.1598486E+03  0.7561462E-02  0.1188868E+00
         -1   -1    0    0    0  501 -0.00000000000E+00  0.00000000000E+00  0.15511586699E+03  0.15511586699E+03  0.00000000000E+00 0. -1.
          1   -1    0    0  501    0  0.00000000000E+00 -0.00000000000E+00 -0.19803879812E+03  0.19803879812E+03  0.00000000000E+00 0.  1.
         25    2    1    2    0    0 -0.97150206700E+02 -0.96285763074E+02 -0.18566179096E+02  0.18628371380E+03  0.12509119948E+03 0.  0.
          5    1    3    3  502    0 -0.44483843323E+02 -0.11702206798E+03  0.37009914582E+01  0.12531618590E+03  0.41800000000E+01 0.  1.
         -5    1    3    3    0  502 -0.52666363377E+02  0.20736304910E+02 -0.22267170554E+02  0.60967527891E+02  0.41800000000E+01 0.  1.
        -11    1    1    2    0    0  0.70449838844E+02  0.59429536710E+02 -0.59208659759E+02  0.10954777504E+03  0.00000000000E+00 0.  1.
         11    1    1    2    0    0  0.26700367856E+02  0.36856226364E+02  0.34851907730E+02  0.57323176271E+02  0.00000000000E+00 0. -1.
</event>
<event>
 7    1  0.2943257E-009  0.1795100E+03  0.7561462E-02  0.1168278E+00
         -1   -1    0    0    0  501 -0.00000000000E+00  0.00000000000E+00  0.31784636995E+02  0.31784636995E+02  0.00000000000E+00 0.  1.
          1   -1    0    0  501    0  0.00000000000E+00 -0.00000000000E+00 -0.13005381089E+04  0.13005381089E+04  0.00000000000E+00 0. -1.
         25    2    1    2    0    0  0.52051835700E+02 -0.15163410893E+03 -0.85801847942E+03  0.88178567220E+03  0.12509182256E+03 0.  0.
          5    1    3    3  502    0 -0.14299804313E+02 -0.56789050437E+02 -0.54270923975E+03  0.54587569278E+03  0.41800000000E+01 0.  1.
         -5    1    3    3    0  502  0.66351640013E+02 -0.94845058488E+02 -0.31530923967E+03  0.33590997942E+03  0.41800000000E+01 0.  1.
        -11    1    1    2    0    0  0.23561417673E+02  0.66847632669E+02 -0.13956750788E+03  0.15653381632E+03  0.00000000000E+00 0.  1.
         11    1    1    2    0    0 -0.75613253373E+02  0.84786476257E+02 -0.27116748460E+03  0.29400325737E+03  0.00000000000E+00 0. -1.
</event>
<event>
 7    1  0.2943257E-009  0.8423171E+02  0.7561462E-02  0.1317454E+00
         -3   -1    0    0    0  501 -0.00000000000E+00  0.00000000000E+00  0.87572003958E+02  0.87572003958E+02  0.00000000000E+00 0.  1.
          3   -1    0    0  501    0  0.00000000000E+00 -0.00000000000E+00 -0.13663830091E+03  0.13663830091E+03  0.00000000000E+00 0. -1.
         25    2    1    2    0    0 -0.31793916912E+01 -0.17505143203E+02 -0.36240385239E+02  0.13144482587E+03  0.12509131926E+03 0.  0.
          5    1    3    3  502    0  0.22961871049E+01 -0.66386806193E+02  0.55190535390E+01  0.66786322430E+02  0.41800000000E+01 0. -1.
         -5    1    3    3    0  502 -0.54755787960E+01  0.48881662991E+02 -0.41759438778E+02  0.64658503439E+02  0.41800000000E+01 0. -1.
        -11    1    1    2    0    0 -0.23039163614E+02  0.10983682109E+02  0.31691268786E+02  0.40691287151E+02  0.00000000000E+00 0.  1.
         11    1    1    2    0    0  0.26218555305E+02  0.65214610931E+01 -0.44517180500E+02  0.52074191849E+02  0.00000000000E+00 0. -1.
</event>
<event>
 7    1  0.2943257E-009  0.1091731E+03  0.7561462E-02  0.1262109E+00
         -1   -1    0    0    0  501 -0.00000000000E+00  0.00000000000E+00  0.32432821987E+02  0.32432821987E+02  0.00000000000E+00 0.  1.
          1   -1    0    0  501    0  0.00000000000E+00 -0.00000000000E+00 -0.49652926910E+03  0.49652926910E+03  0.00000000000E+00 0. -1.
         25    2    1    2    0    0 -0.64118826994E+01 -0.62360974164E+02 -0.21877266669E+03  0.25969035456E+03  0.12509035623E+03 0.  0.
          5    1    3    3  502    0 -0.20257022329E+02 -0.81100234778E+02 -0.22060508718E+03  0.23594845184E+03  0.41800000000E+01 0. -1.
         -5    1    3    3    0  502  0.13845139630E+02  0.18739260614E+02  0.18324204964E+01  0.23741902717E+02  0.41800000000E+01 0. -1.
        -11    1    1    2    0    0 -0.42614042610E+02  0.25730110895E+02 -0.11328677725E+03  0.12374121841E+03  0.00000000000E+00 0. -1.
         11    1    1    2    0    0  0.49025925309E+02  0.36630863269E+02 -0.13203700318E+03  0.14553051812E+03  0.00000000000E+00 0.  1.
</event>
<event>
 7    1  0.2943257E-009  0.1090143E+03  0.7561462E-02  0.1262406E+00
          1   -1    0    0  501    0  0.00000000000E+00  0.00000000000E+00  0.11404886202E+04  0.11404886202E+04  0.00000000000E+00 0. -1.
         -1   -1    0    0    0  501 -0.00000000000E+00 -0.00000000000E+00 -0.22319982359E+02  0.22319982359E+02  0.00000000000E+00 0.  1.
         25    2    1    2    0    0  0.69987235910E+01  0.28083040470E+02  0.10065407221E+04  0.10146965411E+04  0.12508879244E+03 0.  0.
          5    1    3    3  502    0  0.23113622128E+02 -0.46112049038E+02  0.36025367195E+03  0.36395156428E+03  0.41800000000E+01 0.  1.
         -5    1    3    3    0  502 -0.16114898537E+02  0.74195089508E+02  0.64628705015E+03  0.65074497681E+03  0.41800000000E+01 0.  1.
        -11    1    1    2    0    0  0.17382268684E+02 -0.52759685517E+02  0.39767523505E+02  0.68316788612E+02  0.00000000000E+00 0.  1.
         11    1    1    2    0    0 -0.24380992275E+02  0.24676645047E+02  0.71860392207E+02  0.79795272812E+02  0.00000000000E+00 0. -1.
</event>
<event>
 7    1  0.2943257E-009  0.1728833E+03  0.7561462E-02  0.1174874E+00
          1   -1    0    0  501    0  0.00000000000E+00  0.00000000000E+00  0.11836958969E+03  0.11836958969E+03  0.00000000000E+00 0. -1.
         -1   -1    0    0    0  501 -0.00000000000E+00 -0.00000000000E+00 -0.28912581652E+03  0.28912581652E+03  0.00000000000E+00 0.  1.
         25    2    1    2    0    0 -0.14380097102E+02 -0.14863267322E+03 -0.99342864974E+02  0.21867110966E+03  0.12509832388E+03 0.  0.
          5    1    3    3  502    0 -0.61603838054E+02 -0.12945193933E+03 -0.68419419993E+02  0.15890729024E+03  0.41800000000E+01 0.  1.
         -5    1    3    3    0  502  0.47223740951E+02 -0.19180733883E+02 -0.30923444981E+02  0.59763819417E+02  0.41800000000E+01 0.  1.
        -11    1    1    2    0    0  0.18469417200E+02  0.67951639529E+02 -0.81164470400E+02  0.10745331983E+03  0.00000000000E+00 0.  1.
         11    1    1    2    0    0 -0.40893200977E+01  0.80681033689E+02  0.97511085457E+01  0.81370976729E+02  0.00000000000E+00 0. -1.
</event>
<event>
 7    1  0.2943257E-009  0.1548043E+03  0.7561462E-02  0.1194691E+00
         -1   -1    0    0    0  501 -0.00000000000E+00  0.00000000000E+00  0.20969767467E+03  0.20969767467E+03  0.00000000000E+00 0.  1.
          1   -1    0    0  501    0  0.00000000000E+00 -0.00000000000E+00 -0.17685303052E+03  0.17685303052E+03  0.00000000000E+00 0. -1.
         25    2    1    2    0    0  0.44390075715E+02  0.10606312034E+03  0.11491385593E+03  0.20511742203E+03  0.12509235875E+03 0.  0.
          5    1    3    3  502    0 -0.21044377305E+02 -0.20651136720E+01  0.66171698340E+02  0.69593796935E+02  0.41800000000E+01 0.  1.
         -5    1    3    3    0  502  0.65434453020E+02  0.10812823401E+03  0.48742157589E+02  0.13552362509E+03  0.41800000000E+01 0.  1.
        -11    1    1    2    0    0 -0.34702203999E+02  0.16659914107E+02 -0.23559953318E+02  0.45131664060E+02  0.00000000000E+00 0.  1.
         11    1    1    2    0    0 -0.96878717163E+01 -0.12272303445E+03 -0.58509258460E+02  0.13630161909E+03  0.00000000000E+00 0. -1.
</event>
<event>
 7    1  0.2943257E-009  0.9599204E+02  0.7561462E-02  0.1288957E+00
          1   -1    0    0  501    0  0.00000000000E+00  0.00000000000E+00  0.39172972796E+03  0.39172972796E+03  0.00000000000E+00 0. -1.
         -1   -1    0    0    0  501 -0.00000000000E+00 -0.00000000000E+00 -0.45661453075E+02  0.45661453075E+02  0.00000000000E+00 0.  1.
         25    2    1    2    0    0 -0.13468113562E+02 -0.70165718289E+02  0.14660813426E+03  0.20554061948E+03  0.12509349752E+03 0.  0.
          5    1    3    3  502    0  0.36950881085E+02 -0.40176230483E+02  0.13488499666E+03  0.14557105424E+03  0.41800000000E+01 0. -1.
         -5    1    3    3    0  502 -0.50418994647E+02 -0.29989487805E+02  0.11723137597E+02  0.59969565241E+02  0.41800000000E+01 0. -1.
        -11    1    1    2    0    0 -0.10398641669E+02  0.14340600897E+02 -0.51301720434E+01  0.18441888402E+02  0.00000000000E+00 0.  1.
         11    1    1    2    0    0  0.23866755232E+02  0.55825117392E+02  0.20459031267E+03  0.21340867315E+03  0.00000000000E+00 0. -1.
</event>
