<event>
 7    1  0.2842702E-009  0.1095582E+03  0.7561462E-02  0.1261390E+00
          1   -1    0    0  501    0  0.00000000000E+00  0.00000000000E+00  0.12499035272E+03  0.12499035272E+03  0.00000000000E+00 0. -1.
         -1   -1    0    0    0  501 -0.00000000000E+00 -0.00000000000E+00 -0.11510589856E+03  0.11510589856E+03  0.00000000000E+00 0.  1.
         25    2    1    2    0    0  0.18575379765E+02 -0.34613071543E+02 -0.22348818260E+02  0.13300462732E+03  0.12509057421E+03 0.  0.
          5    1    3    3  502    0 -0.53183753937E+02 -0.58802922293E+01 -0.77075168103E+01  0.54221469318E+02  0.41800000000E+01 0. -1.
         -5    1    3    3    0  502  0.71759133702E+02 -0.28732779314E+02 -0.14641301450E+02  0.78783158003E+02  0.41800000000E+01 0. -1.
        -11    1    1    2    0    0  0.29663416204E+02  0.18484537962E+01 -0.13828188443E+02  0.32780388008E+02  0.00000000000E+00 0.  1.
         11    1    1    2    0    0 -0.48238795969E+02  0.32764617747E+02  0.46061460854E+02  0.74311235951E+02  0.00000000000E+00 0. -1.
</event>
<event>
 7    1  0.2842702E-009  0.1455181E+03  0.7561462E-02  0.1206091E+00
         -2   -1    0    0    0  501 -0.00000000000E+00  0.00000000000E+00  0.25626541110E+02  0.25626541110E+02  0.00000000000E+00 0.  1.
          2   -1    0    0  501    0  0.00000000000E+00 -0.00000000000E+00 -0.10872803416E+04  0.10872803416E+04  0.00000000000E+00 0. -1.
         25    2    1    2    0    0 -0.90453511018E+02 -0.91300197910E+02 -0.57666528244E+03  0.60390863039E+03  0.12508086222E+03 0.  0.
          5    1    3    3  502    0 -0.65769526344E+02 -0.27845754376E+02 -0.48169360475E+03  0.48697763593E+03  0.41800000000E+01 0. -1.
         -5    1    3    3    0  502 -0.24683984674E+02 -0.63454443534E+02 -0.94971677689E+02  0.11693099446E+03  0.41800000000E+01 0. -1.
        -11    1    1    2    0    0  0.92683602013E+02  0.41708011503E+02 -0.37098637547E+03  0.38465659892E+03  0.00000000000E+00 0.  1.
         11    1    1    2    0    0 -0.22300909954E+01  0.49592186407E+02 -0.11400214259E+03  0.12434165341E+03  0.00000000000E+00 0. -1.
</event>
<event>
 7    1  0.2842702E-009  0.1186864E+03  0.7561462E-02  0.1245280E+00
          2   -1    0    0  501    0  0.00000000000E+00  0.00000000000E+00  0.12712946407E+03  0.12712946407E+03  0.00000000000E+00 0.  1.
         -2   -1    0    0    0  501 -0.00000000000E+00 -0.00000000000E+00 -0.15134629276E+03  0.15134629276E+03  0.00000000000E+00 0. -1.
         25    2    1    2    0    0 -0.15888801164E+01  0.77525816051E+02  0.20872612946E+02  0.14864520064E+03  0.12508778121E+03 0.  0.
          5    1    3    3  502    0 -0.32230451883E+01  0.11204448527E+03  0.19164224493E+02  0.11379408860E+03  0.41800000000E+01 0.  1.
         -5    1    3    3    0  502  0.16341650719E+01 -0.34518669216E+02  0.17083884531E+01  0.34851112048E+02  0.41800000000E+01 0.  1.
        -11    1    1    2    0    0 -0.83564069933E+01 -0.79764162447E+02  0.34082347523E+01  0.80273079004E+02  0.00000000000E+00 0.  1.
         11    1    1    2    0    0  0.99452871097E+01  0.22383463956E+01 -0.48497676381E+02  0.49557477181E+02  0.00000000000E+00 0. -1.
</event>
<event>
 7    1  0.2842702E-009  0.8447048E+02  0.7561462E-02  0.1316823E+00
         -2   -1    0    0    0  501 -0.00000000000E+00  0.00000000000E+00  0.26680720333E+03  0.26680720333E+03  0.00000000000E+00 0.  1.
          2   -1    0    0  501    0  0.00000000000E+00 -0.00000000000E+00 -0.49989368742E+02  0.49989368742E+02  0.00000000000E+00 0. -1.
         25    2    1    2    0    0  0.22906741529E+02  0.16852170461E+02  0.14778773297E+03  0.19569713315E+03  0.12508972560E+03 0.  0.
          5    1    3    3  502    0 -0.28126305046E+02  0.21044026186E+02  0.13918058673E+03  0.14360587800E+03  0.41800000000E+01 0. -1.
         -5    1    3    3    0  502  0.51033046575E+02 -0.41918557257E+01  0.86071462447E+01  0.52091255155E+02  0.41800000000E+01 0. -1.
        -11    1    1    2    0    0  0.26861127990E+02 -0.18128412912E+02  0.63136673047E+02  0.70967591442E+02  0.00000000000E+00 0.  1.
         11    1    1    2    0    0 -0.49767869519E+02  0.12762424514E+01  0.58934285700E+01  0.50131847478E+02  0.00000000000E+00 0. -1.
</event>
<event>
 7    1  0.2842702E-009  0.1407145E+03  0.7561462E-02  0.1212371E+00
         -2   -1    0    0    0  501 -0.00000000000E+00  0.00000000000E+00  0.15268280875E+03  0.15268280875E+03  0.00000000000E+00 0. -1.
          2   -1    0    0  501    0  0.00000000000E+00 -0.00000000000E+00 -0.14726146700E+03  0.14726146700E+03  0.00000000000E+00 0.  1.
         25    2    1    2    0    0  0.70712693566E+01  0.96746188877E+02 -0.33718458433E+02  0.16185080419E+03  0.12509564527E+03 0.  0.
          5    1    3    3  502    0 -0.72742564266E+01 -0.26929610957E+02 -0.23757024603E+02  0.36878006600E+02  0.41800000000E+01 0.  1.
         -5    1    3    3    0  502  0.14345525783E+02  0.12367579983E+03 -0.99614338302E+01  0.12497279759E+03  0.41800000000E+01 0.  1.
        -11    1    1    2    0    0 -0.44931322845E+02 -0.38456040804E+02  0.17465802940E+01  0.59167063385E+02  0.00000000000E+00 0. -1.
         11    1    1    2    0    0  0.37860053488E+02 -0.58290148073E+02  0.37393219890E+02  0.78926408168E+02  0.00000000000E+00 0.  1.
</event>
<event>
 7    1  0.2842702E-009  0.1379031E+03  0.7561462E-02  0.1216179E+00
         -1   -1    0    0    0  501 -0.00000000000E+00  0.00000000000E+00  0.11097616997E+03  0.11097616997E+03  0.00000000000E+00 0.  1.
          1   -1    0    0  501    0  0.00000000000E+00 -0.00000000000E+00 -0.18484688953E+03  0.18484688953E+03  0.00000000000E+00 0. -1.
         25    2    1    2    0    0 -0.28630204971E+02  0.84109783419E+02 -0.66877527575E+02  0.16737511733E+03  0.12509069471E+03 0.  0.
          5    1    3    3  502    0  0.36415193776E+02 -0.10871666475E+02 -0.16025625946E+02  0.41455428555E+02  0.41800000000E+01 0. -1.
         -5    1    3    3    0  502 -0.65045398747E+02  0.94981449894E+02 -0.50851901629E+02  0.12591968878E+03  0.41800000000E+01 0. -1.
        -11    1    1    2    0    0  0.33848147300E+01 -0.94873958059E+02  0.11092526570E+02  0.95580170716E+02  0.00000000000E+00 0.  1.
         11    1    1    2    0    0  0.25245390241E+02  0.10764174640E+02 -0.18085718555E+02  0.32867771445E+02  0.00000000000E+00 0. -1.
</event>
<event>
 7    1  0.2842702E-009  0.1130692E+03  0.7561462E-02  0.1254989E+00
         -3   -1    0    0    0  501 -0.00000000000E+00  0.00000000000E+00  0.76265153526E+02  0.76265153526E+02  0.00000000000E+00 0.  1.
          3   -1    0    0  501    0  0.00000000000E+00 -0.00000000000E+00 -0.23981968064E+03  0.23981968064E+03  0.00000000000E+00 0. -1.
         25    2    1    2    0    0  0.11027442390E+02  0.67287709479E+02 -0.14570887817E+03  0.20378692280E+03  0.12509513337E+03 0.  0.
          5    1    3    3  502    0 -0.16198970955E+02 -0.33783555045E+02 -0.37276270431E+02  0.53016299274E+02  0.41800000000E+01 0.  1.
         -5    1    3    3    0  502  0.27226413345E+02  0.10107126452E+03 -0.10843260774E+03  0.15077062353E+03  0.41800000000E+01 0.  1.
        -11    1    1    2    0    0 -0.23359760598E+02 -0.10571478446E+02 -0.42179852490E+02  0.49361670634E+02  0.00000000000E+00 0. -1.
         11    1    1    2    0    0  0.12332318207E+02 -0.56716231033E+02  0.24334203551E+02  0.62936240732E+02  0.00000000000E+00 0.  1.
</event>
<event>
 6    1  0.2842702E-009  0.1365108E+03  0.7561462E-02  0.1218103E+00
         -3   -1    0    0    0  501 -0.00000000000E+00  0.00000000000E+00  0.44818481256E+03  0.44818481256E+03  0.00000000000E+00 0.  1.
          3   -1    0    0  501    0  0.00000000000E+00 -0.00000000000E+00 -0.59237074068E+02  0.59237074068E+02  0.00000000000E+00 0. -1.
          5    1    1    2  502    0  0.69517782155E+01 -0.22742373563E+02 -0.12879047369E+02  0.27365763954E+02  0.41800000000E+01 0.  1.
         -5    1    1    2    0  502  0.50472518681E+02  0.10346981462E+03  0.11114549392E+03  0.16007582859E+03  0.41800000000E+01 0.  1.
        -11    1    1    2    0    0 -0.49211888400E+02 -0.10069979581E+03  0.23943003000E+03  0.26436527400E+03  0.00000000000E+00 0.  1.
         11    1    1    2    0    0 -0.82124084968E+01  0.19972354750E+02  0.51251261944E+02  0.55615020080E+02  0.00000000000E+00 0. -1.
</event>
<event>
 7    1  0.2842702E-009  0.1062252E+03  0.7561462E-02  0.1267724E+00
         -2   -1    0    0    0  501 -0.00000000000E+00  0.00000000000E+00  0.13910901781E+02  0.13910901781E+02  0.00000000000E+00 0.  1.
          2   -1    0    0  501    0  0.00000000000E+00 -0.00000000000E+00 -0.11427853167E+04  0.11427853167E+04  0.00000000000E+00 0. -1.
         25    2    1    2    0    0 -0.49435420585E+02  0.20439642587E+02 -0.69046628878E+03  0.70374232485E+03  0.12509166256E+03 0.  0.
          5    1    3    3  502    0  0.22636067513E+02  0.25656414215E+02 -0.60489443897E+02  0.69621033932E+02  0.41800000000E+01 0.  1.
         -5    1    3    3    0  502 -0.72071488097E+02 -0.52167716280E+01 -0.62997684488E+03  0.63412129092E+03  0.41800000000E+01 0.  1.
        -11    1    1    2    0    0 -0.27788641213E+01  0.31693920534E+02 -0.65524128273E+02  0.72839811027E+02  0.00000000000E+00 0.  1.
         11    1    1    2    0    0  0.52214284706E+02 -0.52133563121E+02 -0.37288399788E+03  0.38011408262E+03  0.00000000000E+00 0. -1.
</event>
<event>
 7    1  0.2842702E-009  0.1583787E+03  0.7561462E-02  0.1190539E+00
          2   -1    0    0  501    0  0.00000000000E+00  0.00000000000E+00  0.11478037456E+04  0.11478037456E+04  0.00000000000E+00 0. -1.
         -2   -1    0    0    0  501 -0.00000000000E+00 -0.00000000000E+00 -0.29827371125E+02  0.29827371125E+02  0.00000000000E+00 0.  1.
         25    2    1    2    0    0  0.13975246390E+03  0.12724054484E+02  0.42435885399E+03  0.46413488788E+03  0.12509238368E+03 0.  0.
          5    1    3    3  502    0  0.12638885972E+03  0.34553144088E+02  0.20555787072E+03  0.24380232617E+03  0.41800000000E+01 0. -1.
         -5    1    3    3    0  502  0.13363604175E+02 -0.21829089604E+02  0.21880098327E+03  0.22033256171E+03  0.41800000000E+01 0. -1.
        -11    1    1    2    0    0 -0.46208986360E+02 -0.41241001851E+02  0.17250186214E+03  0.18328388662E+03  0.00000000000E+00 0.  1.
         11    1    1    2    0    0 -0.93543477538E+02  0.28516947367E+02  0.52111565831E+03  0.53021234219E+03  0.00000000000E+00 0. -1.
</event>
<event>
 7    1  0.2842702E-009  0.1152111E+03  0.7561462E-02  0.1251213E+00
          1   -1    0    0  501    0  0.00000000000E+00  0.00000000000E+00  0.10061633931E+04  0.10061633931E+04  0.00000000000E+00 0. -1.
         -1   -1    0    0    0  501 -0.00000000000E+00 -0.00000000000E+00 -0.17333613283E+02  0.17333613283E+02  0.00000000000E+00 0.  1.
         25    2    1    2    0    0  0.57050986428E+01 -0.74949195349E+02  0.52367810441E+03  0.54362007974E+03  0.12503641080E+03 0.  0.
          5    1    3    3  502    0 -0.41911978075E+02 -0.39504931554E+02  0.97581201448E+02  0.11338790411E+03  0.41800000000E+01 0. -1.
         -5    1    3    3    0  502  0.47617076717E+02 -0.35444263795E+02  0.42609690297E+03  0.43023217563E+03  0.41800000000E+01 0. -1.
        -11    1    1    2    0    0 -0.41729755541E+02  0.17269091784E+02  0.25581900448E+03  0.25977481995E+03  0.00000000000E+00 0. -1.
         11    1    1    2    0    0  0.36024656898E+02  0.57680103565E+02  0.20933267094E+03  0.22010210670E+03  0.00000000000E+00 0.  1.
</event>
<event>
 7    1  0.2842702E-009  0.2010985E+03  0.7561462E-02  0.1148815E+00
         -2   -1    0    0    0  501 -0.00000000000E+00  0.00000000000E+00  0.53481517657E+02  0.53481517657E+02  0.00000000000E+00 0.  1.
          2   -1    0    0  501    0  0.00000000000E+00 -0.00000000000E+00 -0.10984092489E+04  0.10984092489E+04  0.00000000000E+00 0. -1.
         25    2    1    2    0    0 -0.16561151485E+03 -0.91783765390E+02 -0.28990456446E+03  0.36816331983E+03  0.12509252629E+03 0.  0.
          5    1    3    3  502    0 -0.13652746639E+03 -0.91849570503E+02 -0.29550114485E+03  0.33825211261E+03  0.41800000000E+01 0.  1.
         -5    1    3    3    0  502 -0.29084048465E+02  0.65805113642E-01  0.55965803870E+01  0.29911207221E+02  0.41800000000E+01 0.  1.
        -11    1    1    2    0    0  0.15035247617E+03  0.41949705531E+02 -0.51625830015E+03  0.53934059494E+03  0.00000000000E+00 0.  1.
         11    1    1    2    0    0  0.15259038683E+02  0.49834059858E+02 -0.23876486668E+03  0.24438685182E+03  0.00000000000E+00 0. -1.
</event>
<event>
 6    1  0.2842702E-009  0.1485567E+03  0.7561462E-02  0.1202258E+00
          1   -1    0    0  501    0  0.00000000000E+00  0.00000000000E+00  0.10852466549E+04  0.10852466549E+04  0.00000000000E+00 0. -1.
         -1   -1    0    0    0  501 -0.00000000000E+00 -0.00000000000E+00 -0.31559373073E+02  0.31559373073E+02  0.00000000000E+00 0.  1.
          5    1    1    2  502    0  0.99030061161E+02 -0.10874521651E+02  0.40578797881E+03  0.41785950316E+03  0.41800000000E+01 0.  1.
         -5    1    1    2    0  502 -0.13323529654E+02 -0.58208868540E+02  0.45588071163E+03  0.45979395869E+03  0.41800000000E+01 0.  1.
        -11    1    1    2    0    0 -0.40388339593E+02  0.81148034555E+02  0.94504942872E+02  0.13094810313E+03  0.00000000000E+00 0.  1.
         11    1    1    2    0    0 -0.45318191914E+02 -0.12064644363E+02  0.97513648506E+02  0.10820446297E+03  0.00000000000E+00 0. -1.
</event>
<event>
 7    1  0.2842702E-009  0.1038037E+03  0.7561462E-02  0.1272495E+00
         -2   -1    0    0    0  501 -0.00000000000E+00  0.00000000000E+00  0.50134056790E+03  0.50134056790E+03  0.00000000000E+00 0.  1.
          2   -1    0    0  501    0  0.00000000000E+00 -0.00000000000E+00 -0.25030094823E+02  0.25030094823E+02  0.00000000000E+00 0. -1.
         25    2    1    2    0    0 -0.11971923176E+02 -0.25705914561E+02  0.28780895534E+03  0.31509606427E+03  0.12508962369E+03 0.  0.
          5    1    3    3  502    0 -0.13636351868E+02  0.42338221908E+02  0.19425658041E+03  0.19932778672E+03  0.41800000000E+01 0.  1.
         -5    1    3    3    0  502  0.16644286928E+01 -0.68044136469E+02  0.93552374928E+02  0.11576827754E+03  0.41800000000E+01 0.  1.
        -11    1    1    2    0    0  0.68795479212E+01  0.59836323213E+02  0.13157410434E+03  0.14470472932E+03  0.00000000000E+00 0. -1.
         11    1    1    2    0    0  0.50923752545E+01 -0.34130408652E+02  0.56927413395E+02  0.66569869133E+02  0.00000000000E+00 0.  1.
</event>
<event>
 7    1  0.2842702E-009  0.1172982E+03  0.7561462E-02  0.1247622E+00
          1   -1    0    0  501    0  0.00000000000E+00  0.00000000000E+00  0.25986093773E+03  0.25986093773E+03  0.00000000000E+00 0. -1.
         -1   -1    0    0    0  501 -0.00000000000E+00 -0.00000000000E+00 -0.69777325499E+02  0.69777325499E+02  0.00000000000E+00 0.  1.
         25    2    1    2    0    0 -0.36923777276E+02  0.28487356913E+02  0.27398634765E+02  0.13628463154E+03  0.12509164950E+03 0.  0.
          5    1    3    3  502    0  0.38276163767E+02  0.39943947334E+02  0.46769413251E+00  0.55482202364E+02  0.41800000000E+01 0. -1.
         -5    1    3    3    0  502 -0.75199941043E+02 -0.11456590421E+02  0.26930940632E+02  0.80802429173E+02  0.41800000000E+01 0. -1.
        -11    1    1    2    0    0  0.50076778883E+02  0.19074636016E+02  0.10122917379E+03  0.11453764075E+03  0.00000000000E+00 0.  1.
         11    1    1    2    0    0 -0.13153001607E+02 -0.47561992929E+02  0.61455803676E+02  0.78815990942E+02  0.00000000000E+00 0. -1.
</event>
<event>
 7    1  0.2842702E-009  0.2146045E+03  0.7561462E-02  0.1137971E+00
          1   -1    0    0  501    0  0.00000000000E+00  0.00000000000E+00  0.47573785911E+03  0.47573785911E+03  0.00000000000E+00 0. -1.
         -1   -1    0    0    0  501 -0.00000000000E+00 -0.00000000000E+00 -0.11484620687E+03  0.11484620687E+03  0.00000000000E+00 0.  1.
         25    2    1    2    0    0  0.13929689247E+03 -0.14879245181E+03  0.14464776806E+03  0.27948719520E+03  0.12508915824E+03 0.  0.
          5    1    3    3  502    0  0.73525907760E+02 -0.26287659329E+02 -0.83670525707E+00  0.78200208572E+02  0.41800000000E+01 0. -1.
         -5    1    3    3    0  502  0.65770984713E+02 -0.12250479248E+03  0.14548447331E+03  0.20128698663E+03  0.41800000000E+01 0. -1.
        -11    1    1    2    0    0 -0.71530361378E+02  0.11681098447E+03  0.88746762107E+02  0.16320963965E+03  0.00000000000E+00 0.  1.
         11    1    1    2    0    0 -0.67766531095E+02  0.31981467341E+02  0.12749712208E+03  0.14788723112E+03  0.00000000000E+00 0. -1.
</event>
<event>
 7    1  0.2842702E-009  0.1206305E+03  0.7561462E-02  0.1242061E+00
          2   -1    0    0  501    0  0.00000000000E+00  0.00000000000E+00  0.19806722187E+03  0.19806722187E+03  0.00000000000E+00 0. -1.
         -2   -1    0    0    0  501 -0.00000000000E+00 -0.00000000000E+00 -0.98506812356E+02  0.98506812356E+02  0.00000000000E+00 0.  1.
         25    2    1    2    0    0 -0.87448490985E+02 -0.68749171829E+01  0.18171432333E+02  0.15385635410E+03  0.12508826357E+03 0.  0.
          5    1    3    3  502    0 -0.10298726670E+03 -0.19313523468E+02 -0.23517733674E+02  0.10747067269E+03  0.41800000000E+01 0.  1.
         -5    1    3    3    0  502  0.15538775719E+02  0.12438606285E+02  0.41689166007E+02  0.46385681406E+02  0.41800000000E+01 0.  1.
        -11    1    1    2    0    0  0.48590940411E+01 -0.26527196887E+02  0.27908778549E+02  0.38809829807E+02  0.00000000000E+00 0. -1.
         11    1    1    2    0    0  0.82589396944E+02  0.33402114070E+02  0.53480198630E+02  0.10390785032E+03  0.00000000000E+00 0.  1.
</event>
<event>
 7    1  0.2842702E-009  0.1121528E+03  0.7561462E-02  0.1256634E+00
          2   -1    0    0  501    0  0.00000000000E+00  0.00000000000E+00  0.20616958136E+03  0.20616958136E+03  0.00000000000E+00 0.  1.
         -2   -1    0    0    0  501 -0.00000000000E+00 -0.00000000000E+00 -0.67232854256E+02  0.67232854256E+02  0.00000000000E+00 0. -1.
         25    2    1    2    0    0 -0.32604340229E+02  0.12175465308E+02  0.47029223708E+02  0.13809407746E+03  0.12508773476E+03 0.  0.
          5    1    3    3  502    0  0.35319299320E+02 -0.31226848352E+02  0.64935426491E+01  0.47772455020E+02  0.41800000000E+01 0. -1.
         -5    1    3    3    0  502 -0.67923639549E+02  0.43402313660E+02  0.40535681059E+02  0.90321622437E+02  0.41800000000E+01 0. -1.
        -11    1    1    2    0    0  0.10263358739E+02 -0.50699796804E+02  0.32606170038E+02  0.61147103391E+02  0.00000000000E+00 0.  1.
         11    1    1    2    0    0  0.22340981489E+02  0.38524331495E+02  0.59301333363E+02  0.74161254774E+02  0.00000000000E+00 0. -1.
</event>
<event>
 7    1  0.2842702E-009  0.2056488E+03  0.7561462E-02  0.1145059E+00
          2   -1    0    0  501    0  0.00000000000E+00  0.00000000000E+00  0.25665890130E+03  0.25665890130E+03  0.00000000000E+00 0. -1.
         -2   -1    0    0    0  501 -0.00000000000E+00 -0.00000000000E+00 -0.20703941820E+03  0.20703941820E+03  0.00000000000E+00 0.  1.
         25    2    1    2    0    0  0.19342468162E+03  0.46868096608E+02  0.66391723423E+02  0.24426422160E+03  0.12508966014E+03 0.  0.
          5    1    3    3  502    0  0.78025230543E+02 -0.16081374109E+01  0.87433223825E+02  0.11727132529E+03  0.41800000000E+01 0.  1.
         -5    1    3    3    0  502  0.11539945108E+03  0.48476234019E+02 -0.21041500402E+02  0.12699289631E+03  0.41800000000E+01 0.  1.
        -11    1    1    2    0    0 -0.12814582127E+03 -0.59713606334E+02  0.21002956564E+02  0.14292722091E+03  0.00000000000E+00 0. -1.
         11    1    1    2    0    0 -0.65278860345E+02  0.12845509726E+02 -0.37775196885E+02  0.76506876997E+02  0.00000000000E+00 0.  1.
</event>
<event>
 7    1  0.2842702E-009  0.1317767E+03  0.7561462E-02  0.1224843E+00
         -2   -1    0    0    0  501 -0.00000000000E+00  0.00000000000E+00  0.93120227747E+02  0.93120227747E+02  0.00000000000E+00 0.  1.
          2   -1    0    0  501    0  0.00000000000E+00 -0.00000000000E+00 -0.19353098487E+03  0.19353098487E+03  0.00000000000E+00 0. -1.
         25    2    1    2    0    0 -0.77527017909E+02  0.36087277167E+01 -0.69191422066E+02  0.16265655670E+03  0.12508493566E+03 0.  0.
          5    1    3    3  502    0  0.17818446108E+02  0.38263190723E+02 -0.36590637586E+02  0.56017104039E+02  0.41800000000E+01 0.  1.
         -5    1    3    3    0  502 -0.95345464018E+02 -0.34654463006E+02 -0.32600784480E+02  0.10663945266E+03  0.41800000000E+01 0.  1.
        -11    1    1    2    0    0  0.62622345559E+02 -0.44010646333E+02 -0.15118435276E+02  0.78019627269E+02  0.00000000000E+00 0.  1.
         11    1    1    2    0    0  0.14904672350E+02  0.40401918617E+02 -0.16100899785E+02  0.45975028653E+02  0.00000000000E+00 0. -1.
</event>
<event>
 7    1  0.2842702E-009  0.9921996E+02  0.7561462E-02  0.1281945E+00
         -2   -1    0    0    0  501 -0.00000000000E+00  0.00000000000E+00  0.13904412907E+02  0.13904412907E+02  0.00000000000E+00 0.  1.
          2   -1    0    0  501    0  0.00000000000E+00 -0.00000000000E+00 -0.11172448360E+04  0.11172448360E+04  0.00000000000E+00 0. -1.
         25    2    1    2    0    0  0.12710623671E+01  0.11769611207E+02 -0.89941501431E+03  0.90814936144E+03  0.12509098839E+03 0.  0.
          5    1    3    3  502    0  0.56268470763E+02  0.29059465344E+02 -0.58800336955E+03  0.59141865741E+03  0.41800000000E+01 0. -1.
         -5    1    3    3    0  502 -0.54997408396E+02 -0.17289854137E+02 -0.31141164476E+03  0.31673070403E+03  0.41800000000E+01 0. -1.
        -11    1    1    2    0    0 -0.26330214518E+02 -0.34457950696E+02 -0.16867378803E+03  0.17415934465E+03  0.00000000000E+00 0. -1.
         11    1    1    2    0    0  0.25059152151E+02  0.22688339488E+02 -0.35251620724E+02  0.48840542779E+02  0.00000000000E+00 0.  1.
</event>
<event>
 7    1  0.2842702E-009  0.9012363E+02  0.7561462E-02  0.1302553E+00
          2   -1    0    0  501    0  0.00000000000E+00  0.00000000000E+00  0.24315056960E+03  0.24315056960E+03  0.00000000000E+00 0. -1.
         -2   -1    0    0    0  501 -0.00000000000E+00 -0.00000000000E+00 -0.14458234056E+03  0.14458234056E+03  0.00000000000E+00 0.  1.
         25    2    1    2    0    0  0.58495532771E+01 -0.14299172764E+02 -0.10536223401E+03  0.16425895885E+03  0.12506446974E+03 0.  0.
          5    1    3    3  502    0  0.27319168624E+02  0.29652006631E+02  0.74628054005E+01  0.41215826281E+02  0.41800000000E+01 0. -1.
         -5    1    3    3    0  502 -0.21469615347E+02 -0.43951179395E+02 -0.11282503941E+03  0.12304313256E+03  0.41800000000E+01 0. -1.
        -11    1    1    2    0    0  0.38487644665E+02  0.23832638714E+02  0.11639473234E+03  0.12488805859E+03  0.00000000000E+00 0. -1.
         11    1    1    2    0    0 -0.44337197943E+02 -0.95334659504E+01  0.87535730703E+02  0.98585892724E+02  0.00000000000E+00 0.  1.
</event>
<event>
 7    1  0.2842702E-009  0.1124408E+03  0.7561462E-02  0.1256116E+00
         -1   -1    0    0    0  501 -0.00000000000E+00  0.00000000000E+00  0.88694766266E+02  0.88694766266E+02  0.00000000000E+00 0.  1.
          1   -1    0    0  501    0  0.00000000000E+00 -0.00000000000E+00 -0.18922732944E+03  0.18922732944E+03  0.00000000000E+00 0. -1.
         25    2    1    2    0    0 -0.56469685816E+02  0.42261702230E+02 -0.75405070879E+02  0.16219768109E+03  0.12508911282E+03 0.  0.
          5    1    3    3  502    0  0.68233448561E+01  0.66697770334E+02 -0.64918398205E+02  0.93418528291E+02  0.41800000000E+01 0. -1.
         -5    1    3    3    0  502 -0.63293030672E+02 -0.24436068104E+02 -0.10486672674E+02  0.68779152799E+02  0.41800000000E+01 0. -1.
        -11    1    1    2    0    0  0.33214018572E+02 -0.54216972720E+02  0.17293537619E+02  0.65891711194E+02  0.00000000000E+00 0.  1.
         11    1    1    2    0    0  0.23255667244E+02  0.11955270491E+02 -0.42421029914E+02  0.49832703422E+02  0.00000000000E+00 0. -1.
</event>
<event>
 7    1  0.2842702E-009  0.1135786E+03  0.7561462E-02  0.1254083E+00
         -1   -1    0    0    0  501 -0.00000000000E+00  0.00000000000E+00  0.16570171439E+02  0.16570171439E+02  0.00000000000E+00 0.  1.
          1   -1    0    0  501    0  0.00000000000E+00 -0.00000000000E+00 -0.82694147746E+03  0.82694147746E+03  0.00000000000E+00 0. -1.
         25    2    1    2    0    0  0.57153856699E+01  0.44761143655E+02 -0.40188120775E+03  0.42330407380E+03  0.12506641489E+03 0.  0.
          5    1    3    3  502    0 -0.11237883845E+02 -0.40423787151E+02 -0.18273251549E+03  0.18753404282E+03  0.41800000000E+01 0. -1.
         -5    1    3    3    0  502  0.16953269515E+02  0.85184930806E+02 -0.21914869227E+03  0.23577003097E+03  0.41800000000E+01 0. -1.
        -11    1    1    2    0    0  0.40157941560E+02 -0.28987647338E+02 -0.22756408496E+03  0.23289129810E+03  0.00000000000E+00 0.  1.
         11    1    1    2    0    0 -0.45873327229E+02 -0.15773496317E+02 -0.18092601330E+03  0.18731627700E+03  0.00000000000E+00 0. -1.
</event>
<event>
 7    1  0.2842702E-009  0.9966795E+02  0.7561462E-02  0.1280996E+00
          2   -1    0    0  501    0  0.00000000000E+00  0.00000000000E+00  0.35180483431E+03  0.35180483431E+03  0.00000000000E+00 0. -1.
         -2   -1    0    0    0  501 -0.00000000000E+00 -0.00000000000E+00 -0.43456910216E+02  0.43456910216E+02  0.00000000000E+00 0.  1.
         25    2    1    2    0    0 -0.31111225128E+02  0.49271303099E+02  0.15775368749E+03  0.20960237322E+03  0.12510539280E+03 0.  0.
          5    1    3    3  502    0 -0.28776448889E+02  0.78319663228E+02  0.15955856627E+03  0.18010680756E+03  0.41800000000E+01 0. -1.
         -5    1    3    3    0  502 -0.23347762387E+01 -0.29048360129E+02 -0.18048787860E+01  0.29495565662E+02  0.41800000000E+01 0. -1.
        -11    1    1    2    0    0  0.32343658331E+02  0.44220500573E+01  0.84694461586E+01  0.33725335864E+02  0.00000000000E+00 0.  1.
         11    1    1    2    0    0 -0.12324332028E+01 -0.53693353156E+02  0.14212479045E+03  0.15193403544E+03  0.00000000000E+00 0. -1.
</event>
<event>
 7    1  0.2842702E-009  0.1013566E+03  0.7561462E-02  0.1277469E+00
         -2   -1    0    0    0  501 -0.00000000000E+00  0.00000000000E+00  0.28385650494E+02  0.28385650494E+02  0.00000000000E+00 0.  1.
          2   -1    0    0  501    0  0.00000000000E+00 -0.00000000000E+00 -0.53186781655E+03  0.53186781655E+03  0.00000000000E+00 0. -1.
         25    2    1    2    0    0 -0.47516724044E+02 -0.32806871033E+02 -0.32249588295E+03  0.35068975378E+03  0.12508228906E+03 0.  0.
          5    1    3    3  502    0 -0.83403776732E+01  0.45647678618E+02 -0.77352819126E+02  0.90300628402E+02  0.41800000000E+01 0.  1.
         -5    1    3    3    0  502 -0.39176346371E+02 -0.78454549651E+02 -0.24514306382E+03  0.26038912538E+03  0.41800000000E+01 0.  1.
        -11    1    1    2    0    0 -0.11980621344E+00  0.18627864525E+02  0.31012680424E+01  0.18884638036E+02  0.00000000000E+00 0.  1.
         11    1    1    2    0    0  0.47636530258E+02  0.14179006508E+02 -0.18408755115E+03  0.19067907523E+03  0.00000000000E+00 0. -1.
</event>
<event>
 7    1  0.2842702E-009  0.1071878E+03  0.7561462E-02  0.1265868E+00
          2   -1    0    0  501    0  0.00000000000E+00  0.00000000000E+00  0.52089496397E+02  0.52089496397E+02  0.00000000000E+00 0. -1.
         -2   -1    0    0    0  501 -0.00000000000E+00 -0.00000000000E+00 -0.26396441491E+03  0.26396441491E+03  0.00000000000E+00 0.  1.
         25    2    1    2    0    0  0.19643815108E+02 -0.12525523614E+02 -0.17061661869E+03  0.21283829868E+03  0.12508933847E+03 0.  0.
          5    1    3    3  502    0 -0.28672517194E+02 -0.51121767186E+02 -0.11682150280E+03  0.13076805512E+03  0.41800000000E+01 0.  1.
         -5    1    3    3    0  502  0.48316332302E+02  0.38596243572E+02 -0.53795115886E+02  0.82070243561E+02  0.41800000000E+01 0.  1.
        -11    1    1    2    0    0 -0.42415846881E+02 -0.25367836250E+02 -0.29145917318E+02  0.57376961221E+02  0.00000000000E+00 0.  1.
         11    1    1    2    0    0  0.22772031773E+02  0.37893359864E+02 -0.12112382507E+02  0.45838651407E+02  0.00000000000E+00 0. -1.
</event>
<event>
 7    1  0.2842702E-009  0.1724963E+03  0.7561462E-02  0.1175269E+00
          2   -1    0    0  501    0  0.00000000000E+00  0.00000000000E+00  0.43295305664E+02  0.43295305664E+02  0.00000000000E+00 0. -1.
         -2   -1    0    0    0  501 -0.00000000000E+00 -0.00000000000E+00 -0.97149849430E+03  0.97149849430E+03  0.00000000000E+00 0.  1.
         25    2    1    2    0    0 -0.15238825399E+03  0.30689661870E+02 -0.29025247939E+03  0.35221879709E+03  0.12509014324E+03 0.  0.
          5    1    3    3  502    0 -0.36843100919E+02  0.55183837545E+02 -0.45913431113E+02  0.80797187873E+02  0.41800000000E+01 0. -1.
         -5    1    3    3    0  502 -0.11554515307E+03 -0.24494175675E+02 -0.24433904828E+03  0.27142160922E+03  0.41800000000E+01 0. -1.
        -11    1    1    2    0    0  0.65879739826E+02 -0.33208797038E+02 -0.44539879888E+03  0.45146766702E+03  0.00000000000E+00 0.  1.
         11    1    1    2    0    0  0.86508514160E+02  0.25191351674E+01 -0.19255191036E+03  0.21110733585E+03  0.00000000000E+00 0. -1.
</event>
<event>
 7    1  0.2842702E-009  0.1265193E+03  0.7561462E-02  0.1232714E+00
         -2   -1    0    0    0  501 -0.00000000000E+00  0.00000000000E+00  0.21195834332E+02  0.21195834332E+02  0.00000000000E+00 0.  1.
          2   -1    0    0  501    0  0.00000000000E+00 -0.00000000000E+00 -0.92691541642E+03  0.92691541642E+03  0.00000000000E+00 0. -1.
         25    2    1    2    0    0  0.98565984356E+01 -0.85208053981E+02 -0.41747704263E+03  0.44417569928E+03  0.12508959075E+03 0.  0.
          5    1    3    3  502    0  0.30495417382E+00  0.23597149690E+02 -0.17885805193E+02  0.29904730361E+02  0.41800000000E+01 0.  1.
         -5    1    3    3    0  502  0.95516442617E+01 -0.10880520367E+03 -0.39959123744E+03  0.41427096892E+03  0.41800000000E+01 0.  1.
        -11    1    1    2    0    0  0.34868182380E+02  0.57224454111E+02 -0.20065093058E+03  0.21154485159E+03  0.00000000000E+00 0.  1.
         11    1    1    2    0    0 -0.44724780816E+02  0.27983599870E+02 -0.28759160887E+03  0.29239069987E+03  0.00000000000E+00 0. -1.
</event>
<event>
 7    1  0.2842702E-009  0.1056619E+03  0.7561462E-02  0.1268821E+00
         -1   -1    0    0    0  501 -0.00000000000E+00  0.00000000000E+00  0.85514368542E+02  0.85514368542E+02  0.00000000000E+00 0.  1.
          1   -1    0    0  501    0  0.00000000000E+00 -0.00000000000E+00 -0.15819865730E+03  0.15819865730E+03  0.00000000000E+00 0. -1.
         25    2    1    2    0    0 -0.11450072799E+02 -0.38654362096E+02 -0.48473885810E+02  0.14008304407E+03  0.12509307636E+03 0.  0.
          5    1    3    3  502    0  0.43355767233E+02 -0.39596454369E+02  0.10130912342E+02  0.59730306677E+02  0.41800000000E+01 0. -1.
         -5    1    3    3    0  502 -0.54805840031E+02  0.94209227305E+00 -0.58604798152E+02  0.80352737389E+02  0.41800000000E+01 0. -1.
        -11    1    1    2    0    0 -0.69430373494E+01  0.64991777560E+02 -0.35961355307E+01  0.65460439265E+02  0.00000000000E+00 0.  1.
         11    1    1    2    0    0  0.18393110148E+02 -0.26337415465E+02 -0.20614267416E+02  0.38169542509E+02  0.00000000000E+00 0. -1.
</event>
<event>
 7    1  0.2842702E-009  0.7432460E+02  0.7561462E-02  0.1345975E+00
         -1   -1    0    0    0  501 -0.00000000000E+00  0.00000000000E+00  0.32132683233E+02  0.32132683233E+02  0.00000000000E+00 0.  1.
          1   -1    0    0  501    0  0.00000000000E+00 -0.00000000000E+00 -0.71562455418E+03  0.71562455418E+03  0.00000000000E+00 0. -1.
         25    2    1    2    0    0  0.69790898497E+01  0.12639664146E+02 -0.62631684832E+03  0.63884947240E+03  0.12508950832E+03 0.  0.
          5    1    3    3  502    0 -0.33286412275E+02  0.21261313636E+02 -0.66165655535E+02  0.77171206236E+02  0.41800000000E+01 0. -1.
         -5    1    3    3    0  502  0.40265502124E+02 -0.86216494903E+01 -0.56015119279E+03  0.56167826616E+03  0.41800000000E+01 0. -1.
        -11    1    1    2    0    0 -0.31903776064E+02 -0.24222331324E+02 -0.68362271197E+02  0.79233656896E+02  0.00000000000E+00 0. -1.
         11    1    1    2    0    0  0.24924686214E+02  0.11582667178E+02  0.11187248572E+02  0.29674108116E+02  0.00000000000E+00 0.  1.
</event>
<event>
 6    1  0.2842702E-009  0.1030379E+03  0.7561462E-02  0.1274034E+00
          1   -1    0    0  501    0  0.00000000000E+00  0.00000000000E+00  0.37820610064E+03  0.37820610064E+03  0.00000000000E+00 0. -1.
         -1   -1    0    0    0  501 -0.00000000000E+00 -0.00000000000E+00 -0.32482809281E+02  0.32482809281E+02  0.00000000000E+00 0.  1.
          5    1    1    2  502    0 -0.39219148635E+02 -0.46911152721E+02  0.10601035746E+03  0.12245189324E+03  0.41800000000E+01 0.  1.
         -5    1    1    2    0  502  0.26891280339E+02  0.54694964723E+02  0.53899738251E+02  0.81469836798E+02  0.41800000000E+01 0.  1.
        -11    1    1    2    0    0 -0.30452855472E+02 -0.23135402539E+02  0.12579938934E+03  0.13148425615E+03  0.00000000000E+00 0.  1.
         11    1    1    2    0    0  0.42780723769E+02  0.15351590537E+02  0.60013806307E+02  0.75282923732E+02  0.00000000000E+00 0. -1.
</event>
<event>
 7    1  0.2842702E-009  0.1010592E+03  0.7561462E-02  0.1278084E+00
          2   -1    0    0  501    0  0.00000000000E+00  0.00000000000E+00  0.78864773879E+03  0.78864773879E+03  0.00000000000E+00 0.  1.
         -2   -1    0    0    0  501 -0.00000000000E+00 -0.00000000000E+00 -0.21119987256E+02  0.21119987256E+02  0.00000000000E+00 0. -1.
         25    2    1    2    0    0 -0.39344857782E+02 -0.73829924101E+02  0.49400987440E+03  0.51642255501E+03  0.12509046243E+03 0.  0.
          5    1    3    3  502    0 -0.45653793980E+02 -0.76011631891E+02  0.16536648786E+03  0.18768480171E+03  0.41800000000E+01 0. -1.
         -5    1    3    3    0  502  0.63089361975E+01  0.21817077896E+01  0.32864338654E+03  0.32873775330E+03  0.41800000000E+01 0. -1.
        -11    1    1    2    0    0  0.35150810061E+02  0.38398603170E+01  0.10612509296E+03  0.11186089277E+03  0.00000000000E+00 0.  1.
         11    1    1    2    0    0  0.41940477212E+01  0.69990063784E+02  0.16739278417E+03  0.18148427827E+03  0.00000000000E+00 0. -1.
</event>
<event>
 7    1  0.2842702E-009  0.7967685E+02  0.7561462E-02  0.1329971E+00
         -1   -1    0    0    0  501 -0.00000000000E+00  0.00000000000E+00  0.19216967834E+03  0.19216967834E+03  0.00000000000E+00 0.  1.
          1   -1    0    0  501    0  0.00000000000E+00 -0.00000000000E+00 -0.80376106343E+02  0.80376106343E+02  0.00000000000E+00 0. -1.
         25    2    1    2    0    0 -0.78957605131E+01 -0.59633759508E+02  0.50747907851E+02  0.14778386367E+03  0.12508473889E+03 0.  0.
          5    1    3    3  502    0  0.68877938264E+01 -0.40650158520E+02  0.91402473651E+02  0.10035816699E+03  0.41800000000E+01 0. -1.
         -5    1    3    3    0  502 -0.14783554340E+02 -0.18983600987E+02 -0.40654565800E+02  0.47425696682E+02  0.41800000000E+01 0. -1.
        -11    1    1    2    0    0 -0.29424833845E+02  0.93567531444E+01  0.53397334711E+02  0.61681804695E+02  0.00000000000E+00 0.  1.
         11    1    1    2    0    0  0.37320594358E+02  0.50277006363E+02  0.76483294395E+01  0.63080116323E+02  0.00000000000E+00 0. -1.
</event>
<event>
 7    1  0.3596377E-009  0.9614057E+02  0.7561462E-02  0.1288628E+00
         -4   -1    0    0    0  501 -0.00000000000E+00  0.00000000000E+00  0.70665790817E+02  0.70665790817E+02  0.00000000000E+00 0.  1.
          4   -1    0    0  501    0  0.00000000000E+00 -0.00000000000E+00 -0.22770538829E+03  0.22770538829E+03  0.00000000000E+00 0. -1.
         25    2    1    2    0    0  0.78981786761E+01 -0.52087471654E+02 -0.41937171819E+02  0.14205935186E+03  0.12508655860E+03 0.  0.
          5    1    3    3  502    0 -0.19716599381E+01  0.33041837676E+02  0.17507045110E+02  0.37677838425E+02  0.41800000000E+01 0. -1.
         -5    1    3    3    0  502  0.98698386142E+01 -0.85129309331E+02 -0.59444216929E+02  0.10438151344E+03  0.41800000000E+01 0. -1.
        -11    1    1    2    0    0 -0.88595283591E+00  0.61429150828E+02 -0.12609942985E+03  0.14026899762E+03  0.00000000000E+00 0. -1.
         11    1    1    2    0    0 -0.70122258402E+01 -0.93416791738E+01  0.10997004198E+02  0.16042829624E+02  0.00000000000E+00 0.  1.
</event>
<event>
 7    1  0.2842702E-009  0.1075770E+03  0.7561462E-02  0.1265124E+00
          1   -1    0    0  501    0  0.00000000000E+00  0.00000000000E+00  0.10176173353E+03  0.10176173353E+03  0.00000000000E+00 0. -1.
         -1   -1    0    0    0  501 -0.00000000000E+00 -0.00000000000E+00 -0.17491683698E+03  0.17491683698E+03  0.00000000000E+00 0.  1.
         25    2    1    2    0    0 -0.48423256117E+02  0.39099789904E+02  0.84889659414E+01  0.13997548807E+03  0.12508984536E+03 0.  0.
          5    1    3    3  502    0 -0.73839630635E+02 -0.18792113093E+02  0.64321550363E+01  0.76578584377E+02  0.41800000000E+01 0. -1.
         -5    1    3    3    0  502  0.25416374518E+02  0.57891902997E+02  0.20568109051E+01  0.63396903689E+02  0.41800000000E+01 0. -1.
        -11    1    1    2    0    0  0.93431057557E+01 -0.34956126692E+02 -0.89579113863E+02  0.96610776102E+02  0.00000000000E+00 0.  1.
         11    1    1    2    0    0  0.39080150362E+02 -0.41436632121E+01  0.79350444655E+01  0.40092306341E+02  0.00000000000E+00 0. -1.
</event>
<event>
 7    1  0.2842702E-009  0.1045440E+03  0.7561462E-02  0.1271021E+00
         -1   -1    0    0    0  501 -0.00000000000E+00  0.00000000000E+00  0.25990334566E+02  0.25990334566E+02  0.00000000000E+00 0.  1.
          1   -1    0    0  501    0  0.00000000000E+00 -0.00000000000E+00 -0.77017788183E+03  0.77017788183E+03  0.00000000000E+00 0. -1.
         25    2    1    2    0    0  0.52783287284E+02  0.55969539313E+02 -0.53433600434E+03  0.55414943847E+03  0.12509184574E+03 0.  0.
          5    1    3    3  502    0 -0.19411806182E+02  0.31224176249E+02 -0.38126915586E+03  0.38306058139E+03  0.41800000000E+01 0.  1.
         -5    1    3    3    0  502  0.72195093465E+02  0.24745363064E+02 -0.15306684848E+03  0.17108885708E+03  0.41800000000E+01 0.  1.
        -11    1    1    2    0    0  0.87363467153E+00 -0.39521192513E+02 -0.16643115343E+03  0.17106144138E+03  0.00000000000E+00 0. -1.
         11    1    1    2    0    0 -0.53656921955E+02 -0.16448346800E+02 -0.43420389491E+02  0.70957336546E+02  0.00000000000E+00 0.  1.
</event>
<event>
 7    1  0.2842702E-009  0.1824214E+03  0.7561462E-02  0.1165480E+00
         -2   -1    0    0    0  501 -0.00000000000E+00  0.00000000000E+00  0.44445394349E+02  0.44445394349E+02  0.00000000000E+00 0.  1.
          2   -1    0    0  501    0  0.00000000000E+00 -0.00000000000E+00 -0.96626667291E+03  0.96626667291E+03  0.00000000000E+00 0. -1.
         25    2    1    2    0    0 -0.87350421413E+02  0.10996741635E+03 -0.25668264002E+03  0.31820864307E+03  0.12509130288E+03 0.  0.
          5    1    3    3  502    0 -0.10979070896E+03  0.93067318914E+02 -0.25081412957E+03  0.28920706357E+03  0.41800000000E+01 0.  1.
         -5    1    3    3    0  502  0.22440287550E+02  0.16900097436E+02 -0.58685104501E+01  0.29001579502E+02  0.41800000000E+01 0.  1.
        -11    1    1    2    0    0  0.40966539993E+02 -0.13406299938E+03 -0.50108813385E+03  0.52032726537E+03  0.00000000000E+00 0.  1.
         11    1    1    2    0    0  0.46383881420E+02  0.24095583031E+02 -0.16405050469E+03  0.17217615882E+03  0.00000000000E+00 0. -1.
</event>
<event>
 7    1  0.2857315E-009  0.1276923E+03  0.7561462E-02  0.1230921E+00
          2   -1    0    0  501    0  0.00000000000E+00  0.00000000000E+00  0.82203752916E+03  0.82203752916E+03  0.00000000000E+00 0. -1.
         -2   -1    0    0    0  501 -0.00000000000E+00 -0.00000000000E+00 -0.22349036918E+02  0.22349036918E+02  0.00000000000E+00 0.  1.
         25    2    1    2    0    0  0.69548697169E+02  0.34880775238E+02  0.51196436386E+03  0.53273695865E+03  0.12508983766E+03 0.  0.
          5    1    3    3  502    0 -0.45841950114E+01 -0.34017140054E+02  0.57290120141E+02  0.66916447359E+02  0.41800000000E+01 0.  1.
         -5    1    3    3    0  502  0.74132892181E+02  0.68897915292E+02  0.45467424372E+03  0.46582051129E+03  0.41800000000E+01 0.  1.
        -11    1    1    2    0    0 -0.36077914824E+02 -0.65094390598E+02  0.18852633611E+03  0.20268466896E+03  0.00000000000E+00 0. -1.
         11    1    1    2    0    0 -0.33470782345E+02  0.30213615360E+02  0.99197792267E+02  0.10896493846E+03  0.00000000000E+00 0.  1.
</event>
<event>
 7    1  0.2842702E-009  0.7575139E+02  0.7561462E-02  0.1341560E+00
         -3   -1    0    0    0  501 -0.00000000000E+00  0.00000000000E+00  0.19289421659E+03  0.19289421659E+03  0.00000000000E+00 0.  1.
          3   -1    0    0  501    0  0.00000000000E+00 -0.00000000000E+00 -0.72304305044E+02  0.72304305044E+02  0.00000000000E+00 0. -1.
         25    2    1    2    0    0  0.39309561547E+02  0.35562154190E+00  0.96333711949E+02  0.16270305570E+03  0.12508689852E+03 0.  0.
          5    1    3    3  502    0  0.50200464334E+02 -0.28434995227E+02  0.11336943567E+03  0.12727425865E+03  0.41800000000E+01 0. -1.
         -5    1    3    3    0  502 -0.10890902787E+02  0.28790616769E+02 -0.17035723717E+02  0.35428797045E+02  0.41800000000E+01 0. -1.
        -11    1    1    2    0    0 -0.38855778776E+02 -0.19478533564E+02  0.52641559273E+02  0.68266526034E+02  0.00000000000E+00 0.  1.
         11    1    1    2    0    0 -0.45378277068E+00  0.19122912022E+02 -0.28385359673E+02  0.34228939902E+02  0.00000000000E+00 0. -1.
</event>
<event>
 7    1  0.2842702E-009  0.1075857E+03  0.7561462E-02  0.1265107E+00
          3   -1    0    0  501    0  0.00000000000E+00  0.00000000000E+00  0.29788718268E+03  0.29788718268E+03  0.00000000000E+00 0. -1.
         -3   -1    0    0    0  501 -0.00000000000E+00 -0.00000000000E+00 -0.50028562293E+02  0.50028562293E+02  0.00000000000E+00 0.  1.
         25    2    1    2    0    0  0.36486460518E+02  0.39617236111E+02  0.15696606493E+03  0.20781324686E+03  0.12508881978E+03 0.  0.
          5    1    3    3  502    0 -0.26149875302E+01  0.71778368901E+02  0.13393320907E+03  0.15203469766E+03  0.41800000000E+01 0.  1.
         -5    1    3    3    0  502  0.39101448048E+02 -0.32161132790E+02  0.23032855865E+02  0.55778549203E+02  0.41800000000E+01 0.  1.
        -11    1    1    2    0    0  0.87170446939E+01 -0.45957597022E+02  0.80785586732E+02  0.93350943305E+02  0.00000000000E+00 0. -1.
         11    1    1    2    0    0 -0.45203505212E+02  0.63403609116E+01  0.10106968724E+02  0.46751554806E+02  0.00000000000E+00 0.  1.
</event>
<event>
 7    1  0.2842702E-009  0.2018874E+03  0.7561462E-02  0.1148156E+00
         -2   -1    0    0    0  501 -0.00000000000E+00  0.00000000000E+00  0.30538710509E+03  0.30538710509E+03  0.00000000000E+00 0. -1.
          2   -1    0    0  501    0  0.00000000000E+00 -0.00000000000E+00 -0.17331911901E+03  0.17331911901E+03  0.00000000000E+00 0.  1.
         25    2    1    2    0    0 -0.17802009712E+03  0.20470141748E+02 -0.30323195134E+02  0.22062833455E+03  0.12508870518E+03 0.  0.
          5    1    3    3  502    0 -0.65644709965E+02  0.67438989546E+02 -0.29640136421E+02  0.98758570992E+02  0.41800000000E+01 0.  1.
         -5    1    3    3    0  502 -0.11237538715E+03 -0.46968847798E+02 -0.68305871278E+00  0.12186976356E+03  0.41800000000E+01 0.  1.
        -11    1    1    2    0    0  0.10368486915E+03  0.15982039662E+02  0.13479312338E+03  0.17080738799E+03  0.00000000000E+00 0. -1.
         11    1    1    2    0    0  0.74335227963E+02 -0.36452181410E+02  0.27598057827E+02  0.87270501555E+02  0.00000000000E+00 0.  1.
</event>
<event>
 7    1  0.2842702E-009  0.1595472E+03  0.7561462E-02  0.1189209E+00
          1   -1    0    0  501    0  0.00000000000E+00  0.00000000000E+00  0.34223602768E+03  0.34223602768E+03  0.00000000000E+00 0. -1.
         -1   -1    0    0    0  501 -0.00000000000E+00 -0.00000000000E+00 -0.79658818027E+02  0.79658818027E+02  0.00000000000E+00 0.  1.
         25    2    1    2    0    0  0.10029751290E+03  0.67509661083E+02  0.17620015803E+03  0.24761065760E+03  0.12508955445E+03 0.  0.
          5    1    3    3  502    0 -0.87042389758E+01 -0.25558162948E+02  0.12661273715E+02  0.30112517688E+02  0.41800000000E+01 0.  1.
         -5    1    3    3    0  502  0.10900175187E+03  0.93067824031E+02  0.16353888431E+03  0.21749813991E+03  0.41800000000E+01 0.  1.
        -11    1    1    2    0    0 -0.10807647540E+03 -0.32991222100E+02  0.50099699397E+02  0.12360794938E+03  0.00000000000E+00 0. -1.
         11    1    1    2    0    0  0.77789625009E+01 -0.34518438984E+02  0.36277352228E+02  0.50676238733E+02  0.00000000000E+00 0.  1.
</event>
<event>
 7    1  0.2842702E-009  0.1480439E+03  0.7561462E-02  0.1202898E+00
          2   -1    0    0  501    0  0.00000000000E+00  0.00000000000E+00  0.55237862337E+03  0.55237862337E+03  0.00000000000E+00 0.  1.
         -2   -1    0    0    0  501 -0.00000000000E+00 -0.00000000000E+00 -0.64536204851E+02  0.64536204851E+02  0.00000000000E+00 0. -1.
         25    2    1    2    0    0  0.12793675712E+03 -0.69624454025E+02  0.35129327181E+03  0.40033562686E+03  0.12508506266E+03 0.  0.
          5    1    3    3  502    0  0.12465067781E+03 -0.58368568270E+02  0.35980489744E+03  0.38525539304E+03  0.41800000000E+01 0. -1.
         -5    1    3    3    0  502  0.32860793077E+01 -0.11255885755E+02 -0.85116256363E+01  0.15080233828E+02  0.41800000000E+01 0. -1.
        -11    1    1    2    0    0 -0.32831847668E+02  0.22454317314E+02  0.94255280120E+02  0.10230437145E+03  0.00000000000E+00 0. -1.
         11    1    1    2    0    0 -0.95104909448E+02  0.47170136711E+02  0.42293866590E+02  0.11427482990E+03  0.00000000000E+00 0.  1.
</event>
<event>
 7    1  0.2842702E-009  0.1049742E+03  0.7561462E-02  0.1270170E+00
          1   -1    0    0  501    0  0.00000000000E+00  0.00000000000E+00  0.26918118009E+03  0.26918118009E+03  0.00000000000E+00 0. -1.
         -1   -1    0    0    0  501 -0.00000000000E+00 -0.00000000000E+00 -0.47016929537E+02  0.47016929537E+02  0.00000000000E+00 0.  1.
         25    2    1    2    0    0 -0.55075629334E+01 -0.12625534377E+02  0.16755415529E+03  0.20955107735E+03  0.12509005434E+03 0.  0.
          5    1    3    3  502    0 -0.18176843933E+02 -0.67045562290E+02  0.98989659802E+02  0.12100384385E+03  0.41800000000E+01 0. -1.
         -5    1    3    3    0  502  0.12669281000E+02  0.54420027913E+02  0.68564495486E+02  0.88547233499E+02  0.41800000000E+01 0. -1.
        -11    1    1    2    0    0 -0.64767134144E+01 -0.34805968109E+02  0.44198024170E+02  0.56629220135E+02  0.00000000000E+00 0. -1.
         11    1    1    2    0    0  0.11984276348E+02  0.47431502486E+02  0.10412071100E+02  0.50017812149E+02  0.00000000000E+00 0.  1.
</event>
<event>
 7    1  0.2842702E-009  0.6875006E+02  0.7561462E-02  0.1364396E+00
          2   -1    0    0  501    0  0.00000000000E+00  0.00000000000E+00  0.34993227177E+03  0.34993227177E+03  0.00000000000E+00 0. -1.
         -2   -1    0    0    0  501 -0.00000000000E+00 -0.00000000000E+00 -0.63479396542E+02  0.63479396542E+02  0.00000000000E+00 0.  1.
         25    2    1    2    0    0 -0.28710537390E+02  0.21887991339E+02  0.28694406903E+03  0.31510072354E+03  0.12509271803E+03 0.  0.
          5    1    3    3  502    0 -0.39797800979E+02  0.13653711213E+02  0.18304677673E+02  0.46074097032E+02  0.41800000000E+01 0.  1.
         -5    1    3    3    0  502  0.11087263588E+02  0.82342801259E+01  0.26863939136E+03  0.26902662651E+03  0.41800000000E+01 0.  1.
        -11    1    1    2    0    0 -0.48630344266E+01  0.23687935407E+02 -0.26620743919E+02  0.35964307229E+02  0.00000000000E+00 0.  1.
         11    1    1    2    0    0  0.33573571817E+02 -0.45575926746E+02  0.26129550117E+02  0.62346637541E+02  0.00000000000E+00 0. -1.
</event>
<event>
 7    1  0.2842702E-009  0.1099310E+03  0.7561462E-02  0.1260698E+00
         -4   -1    0    0    0  501 -0.00000000000E+00  0.00000000000E+00  0.33685938651E+03  0.33685938651E+03  0.00000000000E+00 0. -1.
          4   -1    0    0  501    0  0.00000000000E+00 -0.00000000000E+00 -0.50773416314E+02  0.50773416314E+02  0.00000000000E+00 0.  1.
         25    2    1    2    0    0 -0.31048311068E+02  0.45524326654E+02  0.22673174474E+03  0.26474656827E+03  0.12508796665E+03 0.  0.
          5    1    3    3  502    0 -0.66420030167E+02  0.11990281257E+02  0.58073676455E+02  0.89137038031E+02  0.41800000000E+01 0. -1.
         -5    1    3    3    0  502  0.35371719099E+02  0.33534045396E+02  0.16865806829E+03  0.17560953024E+03  0.41800000000E+01 0. -1.
        -11    1    1    2    0    0 -0.28064139531E+02 -0.32218962771E+02  0.41869959279E+02  0.59822662760E+02  0.00000000000E+00 0. -1.
         11    1    1    2    0    0  0.59112450599E+02 -0.13305363883E+02  0.17484266177E+02  0.63063571796E+02  0.00000000000E+00 0.  1.
</event>
<event>
 7    1  0.2842702E-009  0.8313243E+02  0.7561462E-02  0.1320390E+00
         -2   -1    0    0    0  501 -0.00000000000E+00  0.00000000000E+00  0.28096282736E+02  0.28096282736E+02  0.00000000000E+00 0.  1.
          2   -1    0    0  501    0  0.00000000000E+00 -0.00000000000E+00 -0.45218994662E+03  0.45218994662E+03  0.00000000000E+00 0. -1.
         25    2    1    2    0    0  0.14136096187E+02  0.99851029247E+01 -0.32291146025E+03  0.34672809681E+03  0.12509608493E+03 0.  0.
          5    1    3    3  502    0 -0.42338355839E+02  0.87966210186E+01 -0.42937559863E+02  0.61082103463E+02  0.41800000000E+01 0. -1.
         -5    1    3    3    0  502  0.56474452026E+02  0.11884819062E+01 -0.27997390038E+03  0.28564599335E+03  0.41800000000E+01 0. -1.
        -11    1    1    2    0    0 -0.18695289614E+02 -0.35574070863E+02 -0.13956048446E+02  0.42541740206E+02  0.00000000000E+00 0.  1.
         11    1    1    2    0    0  0.45591934266E+01  0.25588967938E+02 -0.87226155190E+02  0.91016392337E+02  0.00000000000E+00 0. -1.
</event>
<event>
 7    1  0.2842702E-009  0.1726610E+03  0.7561462E-02  0.1175101E+00
         -1   -1    0    0    0  501 -0.00000000000E+00  0.00000000000E+00  0.26432028994E+02  0.26432028994E+02  0.00000000000E+00 0.  1.
          1   -1    0    0  501    0  0.00000000000E+00 -0.00000000000E+00 -0.13377724738E+04  0.13377724738E+04  0.00000000000E+00 0. -1.
         25    2    1    2    0    0  0.89959660900E+02 -0.99539082052E+02 -0.42077704267E+03  0.45902217248E+03  0.12508903126E+03 0.  0.
          5    1    3    3  502    0 -0.17699390457E+02 -0.69058021892E+02 -0.16924314325E+03  0.18369265840E+03  0.41800000000E+01 0. -1.
         -5    1    3    3    0  502  0.10765905136E+03 -0.30481060160E+02 -0.25153389942E+03  0.27532951408E+03  0.41800000000E+01 0. -1.
        -11    1    1    2    0    0  0.65621652124E+01 -0.12463685206E+02 -0.69632946026E+02  0.71043315192E+02  0.00000000000E+00 0.  1.
         11    1    1    2    0    0 -0.96521826112E+02  0.11200276726E+03 -0.82093045613E+03  0.83413901515E+03  0.00000000000E+00 0. -1.
</event>
<event>
 7    1  0.2842702E-009  0.2123341E+03  0.7561462E-02  0.1139731E+00
         -3   -1    0    0    0  501 -0.00000000000E+00  0.00000000000E+00  0.15545498849E+04  0.15545498849E+04  0.00000000000E+00 0.  1.
          3   -1    0    0  501    0  0.00000000000E+00 -0.00000000000E+00 -0.38387132022E+02  0.38387132022E+02  0.00000000000E+00 0. -1.
         25    2    1    2    0    0  0.15055242702E+02 -0.19212737913E+03  0.11159130038E+04  0.11393191830E+04  0.12508708448E+03 0.  0.
          5    1    3    3  502    0 -0.54346683110E+02 -0.85658704427E+02  0.44162835598E+03  0.45314904039E+03  0.41800000000E+01 0. -1.
         -5    1    3    3    0  502  0.69401925812E+02 -0.10646867470E+03  0.67428464778E+03  0.68617014263E+03  0.41800000000E+01 0. -1.
        -11    1    1    2    0    0 -0.25769471594E+02  0.10154092277E+03  0.12204417210E+03  0.16083968605E+03  0.00000000000E+00 0. -1.
         11    1    1    2    0    0  0.10714228892E+02  0.90586456358E+02  0.27820557704E+03  0.29277814787E+03  0.00000000000E+00 0.  1.
</event>
<event>
 7    1  0.2842702E-009  0.1031026E+03  0.7561462E-02  0.1273904E+00
          2   -1    0    0  501    0  0.00000000000E+00  0.00000000000E+00  0.15106394659E+03  0.15106394659E+03  0.00000000000E+00 0. -1.
         -2   -1    0    0    0  501 -0.00000000000E+00 -0.00000000000E+00 -0.10201092486E+03  0.10201092486E+03  0.00000000000E+00 0.  1.
         25    2    1    2    0    0  0.41799180495E+02 -0.23972793968E+02  0.57664627352E+02  0.14592856388E+03  0.12509224663E+03 0.  0.
          5    1    3    3  502    0  0.38899290616E+01 -0.67938168757E+02  0.65930779544E+01  0.68495747307E+02  0.41800000000E+01 0.  1.
         -5    1    3    3    0  502  0.37909251434E+02  0.43965374789E+02  0.51071549398E+02  0.77432816573E+02  0.41800000000E+01 0.  1.
        -11    1    1    2    0    0 -0.35324069491E+02 -0.16393441766E+02 -0.39832476833E+02  0.55706023274E+02  0.00000000000E+00 0.  1.
         11    1    1    2    0    0 -0.64751110044E+01  0.40366235734E+02  0.31220871209E+02  0.51440284300E+02  0.00000000000E+00 0. -1.
</event>
<event>
 7    1  0.2842702E-009  0.9755334E+02  0.7561462E-02  0.1285527E+00
         -3   -1    0    0    0  501 -0.00000000000E+00  0.00000000000E+00  0.58179520326E+03  0.58179520326E+03  0.00000000000E+00 0.  1.
          3   -1    0    0  501    0  0.00000000000E+00 -0.00000000000E+00 -0.26535201981E+02  0.26535201981E+02  0.00000000000E+00 0. -1.
         25    2    1    2    0    0  0.39158124533E+02 -0.12182390942E+02  0.20196269626E+03  0.24108202725E+03  0.12509933579E+03 0.  0.
          5    1    3    3  502    0  0.69111964453E+02 -0.65368697217E+01  0.19824728591E+03  0.21009201096E+03  0.41800000000E+01 0. -1.
         -5    1    3    3    0  502 -0.29953839921E+02 -0.56455212203E+01  0.37154103510E+01  0.30990016294E+02  0.41800000000E+01 0. -1.
        -11    1    1    2    0    0 -0.46668831613E+02  0.42766929563E+02  0.28635360206E+03  0.29326673101E+03  0.00000000000E+00 0. -1.
         11    1    1    2    0    0  0.75107070803E+01 -0.30584538621E+02  0.66943702956E+02  0.73981646974E+02  0.00000000000E+00 0.  1.
</event>
<event>
 7    1  0.3023307E-009  0.8685486E+02  0.7561462E-02  0.1310652E+00
          1   -1    0    0  501    0  0.00000000000E+00  0.00000000000E+00  0.32216538542E+03  0.32216538542E+03  0.00000000000E+00 0. -1.
         -1   -1    0    0    0  501 -0.00000000000E+00 -0.00000000000E+00 -0.49846726139E+02  0.49846726139E+02  0.00000000000E+00 0.  1.
         25    2    1    2    0    0  0.62502850679E+02  0.11618699546E+02  0.13078061578E+03  0.19181384326E+03  0.12508948989E+03 0.  0.
          5    1    3    3  502    0  0.40559406575E+02  0.50716172170E+02  0.13156427132E+03  0.14677815052E+03  0.41800000000E+01 0.  1.
         -5    1    3    3    0  502  0.21943444104E+02 -0.39097472624E+02 -0.78365554546E+00  0.45035692742E+02  0.41800000000E+01 0.  1.
        -11    1    1    2    0    0 -0.20035897967E+02 -0.27552272002E+01 -0.10007944974E+02  0.22565182181E+02  0.00000000000E+00 0.  1.
         11    1    1    2    0    0 -0.42466952712E+02 -0.88634723455E+01  0.15154598848E+03  0.15763308612E+03  0.00000000000E+00 0. -1.
</event>
<event>
 7    1  0.2842702E-009  0.1092513E+03  0.7561462E-02  0.1261963E+00
          1   -1    0    0  501    0  0.00000000000E+00  0.00000000000E+00  0.44612319810E+03  0.44612319810E+03  0.00000000000E+00 0. -1.
         -1   -1    0    0    0  501 -0.00000000000E+00 -0.00000000000E+00 -0.32962143896E+02  0.32962143896E+02  0.00000000000E+00 0.  1.
         25    2    1    2    0    0  0.45273407125E+02 -0.93989440592E+00  0.32290262938E+03  0.34923462122E+03  0.12509255694E+03 0.  0.
          5    1    3    3  502    0  0.86772544553E+02 -0.63984168470E+01  0.25383603166E+03  0.26836657317E+03  0.41800000000E+01 0. -1.
         -5    1    3    3    0  502 -0.41499137428E+02  0.54585224411E+01  0.69066597729E+02  0.80868048056E+02  0.41800000000E+01 0. -1.
        -11    1    1    2    0    0 -0.22791415651E+02 -0.38031655324E+02  0.63680513880E+02  0.77595510708E+02  0.00000000000E+00 0.  1.
         11    1    1    2    0    0 -0.22481991475E+02  0.38971549729E+02  0.26577910936E+02  0.52255210063E+02  0.00000000000E+00 0. -1.
</event>
<event>
 7    1  0.2842702E-009  0.1129153E+03  0.7561462E-02  0.1255265E+00
          1   -1    0    0  501    0  0.00000000000E+00  0.00000000000E+00  0.49258046044E+02  0.49258046044E+02  0.00000000000E+00 0. -1.
         -1   -1    0    0    0  501 -0.00000000000E+00 -0.00000000000E+00 -0.29673001360E+03  0.29673001360E+03  0.00000000000E+00 0.  1.
         25    2    1    2    0    0 -0.15544561922E+02  0.29181120519E+02 -0.78737976480E+02  0.15146272335E+03  0.12509243153E+03 0.  0.
          5    1    3    3  502    0  0.32908903604E+02  0.62056311023E+02 -0.48202329239E+02  0.85293133477E+02  0.41800000000E+01 0.  1.
         -5    1    3    3    0  502 -0.48453465526E+02 -0.32875190505E+02 -0.30535647240E+02  0.66169589878E+02  0.41800000000E+01 0.  1.
        -11    1    1    2    0    0  0.23144750793E+02  0.29553128552E+02 -0.67902081178E+02  0.77587109269E+02  0.00000000000E+00 0.  1.
         11    1    1    2    0    0 -0.76001888712E+01 -0.58734249070E+02 -0.10083190990E+03  0.11693822702E+03  0.00000000000E+00 0. -1.
</event>
<event>
 7    1  0.2842702E-009  0.8439875E+02  0.7561462E-02  0.1317012E+00
         -1   -1    0    0    0  501 -0.00000000000E+00  0.00000000000E+00  0.29384050916E+02  0.29384050916E+02  0.00000000000E+00 0.  1.
          1   -1    0    0  501    0  0.00000000000E+00 -0.00000000000E+00 -0.41082114505E+03  0.41082114505E+03  0.00000000000E+00 0. -1.
         25    2    1    2    0    0 -0.49532145935E+01  0.20510748251E+02 -0.21018151232E+03  0.24549584555E+03  0.12508683757E+03 0.  0.
          5    1    3    3  502    0  0.33219535378E+02 -0.18943167032E+02 -0.12742882494E+02  0.40524493361E+02  0.41800000000E+01 0.  1.
         -5    1    3    3    0  502 -0.38172749972E+02  0.39453915282E+02 -0.19743862982E+03  0.20497135219E+03  0.41800000000E+01 0.  1.
        -11    1    1    2    0    0 -0.33393052743E+02 -0.14709699875E+02 -0.27164944255E+02  0.45490718156E+02  0.00000000000E+00 0.  1.
         11    1    1    2    0    0  0.38346267337E+02 -0.58010483754E+01 -0.14409063756E+03  0.14921863226E+03  0.00000000000E+00 0. -1.
</event>
<event>
 7    1  0.2842702E-009  0.1091974E+03  0.7561462E-02  0.1262063E+00
          2   -1    0    0  501    0  0.00000000000E+00  0.00000000000E+00  0.49521498391E+03  0.49521498391E+03  0.00000000000E+00 0. -1.
         -2   -1    0    0    0  501 -0.00000000000E+00 -0.00000000000E+00 -0.44207656955E+02  0.44207656955E+02  0.00000000000E+00 0.  1.
         25    2    1    2    0    0  0.78912512624E+02  0.46063529311E+02  0.30429784369E+03  0.34145813008E+03  0.12508974195E+03 0.  0.
          5    1    3    3  502    0  0.28334324173E+02 -0.32876631813E+01  0.25150130370E+03  0.25314821907E+03  0.41800000000E+01 0.  1.
         -5    1    3    3    0  502  0.50578188452E+02  0.49351192493E+02  0.52796539992E+02  0.88309911010E+02  0.41800000000E+01 0.  1.
        -11    1    1    2    0    0 -0.93839891200E+02 -0.44215030486E+02  0.15018396951E+03  0.18252703580E+03  0.00000000000E+00 0. -1.
         11    1    1    2    0    0  0.14927378576E+02 -0.18484988254E+01 -0.34744862490E+01  0.15437474980E+02  0.00000000000E+00 0.  1.
</event>
<event>
 7    1  0.2842702E-009  0.8561470E+02  0.7561462E-02  0.1313833E+00
          2   -1    0    0  501    0  0.00000000000E+00  0.00000000000E+00  0.93809944838E+03  0.93809944838E+03  0.00000000000E+00 0. -1.
         -2   -1    0    0    0  501 -0.00000000000E+00 -0.00000000000E+00 -0.13488491686E+02  0.13488491686E+02  0.00000000000E+00 0.  1.
         25    2    1    2    0    0 -0.85425023456E+01  0.34456302326E+02  0.59927582714E+03  0.61322241664E+03  0.12509997665E+03 0.  0.
          5    1    3    3  502    0 -0.40981179608E+02  0.48543630748E+02  0.15562260478E+03  0.16814222755E+03  0.41800000000E+01 0. -1.
         -5    1    3    3    0  502  0.32438677262E+02 -0.14087328421E+02  0.44365322237E+03  0.44508018909E+03  0.41800000000E+01 0. -1.
        -11    1    1    2    0    0 -0.13069378786E+02  0.13842659810E+02  0.17000121474E+02  0.25523166390E+02  0.00000000000E+00 0.  1.
         11    1    1    2    0    0  0.21611881131E+02 -0.48298962136E+02  0.30833500808E+03  0.31284235704E+03  0.00000000000E+00 0. -1.
</event>
<event>
 7    1  0.2842702E-009  0.8639115E+02  0.7561462E-02  0.1311834E+00
         -1   -1    0    0    0  501 -0.00000000000E+00  0.00000000000E+00  0.15486108325E+02  0.15486108325E+02  0.00000000000E+00 0.  1.
          1   -1    0    0  501    0  0.00000000000E+00 -0.00000000000E+00 -0.54746337098E+03  0.54746337098E+03  0.00000000000E+00 0. -1.
         25    2    1    2    0    0  0.33649678595E+02  0.20637217144E+02 -0.39655954199E+03  0.41769051044E+03  0.12509075333E+03 0.  0.
          5    1    3    3  502    0  0.72937865948E+02 -0.16408082346E+02 -0.19204686897E+03  0.20612770249E+03  0.41800000000E+01 0.  1.
         -5    1    3    3    0  502 -0.39288187354E+02  0.37045299490E+02 -0.20451267302E+03  0.21156280795E+03  0.41800000000E+01 0.  1.
        -11    1    1    2    0    0 -0.38127245526E+01 -0.12134323782E+02 -0.10342934839E+02  0.16393748298E+02  0.00000000000E+00 0.  1.
         11    1    1    2    0    0 -0.29836954042E+02 -0.85028933625E+01 -0.12507478582E+03  0.12886522056E+03  0.00000000000E+00 0. -1.
</event>
<event>
 7    1  0.2976323E-009  0.1057957E+03  0.7561462E-02  0.1268560E+00
          1   -1    0    0  501    0  0.00000000000E+00  0.00000000000E+00  0.15382548494E+04  0.15382548494E+04  0.00000000000E+00 0. -1.
         -1   -1    0    0    0  501 -0.00000000000E+00 -0.00000000000E+00 -0.83036072604E+01  0.83036072604E+01  0.00000000000E+00 0.  1.
         25    2    1    2    0    0 -0.26816909624E+02 -0.54417807537E+01  0.10031704138E+04  0.10113096819E+04  0.12509050311E+03 0.  0.
          5    1    3    3  502    0  0.31261844755E+01  0.51931353160E+02  0.66033220183E+03  0.66239167238E+03  0.41800000000E+01 0.  1.
         -5    1    3    3    0  502 -0.29943094100E+02 -0.57373133914E+02  0.34283821193E+03  0.34891800948E+03  0.41800000000E+01 0.  1.
        -11    1    1    2    0    0  0.14639841183E+02  0.48051001601E+02  0.25905425801E+03  0.26387938968E+03  0.00000000000E+00 0. -1.
         11    1    1    2    0    0  0.12177068441E+02 -0.42609220847E+02  0.26772657035E+03  0.27136938510E+03  0.00000000000E+00 0.  1.
</event>
<event>
 7    1  0.2842702E-009  0.1568354E+03  0.7561462E-02  0.1192317E+00
         -2   -1    0    0    0  501 -0.00000000000E+00  0.00000000000E+00  0.43579487689E+02  0.43579487689E+02  0.00000000000E+00 0. -1.
          2   -1    0    0  501    0  0.00000000000E+00 -0.00000000000E+00 -0.86984366357E+03  0.86984366357E+03  0.00000000000E+00 0.  1.
         25    2    1    2    0    0  0.11115235535E+03 -0.88172590614E+02 -0.25454133354E+03  0.31711904003E+03  0.12507574998E+03 0.  0.
          5    1    3    3  502    0  0.50719160315E+02 -0.60109792043E+02 -0.32402420055E+02  0.85164602670E+02  0.41800000000E+01 0. -1.
         -5    1    3    3    0  502  0.60433195031E+02 -0.28062798571E+02 -0.22213891349E+03  0.23195443736E+03  0.41800000000E+01 0. -1.
        -11    1    1    2    0    0 -0.90480252616E+01  0.62117245176E+02 -0.17891641900E+03  0.18960881809E+03  0.00000000000E+00 0.  1.
         11    1    1    2    0    0 -0.10210433008E+03  0.26055345437E+02 -0.39280642334E+03  0.40669529314E+03  0.00000000000E+00 0. -1.
</event>
<event>
 7    1  0.2842702E-009  0.9657217E+02  0.7561462E-02  0.1287674E+00
          1   -1    0    0  501    0  0.00000000000E+00  0.00000000000E+00  0.31671360730E+03  0.31671360730E+03  0.00000000000E+00 0. -1.
         -1   -1    0    0    0  501 -0.00000000000E+00 -0.00000000000E+00 -0.54213029918E+02  0.54213029918E+02  0.00000000000E+00 0.  1.
         25    2    1    2    0    0 -0.65721146904E+02 -0.10955893740E+02  0.97450563093E+02  0.17199725080E+03  0.12508853375E+03 0.  0.
          5    1    3    3  502    0  0.17475516506E+01  0.10714524191E+02 -0.26622087317E+02  0.29052760601E+02  0.41800000000E+01 0. -1.
         -5    1    3    3    0  502 -0.67468698555E+02 -0.21670417930E+02  0.12407265041E+03  0.14294449020E+03  0.41800000000E+01 0. -1.
        -11    1    1    2    0    0 -0.51680258505E+01  0.35220566038E+02  0.44425004277E+02  0.56927829471E+02  0.00000000000E+00 0.  1.
         11    1    1    2    0    0  0.70889172755E+02 -0.24264672298E+02  0.12062501001E+03  0.14200155695E+03  0.00000000000E+00 0. -1.
</event>
<event>
 7    1  0.2842702E-009  0.1006198E+03  0.7561462E-02  0.1278998E+00
          2   -1    0    0  501    0  0.00000000000E+00  0.00000000000E+00  0.16993157417E+02  0.16993157417E+02  0.00000000000E+00 0. -1.
         -2   -1    0    0    0  501 -0.00000000000E+00 -0.00000000000E+00 -0.93279291704E+03  0.93279291704E+03  0.00000000000E+00 0.  1.
         25    2    1    2    0    0 -0.68185670661E+01 -0.61398596383E+02 -0.55396371127E+03  0.57126122617E+03  0.12508922666E+03 0.  0.
          5    1    3    3  502    0  0.11472979974E+02  0.18748541279E+02 -0.17196805887E+02  0.28219489760E+02  0.41800000000E+01 0. -1.
         -5    1    3    3    0  502 -0.18291547040E+02 -0.80147137662E+02 -0.53676690538E+03  0.54304173641E+03  0.41800000000E+01 0. -1.
        -11    1    1    2    0    0 -0.33847637495E+02  0.27812136562E+02 -0.26176396030E+03  0.26540449961E+03  0.00000000000E+00 0.  1.
         11    1    1    2    0    0  0.40666204561E+02  0.33586459821E+02 -0.10007208806E+03  0.11312034868E+03  0.00000000000E+00 0. -1.
</event>
<event>
 7    1  0.2842702E-009  0.9771602E+02  0.7561462E-02  0.1285173E+00
          2   -1    0    0  501    0  0.00000000000E+00  0.00000000000E+00  0.10155612621E+04  0.10155612621E+04  0.00000000000E+00 0. -1.
         -2   -1    0    0    0  501 -0.00000000000E+00 -0.00000000000E+00 -0.13433803285E+02  0.13433803285E+02  0.00000000000E+00 0.  1.
         25    2    1    2    0    0  0.39275834357E+02  0.18410706715E+02  0.58373792587E+03  0.59856280129E+03  0.12508363486E+03 0.  0.
          5    1    3    3  502    0 -0.17501870353E+02  0.34416721568E+02  0.59843192778E+02  0.71340775936E+02  0.41800000000E+01 0.  1.
         -5    1    3    3    0  502  0.56777704709E+02 -0.16006014853E+02  0.52389473309E+03  0.52722202536E+03  0.41800000000E+01 0.  1.
        -11    1    1    2    0    0  0.13952084925E+02  0.25093886914E+02  0.76744004937E+02  0.81939039096E+02  0.00000000000E+00 0. -1.
         11    1    1    2    0    0 -0.53227919281E+02 -0.43504593629E+02  0.34164552801E+03  0.34849322500E+03  0.00000000000E+00 0.  1.
</event>
<event>
 7    1  0.2842702E-009  0.1216903E+03  0.7561462E-02  0.1240334E+00
         -1   -1    0    0    0  501 -0.00000000000E+00  0.00000000000E+00  0.28963236476E+02  0.28963236476E+02  0.00000000000E+00 0.  1.
          1   -1    0    0  501    0  0.00000000000E+00 -0.00000000000E+00 -0.89638039469E+03  0.89638039469E+03  0.00000000000E+00 0. -1.
         25    2    1    2    0    0 -0.90066904945E+02 -0.64088017950E+02 -0.34070709656E+03  0.37940859365E+03  0.12510089477E+03 0.  0.
          5    1    3    3  502    0 -0.64517813614E+02 -0.48013161927E+02 -0.33949008420E+03  0.34891087926E+03  0.41800000000E+01 0. -1.
         -5    1    3    3    0  502 -0.25549091331E+02 -0.16074856023E+02 -0.12170123619E+01  0.30497714391E+02  0.41800000000E+01 0. -1.
        -11    1    1    2    0    0  0.51065797989E+02 -0.67511339040E+01 -0.11015748007E+03  0.12160577268E+03  0.00000000000E+00 0.  1.
         11    1    1    2    0    0  0.39001106956E+02  0.70839151854E+02 -0.41655258158E+03  0.42432926484E+03  0.00000000000E+00 0. -1.
</event>
<event>
 7    1  0.2842702E-009  0.9746050E+02  0.7561462E-02  0.1285729E+00
          1   -1    0    0  501    0  0.00000000000E+00  0.00000000000E+00  0.45650752972E+03  0.45650752972E+03  0.00000000000E+00 0. -1.
         -1   -1    0    0    0  501 -0.00000000000E+00 -0.00000000000E+00 -0.22731392545E+02  0.22731392545E+02  0.00000000000E+00 0.  1.
         25    2    1    2    0    0 -0.24521190142E+01 -0.26541530653E+02  0.22518665205E+03  0.25897155999E+03  0.12508706921E+03 0.  0.
          5    1    3    3  502    0 -0.46518293169E+02 -0.56850869117E+02  0.14314751603E+03  0.16094923630E+03  0.41800000000E+01 0. -1.
         -5    1    3    3    0  502  0.44066174155E+02  0.30309338464E+02  0.82039136021E+02  0.98022323691E+02  0.41800000000E+01 0. -1.
        -11    1    1    2    0    0  0.18956013235E+02 -0.14236740693E+02  0.44957368414E+02  0.50824995800E+02  0.00000000000E+00 0.  1.
         11    1    1    2    0    0 -0.16503894221E+02  0.40778271346E+02  0.16363211671E+03  0.16944236647E+03  0.00000000000E+00 0. -1.
</event>
<event>
 7    1  0.2842702E-009  0.1106207E+03  0.7561462E-02  0.1259425E+00
          1   -1    0    0  501    0  0.00000000000E+00  0.00000000000E+00  0.86680060094E+03  0.86680060094E+03  0.00000000000E+00 0. -1.
         -1   -1    0    0    0  501 -0.00000000000E+00 -0.00000000000E+00 -0.14261682644E+02  0.14261682644E+02  0.00000000000E+00 0.  1.
         25    2    1    2    0    0  0.55985396462E+01  0.24493234523E+02  0.52936846150E+03  0.54452709856E+03  0.12509009091E+03 0.  0.
          5    1    3    3  502    0  0.48562390093E+02 -0.30477590234E+02  0.25446356415E+03  0.26087615283E+03  0.41800000000E+01 0. -1.
         -5    1    3    3    0  502 -0.42963850446E+02  0.54970824757E+02  0.27490489736E+03  0.28365094572E+03  0.41800000000E+01 0. -1.
        -11    1    1    2    0    0 -0.23986781812E+02  0.28802403829E+02  0.13367610674E+03  0.13883171713E+03  0.00000000000E+00 0. -1.
         11    1    1    2    0    0  0.18388242166E+02 -0.53295638352E+02  0.18949435005E+03  0.19770346790E+03  0.00000000000E+00 0.  1.
</event>
<event>
 7    1  0.2842702E-009  0.1805301E+03  0.7561462E-02  0.1167291E+00
          1   -1    0    0  501    0  0.00000000000E+00  0.00000000000E+00  0.59725028194E+03  0.59725028194E+03  0.00000000000E+00 0. -1.
         -1   -1    0    0    0  501 -0.00000000000E+00 -0.00000000000E+00 -0.72436658308E+02  0.72436658308E+02  0.00000000000E+00 0.  1.
         25    2    1    2    0    0  0.82681910594E+02  0.15493929813E+03  0.31736063206E+03  0.38367583696E+03  0.12508753989E+03 0.  0.
          5    1    3    3  502    0  0.43189584133E+02  0.11677797410E+03  0.10088874582E+03  0.16030735119E+03  0.41800000000E+01 0.  1.
         -5    1    3    3    0  502  0.39492326461E+02  0.38161324033E+02  0.21647188624E+03  0.22336848577E+03  0.41800000000E+01 0.  1.
        -11    1    1    2    0    0 -0.23251738206E+02 -0.11087208402E+02 -0.10972238826E+01  0.25783200344E+02  0.00000000000E+00 0. -1.
         11    1    1    2    0    0 -0.59430172388E+02 -0.14385208973E+03  0.20855021546E+03  0.26022790295E+03  0.00000000000E+00 0.  1.
</event>
<event>
 7    1  0.2842702E-009  0.9572931E+02  0.7561462E-02  0.1289542E+00
         -2   -1    0    0    0  501 -0.00000000000E+00  0.00000000000E+00  0.60111949000E+02  0.60111949000E+02  0.00000000000E+00 0.  1.
          2   -1    0    0  501    0  0.00000000000E+00 -0.00000000000E+00 -0.20779554165E+03  0.20779554165E+03  0.00000000000E+00 0. -1.
         25    2    1    2    0    0 -0.38156198966E+01 -0.17611770344E+02 -0.78842491134E+02  0.14895641024E+03  0.12508852998E+03 0.  0.
          5    1    3    3  502    0  0.55691210088E+02 -0.80787398413E+01 -0.98993837939E+01  0.57290899086E+02  0.41800000000E+01 0. -1.
         -5    1    3    3    0  502 -0.59506829985E+02 -0.95330305024E+01 -0.68943107340E+02  0.91665511154E+02  0.41800000000E+01 0. -1.
        -11    1    1    2    0    0 -0.27300505140E+02  0.30505086599E+02  0.14966778027E+01  0.40964837773E+02  0.00000000000E+00 0.  1.
         11    1    1    2    0    0  0.31116125036E+02 -0.12893316255E+02 -0.70337779324E+02  0.77986242643E+02  0.00000000000E+00 0. -1.
</event>
<event>
 7    1  0.2842702E-009  0.2965632E+03  0.7561462E-02  0.1086971E+00
         -1   -1    0    0    0  501 -0.00000000000E+00  0.00000000000E+00  0.71381862299E+03  0.71381862299E+03  0.00000000000E+00 0.  1.
          1   -1    0    0  501    0  0.00000000000E+00 -0.00000000000E+00 -0.13695170572E+03  0.13695170572E+03  0.00000000000E+00 0. -1.
         25    2    1    2    0    0  0.28324521009E+03  0.60867450878E+02  0.24251934162E+03  0.39798946391E+03  0.12508911506E+03 0.  0.
          5    1    3    3  502    0  0.23185518510E+03  0.49067015476E+02  0.12245416149E+03  0.26678997907E+03  0.41800000000E+01 0.  1.
         -5    1    3    3    0  502  0.51390024997E+02  0.11800435402E+02  0.12006518012E+03  0.13119948484E+03  0.41800000000E+01 0.  1.
        -11    1    1    2    0    0 -0.12509573272E+03  0.18166718471E+02  0.11352753453E+03  0.16990430572E+03  0.00000000000E+00 0. -1.
         11    1    1    2    0    0 -0.15814947737E+03 -0.79034169349E+02  0.22082004112E+03  0.28287655908E+03  0.00000000000E+00 0.  1.
</event>
<event>
 7    1  0.2842702E-009  0.3372486E+03  0.7561462E-02  0.1067974E+00
          3   -1    0    0  501    0  0.00000000000E+00  0.00000000000E+00  0.16976866608E+04  0.16976866608E+04  0.00000000000E+00 0. -1.
         -3   -1    0    0    0  501 -0.00000000000E+00 -0.00000000000E+00 -0.67531018448E+02  0.67531018448E+02  0.00000000000E+00 0.  1.
         25    2    1    2    0    0  0.12587769885E+03  0.29531791122E+03  0.78404915467E+03  0.85640831258E+03  0.12507700489E+03 0.  0.
          5    1    3    3  502    0 -0.24572344885E+01  0.15076429005E+03  0.32476693008E+03  0.35808789484E+03  0.41800000000E+01 0.  1.
         -5    1    3    3    0  502  0.12833493334E+03  0.14455362117E+03  0.45928222459E+03  0.49832041774E+03  0.41800000000E+01 0.  1.
        -11    1    1    2    0    0 -0.10378900209E+03 -0.28938789263E+03  0.76289868151E+03  0.82251559718E+03  0.00000000000E+00 0.  1.
         11    1    1    2    0    0 -0.22088696766E+02 -0.59300185931E+01  0.83207806149E+02  0.86293769471E+02  0.00000000000E+00 0. -1.
</event>
<event>
 7    1  0.2842702E-009  0.1648192E+03  0.7561462E-02  0.1183361E+00
         -3   -1    0    0    0  501 -0.00000000000E+00  0.00000000000E+00  0.13646346805E+04  0.13646346805E+04  0.00000000000E+00 0.  1.
          3   -1    0    0  501    0  0.00000000000E+00 -0.00000000000E+00 -0.22603478404E+02  0.22603478404E+02  0.00000000000E+00 0. -1.
         25    2    1    2    0    0 -0.90104315776E+02 -0.99416245584E+02  0.76731800366E+03  0.78894069508E+03  0.12509246182E+03 0.  0.
          5    1    3    3  502    0  0.25738709212E+02 -0.46989145502E+02  0.17283639807E+03  0.18099821504E+03  0.41800000000E+01 0.  1.
         -5    1    3    3    0  502 -0.11584302499E+03 -0.52427100082E+02  0.59448160559E+03  0.60794248004E+03  0.41800000000E+01 0.  1.
        -11    1    1    2    0    0  0.72826694175E+02  0.32829790144E+02  0.43830011426E+03  0.44552049635E+03  0.00000000000E+00 0.  1.
         11    1    1    2    0    0  0.17277621601E+02  0.66586455440E+02  0.13641308414E+03  0.15277696744E+03  0.00000000000E+00 0. -1.
</event>
<event>
 7    1  0.2842702E-009  0.1646729E+03  0.7561462E-02  0.1183520E+00
          1   -1    0    0  501    0  0.00000000000E+00  0.00000000000E+00  0.22489331462E+03  0.22489331462E+03  0.00000000000E+00 0. -1.
         -1   -1    0    0    0  501 -0.00000000000E+00 -0.00000000000E+00 -0.14351591563E+03  0.14351591563E+03  0.00000000000E+00 0.  1.
         25    2    1    2    0    0  0.11577584095E+03  0.67220671646E+02 -0.82644778023E+01  0.18339774415E+03  0.12507504515E+03 0.  0.
          5    1    3    3  502    0  0.55894051291E+02  0.10004483684E+03 -0.83802948094E+01  0.11498180765E+03  0.41800000000E+01 0. -1.
         -5    1    3    3    0  502  0.59881789661E+02 -0.32824165196E+02  0.11581700713E+00  0.68415936502E+02  0.41800000000E+01 0. -1.
        -11    1    1    2    0    0 -0.53658475428E+02 -0.64741085541E+02  0.89555308095E+02  0.12284459024E+03  0.00000000000E+00 0. -1.
         11    1    1    2    0    0 -0.62117365525E+02 -0.24795861055E+01  0.86568703166E-01  0.62166895862E+02  0.00000000000E+00 0.  1.
</event>
<event>
 7    1  0.2842702E-009  0.9713941E+02  0.7561462E-02  0.1286429E+00
          2   -1    0    0  501    0  0.00000000000E+00  0.00000000000E+00  0.10143684349E+03  0.10143684349E+03  0.00000000000E+00 0. -1.
         -2   -1    0    0    0  501 -0.00000000000E+00 -0.00000000000E+00 -0.15592578058E+03  0.15592578058E+03  0.00000000000E+00 0.  1.
         25    2    1    2    0    0  0.56982836043E+02  0.41875356723E+01  0.13420007217E-02  0.13752268012E+03  0.12509160039E+03 0.  0.
          5    1    3    3  502    0  0.91946726420E+01  0.31368546953E+02  0.52112000337E+02  0.61657608793E+02  0.41800000000E+01 0. -1.
         -5    1    3    3    0  502  0.47788163401E+02 -0.27181011281E+02 -0.52110658337E+02  0.75865071329E+02  0.41800000000E+01 0. -1.
        -11    1    1    2    0    0  0.44667445034E+01  0.33701750532E+02 -0.11887715070E+02  0.36014963070E+02  0.00000000000E+00 0. -1.
         11    1    1    2    0    0 -0.61449580547E+02 -0.37889286204E+02 -0.42602564020E+02  0.83824980880E+02  0.00000000000E+00 0.  1.
</event>
<event>
 7    1  0.2842702E-009  0.3078946E+03  0.7561462E-02  0.1081359E+00
          2   -1    0    0  501    0  0.00000000000E+00  0.00000000000E+00  0.19567225937E+03  0.19567225937E+03  0.00000000000E+00 0. -1.
         -2   -1    0    0    0  501 -0.00000000000E+00 -0.00000000000E+00 -0.77945324934E+03  0.77945324934E+03  0.00000000000E+00 0.  1.
         25    2    1    2    0    0 -0.29442758507E+03 -0.51529739707E+02 -0.13063336356E+02  0.32428568648E+03  0.12509052231E+03 0.  0.
          5    1    3    3  502    0 -0.10019836012E+03 -0.57897955020E+02 -0.50506012905E+02  0.12633374176E+03  0.41800000000E+01 0. -1.
         -5    1    3    3    0  502 -0.19422922495E+03  0.63682153135E+01  0.37442676549E+02  0.19795194472E+03  0.41800000000E+01 0. -1.
        -11    1    1    2    0    0  0.18269214794E+03  0.63092206732E+02 -0.42470201163E+03  0.46661423698E+03  0.00000000000E+00 0.  1.
         11    1    1    2    0    0  0.11173543713E+03 -0.11562467026E+02 -0.14601564199E+03  0.18422558525E+03  0.00000000000E+00 0. -1.
</event>
<event>
 7    1  0.3676065E-009  0.1162033E+03  0.7561462E-02  0.1249495E+00
         -3   -1    0    0    0  501 -0.00000000000E+00  0.00000000000E+00  0.13241665483E+03  0.13241665483E+03  0.00000000000E+00 0.  1.
          3   -1    0    0  501    0  0.00000000000E+00 -0.00000000000E+00 -0.14025012744E+03  0.14025012744E+03  0.00000000000E+00 0. -1.
         25    2    1    2    0    0  0.44913017407E+02 -0.69326212776E+02  0.74424719608E+00  0.14990477113E+03  0.12509030175E+03 0.  0.
          5    1    3    3  502    0  0.82439740462E+02 -0.72361026935E+02 -0.10805469082E+02  0.11030258197E+03  0.41800000000E+01 0. -1.
         -5    1    3    3    0  502 -0.37526723055E+02  0.30348141591E+01  0.11549716278E+02  0.39602189161E+02  0.41800000000E+01 0. -1.
        -11    1    1    2    0    0 -0.10021614469E+02  0.32558619618E+02  0.40009849298E+02  0.52547925828E+02  0.00000000000E+00 0.  1.
         11    1    1    2    0    0 -0.34891402938E+02  0.36767593158E+02 -0.48587569105E+02  0.70214085319E+02  0.00000000000E+00 0. -1.
</event>
<event>
 7    1  0.2842702E-009  0.1073029E+03  0.7561462E-02  0.1265648E+00
          2   -1    0    0  501    0  0.00000000000E+00  0.00000000000E+00  0.29853627298E+03  0.29853627298E+03  0.00000000000E+00 0. -1.
         -2   -1    0    0    0  501 -0.00000000000E+00 -0.00000000000E+00 -0.64992408714E+02  0.64992408714E+02  0.00000000000E+00 0.  1.
         25    2    1    2    0    0 -0.66482931020E+02  0.22435713697E+02  0.98261500128E+02  0.17386207946E+03  0.12509739765E+03 0.  0.
          5    1    3    3  502    0 -0.93180788948E+02  0.48747441305E+02  0.78391997300E+02  0.13123166578E+03  0.41800000000E+01 0. -1.
         -5    1    3    3    0  502  0.26697857928E+02 -0.26311727608E+02  0.19869502828E+02  0.42630413677E+02  0.41800000000E+01 0. -1.
        -11    1    1    2    0    0  0.10060866436E+02 -0.93276916159E+01 -0.19817552730E+02  0.24103158725E+02  0.00000000000E+00 0.  1.
         11    1    1    2    0    0  0.56422064584E+02 -0.13108022081E+02  0.15509991687E+03  0.16556344351E+03  0.00000000000E+00 0. -1.
</event>
<event>
 7    1  0.2842702E-009  0.6961446E+02  0.7561462E-02  0.1361409E+00
         -1   -1    0    0    0  501 -0.00000000000E+00  0.00000000000E+00  0.31219737070E+02  0.31219737070E+02  0.00000000000E+00 0.  1.
          1   -1    0    0  501    0  0.00000000000E+00 -0.00000000000E+00 -0.39334488187E+03  0.39334488187E+03  0.00000000000E+00 0. -1.
         25    2    1    2    0    0 -0.10934421059E+02  0.13133064857E+02 -0.27325867870E+03  0.30101410235E+03  0.12508855012E+03 0.  0.
          5    1    3    3  502    0  0.13550328446E+02 -0.26863280573E+02 -0.24334412559E+03  0.24523271213E+03  0.41800000000E+01 0. -1.
         -5    1    3    3    0  502 -0.24484749505E+02  0.39996345431E+02 -0.29914553116E+02  0.55781390215E+02  0.41800000000E+01 0. -1.
        -11    1    1    2    0    0 -0.23630502617E+02  0.26394675622E+01  0.31629131434E+01  0.23986901894E+02  0.00000000000E+00 0.  1.
         11    1    1    2    0    0  0.34564923676E+02 -0.15772532419E+02 -0.92029379239E+02  0.99563614693E+02  0.00000000000E+00 0. -1.
</event>
<event>
 7    1  0.2842702E-009  0.6717445E+02  0.7561462E-02  0.1369974E+00
          1   -1    0    0  501    0  0.00000000000E+00  0.00000000000E+00  0.63987494631E+02  0.63987494631E+02  0.00000000000E+00 0. -1.
         -1   -1    0    0    0  501 -0.00000000000E+00 -0.00000000000E+00 -0.22191832671E+03  0.22191832671E+03  0.00000000000E+00 0.  1.
         25    2    1    2    0    0 -0.19059905763E+02  0.13833770668E+02 -0.14490565003E+03  0.19287392360E+03  0.12509216513E+03 0.  0.
          5    1    3    3  502    0 -0.37470940626E+02 -0.21844232588E+02 -0.11828451604E+01  0.43590290335E+02  0.41800000000E+01 0.  1.
         -5    1    3    3    0  502  0.18411034864E+02  0.35678003257E+02 -0.14372280487E+03  0.14928363327E+03  0.41800000000E+01 0.  1.
        -11    1    1    2    0    0  0.15210688085E+02  0.14974645694E+02 -0.45009687251E+02  0.49814425543E+02  0.00000000000E+00 0.  1.
         11    1    1    2    0    0  0.38492176772E+01 -0.28808416362E+02  0.31984505204E+02  0.43217472198E+02  0.00000000000E+00 0. -1.
</event>
<event>
 7    1  0.2842702E-009  0.1309628E+03  0.7561462E-02  0.1226034E+00
          1   -1    0    0  501    0  0.00000000000E+00  0.00000000000E+00  0.10527326482E+04  0.10527326482E+04  0.00000000000E+00 0. -1.
         -1   -1    0    0    0  501 -0.00000000000E+00 -0.00000000000E+00 -0.16369956495E+02  0.16369956495E+02  0.00000000000E+00 0.  1.
         25    2    1    2    0    0  0.36216313495E+02  0.67070290933E+02  0.57554765308E+03  0.59389548788E+03  0.12508678695E+03 0.  0.
          5    1    3    3  502    0 -0.23344047738E+02  0.81608816229E+02  0.34125733579E+03  0.35168023129E+03  0.41800000000E+01 0.  1.
         -5    1    3    3    0  502  0.59560361233E+02 -0.14538525295E+02  0.23429031729E+03  0.24221525659E+03  0.41800000000E+01 0.  1.
        -11    1    1    2    0    0  0.20328656453E+02 -0.53651877573E+02  0.20528867682E+03  0.21315538715E+03  0.00000000000E+00 0.  1.
         11    1    1    2    0    0 -0.56544969949E+02 -0.13418413360E+02  0.25552636180E+03  0.26205172966E+03  0.00000000000E+00 0. -1.
</event>
<event>
 7    1  0.2842702E-009  0.1147440E+03  0.7561462E-02  0.1252029E+00
         -4   -1    0    0    0  501 -0.00000000000E+00  0.00000000000E+00  0.39930681622E+02  0.39930681622E+02  0.00000000000E+00 0.  1.
          4   -1    0    0  501    0  0.00000000000E+00 -0.00000000000E+00 -0.42024421235E+03  0.42024421235E+03  0.00000000000E+00 0. -1.
         25    2    1    2    0    0  0.12470152922E+02  0.48161089714E+02 -0.12379452577E+03  0.18288383792E+03  0.12508564380E+03 0.  0.
          5    1    3    3  502    0 -0.24236799751E+02 -0.31366568342E+02 -0.68388826921E+02  0.79156731358E+02  0.41800000000E+01 0. -1.
         -5    1    3    3    0  502  0.36706952673E+02  0.79527658056E+02 -0.55405698845E+02  0.10372710656E+03  0.41800000000E+01 0. -1.
        -11    1    1    2    0    0 -0.38662871796E+02  0.84379295013E+01 -0.13531537569E+03  0.14098321605E+03  0.00000000000E+00 0.  1.
         11    1    1    2    0    0  0.26192718875E+02 -0.56599019215E+02 -0.12120362926E+03  0.13630784000E+03  0.00000000000E+00 0. -1.
</event>
<event>
 7    1  0.2842702E-009  0.1198416E+03  0.7561462E-02  0.1243359E+00
         -2   -1    0    0    0  501 -0.00000000000E+00  0.00000000000E+00  0.10589151184E+03  0.10589151184E+03  0.00000000000E+00 0.  1.
          2   -1    0    0  501    0  0.00000000000E+00 -0.00000000000E+00 -0.16836514074E+03  0.16836514074E+03  0.00000000000E+00 0. -1.
         25    2    1    2    0    0  0.72382960211E+02  0.13182906659E+02 -0.11830493513E+02  0.14561259263E+03  0.12509989848E+03 0.  0.
          5    1    3    3  502    0  0.10257527679E+03  0.78781031249E+01 -0.33003934498E+02  0.10812254163E+03  0.41800000000E+01 0.  1.
         -5    1    3    3    0  502 -0.30192316576E+02  0.53048035337E+01  0.21173440985E+02  0.37490050998E+02  0.41800000000E+01 0.  1.
        -11    1    1    2    0    0  0.58756651785E+01 -0.25846517782E+02 -0.40946202381E+02  0.48776607222E+02  0.00000000000E+00 0. -1.
         11    1    1    2    0    0 -0.78258625389E+02  0.12663611123E+02 -0.96969330066E+01  0.79867452721E+02  0.00000000000E+00 0.  1.
</event>
<event>
 7    1  0.2842702E-009  0.1515157E+03  0.7561462E-02  0.1198623E+00
          2   -1    0    0  501    0  0.00000000000E+00  0.00000000000E+00  0.13284728004E+04  0.13284728004E+04  0.00000000000E+00 0.  1.
         -2   -1    0    0    0  501 -0.00000000000E+00 -0.00000000000E+00 -0.24508662165E+02  0.24508662165E+02  0.00000000000E+00 0. -1.
         25    2    1    2    0    0  0.10394779021E+03  0.81575303951E+02  0.89736889081E+03  0.91562986535E+03  0.12508977109E+03 0.  0.
          5    1    3    3  502    0  0.14487308097E+02  0.64020322992E+02  0.62340864277E+03  0.62686864025E+03  0.41800000000E+01 0.  1.
         -5    1    3    3    0  502  0.89460482109E+02  0.17554980960E+02  0.27396024804E+03  0.28876122510E+03  0.41800000000E+01 0.  1.
        -11    1    1    2    0    0 -0.14073140104E+01 -0.32124537191E+02  0.30186747718E+02  0.44104491384E+02  0.00000000000E+00 0. -1.
         11    1    1    2    0    0 -0.10254047620E+03 -0.49450766760E+02  0.37640849975E+03  0.39324710587E+03  0.00000000000E+00 0.  1.
</event>
<event>
 7    1  0.2842702E-009  0.1056130E+03  0.7561462E-02  0.1268917E+00
          1   -1    0    0  501    0  0.00000000000E+00  0.00000000000E+00  0.17408046767E+03  0.17408046767E+03  0.00000000000E+00 0. -1.
         -1   -1    0    0    0  501 -0.00000000000E+00 -0.00000000000E+00 -0.82265113721E+02  0.82265113721E+02  0.00000000000E+00 0.  1.
         25    2    1    2    0    0  0.44601795791E+01  0.16339484634E+01 -0.24838779367E+01  0.12520546694E+03  0.12509067236E+03 0.  0.
          5    1    3    3  502    0 -0.54146906882E+02  0.21005270586E+02 -0.18861827669E+02  0.61207433048E+02  0.41800000000E+01 0. -1.
         -5    1    3    3    0  502  0.58607086461E+02 -0.19371322122E+02  0.16377949733E+02  0.63998033889E+02  0.41800000000E+01 0. -1.
        -11    1    1    2    0    0  0.42242828141E+02 -0.10650939255E+02  0.45653716658E+02  0.63104364993E+02  0.00000000000E+00 0. -1.
         11    1    1    2    0    0 -0.46703007720E+02  0.90169907917E+01  0.48645515228E+02  0.68035749462E+02  0.00000000000E+00 0.  1.
</event>
<event>
 7    1  0.2842702E-009  0.1654272E+03  0.7561462E-02  0.1182702E+00
          2   -1    0    0  501    0  0.00000000000E+00  0.00000000000E+00  0.41286415452E+03  0.41286415452E+03  0.00000000000E+00 0. -1.
         -2   -1    0    0    0  501 -0.00000000000E+00 -0.00000000000E+00 -0.72810601686E+02  0.72810601686E+02  0.00000000000E+00 0.  1.
         25    2    1    2    0    0  0.12946759118E+03 -0.37095588490E+02  0.18870789934E+03  0.26343266398E+03  0.12509259500E+03 0.  0.
          5    1    3    3  502    0 -0.15229289989E+02 -0.26206672640E+02  0.79761249889E+01  0.31619802882E+02  0.41800000000E+01 0.  1.
         -5    1    3    3    0  502  0.14469688117E+03 -0.10888915850E+02  0.18073177435E+03  0.23181286110E+03  0.41800000000E+01 0.  1.
        -11    1    1    2    0    0 -0.15328422788E+02 -0.21802165345E+02  0.56847765846E+02  0.62785057463E+02  0.00000000000E+00 0. -1.
         11    1    1    2    0    0 -0.11413916839E+03  0.58897753834E+02  0.94497887644E+02  0.15945703477E+03  0.00000000000E+00 0.  1.
</event>
<event>
 7    1  0.2842702E-009  0.1979835E+03  0.7561462E-02  0.1151452E+00
          2   -1    0    0  501    0  0.00000000000E+00  0.00000000000E+00  0.99391069641E+03  0.99391069641E+03  0.00000000000E+00 0. -1.
         -2   -1    0    0    0  501 -0.00000000000E+00 -0.00000000000E+00 -0.54440161321E+02  0.54440161321E+02  0.00000000000E+00 0.  1.
         25    2    1    2    0    0 -0.12310843136E+03  0.14187600467E+03  0.67592385402E+03  0.71260512755E+03  0.12509406383E+03 0.  0.
          5    1    3    3  502    0 -0.10897678881E+03  0.61190488325E+02  0.25799462050E+03  0.28670352800E+03  0.41800000000E+01 0. -1.
         -5    1    3    3    0  502 -0.14131642547E+02  0.80685516348E+02  0.41792923352E+03  0.42590159955E+03  0.41800000000E+01 0. -1.
        -11    1    1    2    0    0  0.56284591890E+02 -0.49979983527E+02  0.17879989757E+03  0.19399834383E+03  0.00000000000E+00 0.  1.
         11    1    1    2    0    0  0.66823839465E+02 -0.91896021147E+02  0.84746783499E+02  0.14174738635E+03  0.00000000000E+00 0. -1.
</event>
<event>
 7    1  0.3161526E-009  0.1098142E+03  0.7561462E-02  0.1260914E+00
          3   -1    0    0  501    0  0.00000000000E+00  0.00000000000E+00  0.80385624264E+02  0.80385624264E+02  0.00000000000E+00 0. -1.
         -3   -1    0    0    0  501 -0.00000000000E+00 -0.00000000000E+00 -0.20351530771E+03  0.20351530771E+03  0.00000000000E+00 0.  1.
         25    2    1    2    0    0  0.53989251725E+02 -0.38095634687E+02 -0.52035326277E+02  0.15073929421E+03  0.12509413637E+03 0.  0.
          5    1    3    3  502    0  0.92255656961E+02 -0.28839609182E+02 -0.17744293814E+02  0.98362399635E+02  0.41800000000E+01 0.  1.
         -5    1    3    3    0  502 -0.38266405236E+02 -0.92560255053E+01 -0.34291032463E+02  0.52376894573E+02  0.41800000000E+01 0.  1.
        -11    1    1    2    0    0 -0.31158975358E+02 -0.77187172713E+01 -0.75244676365E+02  0.81806000164E+02  0.00000000000E+00 0.  1.
         11    1    1    2    0    0 -0.22830276367E+02  0.45814351959E+02  0.41503191929E+01  0.51355637604E+02  0.00000000000E+00 0. -1.
</event>
<event>
 7    1  0.2842702E-009  0.1583748E+03  0.7561462E-02  0.1190544E+00
          1   -1    0    0  501    0  0.00000000000E+00  0.00000000000E+00  0.43845058925E+03  0.43845058925E+03  0.00000000000E+00 0. -1.
         -1   -1    0    0    0  501 -0.00000000000E+00 -0.00000000000E+00 -0.68336249304E+02  0.68336249304E+02  0.00000000000E+00 0.  1.
         25    2    1    2    0    0 -0.11570556787E+03 -0.70178050173E+02  0.19547713403E+03  0.26864763812E+03  0.12508999311E+03 0.  0.
          5    1    3    3  502    0 -0.58154263059E+02 -0.77185435106E+02  0.43745878705E+02  0.10616347775E+03  0.41800000000E+01 0. -1.
         -5    1    3    3    0  502 -0.57551304815E+02  0.70073849331E+01  0.15173125532E+03  0.16248416037E+03  0.41800000000E+01 0. -1.
        -11    1    1    2    0    0  0.38119102537E+02  0.75025115792E+02  0.89440958508E+02  0.12280683628E+03  0.00000000000E+00 0.  1.
         11    1    1    2    0    0  0.77586465337E+02 -0.48470656191E+01  0.85196247413E+02  0.11533236416E+03  0.00000000000E+00 0. -1.
</event>
<event>
 7    1  0.2842702E-009  0.1314453E+03  0.7561462E-02  0.1225327E+00
          1   -1    0    0  501    0  0.00000000000E+00  0.00000000000E+00  0.46608909974E+03  0.46608909974E+03  0.00000000000E+00 0. -1.
         -1   -1    0    0    0  501 -0.00000000000E+00 -0.00000000000E+00 -0.52801686362E+02  0.52801686362E+02  0.00000000000E+00 0.  1.
         25    2    1    2    0    0  0.84803705365E+02  0.49502514933E+01  0.98880909933E+02  0.18065795146E+03  0.12507472824E+03 0.  0.
          5    1    3    3  502    0  0.55418029304E+02 -0.56020971868E+02  0.31215958292E+02  0.84861155501E+02  0.41800000000E+01 0. -1.
         -5    1    3    3    0  502  0.29385676061E+02  0.60971223361E+02  0.67664951641E+02  0.95796795960E+02  0.41800000000E+01 0. -1.
        -11    1    1    2    0    0 -0.97816080059E+02 -0.15975606950E+02  0.29986521722E+03  0.31582012924E+03  0.00000000000E+00 0. -1.
         11    1    1    2    0    0  0.13012374694E+02  0.11025355457E+02  0.14541286218E+02  0.22412705392E+02  0.00000000000E+00 0.  1.
</event>
<event>
 6    1  0.2842702E-009  0.2584004E+03  0.7561462E-02  0.1108108E+00
          2   -1    0    0  501    0  0.00000000000E+00  0.00000000000E+00  0.95483483487E+03  0.95483483487E+03  0.00000000000E+00 0. -1.
         -2   -1    0    0    0  501 -0.00000000000E+00 -0.00000000000E+00 -0.77806014282E+02  0.77806014282E+02  0.00000000000E+00 0.  1.
          5    1    1    2  502    0 -0.12093587685E+03 -0.21797062350E+03  0.40228671148E+03  0.47327449715E+03  0.41800000000E+01 0. -1.
         -5    1    1    2    0  502 -0.20427856336E+01  0.13931578916E+01 -0.81416787778E+01  0.94801474344E+01  0.41800000000E+01 0. -1.
        -11    1    1    2    0    0  0.17488775880E+02  0.11455716218E+03  0.22855070638E+03  0.25625109966E+03  0.00000000000E+00 0. -1.
         11    1    1    2    0    0  0.10548988660E+03  0.10202030343E+03  0.25433308150E+03  0.29363510490E+03  0.00000000000E+00 0.  1.
</event>
<event>
 7    1  0.2842702E-009  0.3680175E+03  0.7561462E-02  0.1055454E+00
          2   -1    0    0  501    0  0.00000000000E+00  0.00000000000E+00  0.61502064487E+03  0.61502064487E+03  0.00000000000E+00 0. -1.
         -2   -1    0    0    0  501 -0.00000000000E+00 -0.00000000000E+00 -0.22637448450E+03  0.22637448450E+03  0.00000000000E+00 0.  1.
         25    2    1    2    0    0  0.13931839764E+03 -0.32875647530E+03  0.22919382356E+03  0.44234363155E+03  0.12509054176E+03 0.  0.
          5    1    3    3  502    0 -0.99171721180E+01  0.17741802757E+01  0.22234101429E+02  0.24765413076E+02  0.41800000000E+01 0.  1.
         -5    1    3    3    0  502  0.14923556976E+03 -0.33053065557E+03  0.20695972213E+03  0.41757821847E+03  0.41800000000E+01 0.  1.
        -11    1    1    2    0    0 -0.12581853576E+03  0.22479910621E+03  0.13725459185E+03  0.29189683978E+03  0.00000000000E+00 0.  1.
         11    1    1    2    0    0 -0.13499861887E+02  0.10395736909E+03  0.22197744950E+02  0.10715465804E+03  0.00000000000E+00 0. -1.
</event>
<event>
 7    1  0.2842702E-009  0.9089246E+02  0.7561462E-02  0.1300705E+00
          2   -1    0    0  501    0  0.00000000000E+00  0.00000000000E+00  0.16106322657E+03  0.16106322657E+03  0.00000000000E+00 0. -1.
         -2   -1    0    0    0  501 -0.00000000000E+00 -0.00000000000E+00 -0.10126412708E+03  0.10126412708E+03  0.00000000000E+00 0.  1.
         25    2    1    2    0    0 -0.83558421366E+01 -0.51694757871E+02 -0.11638683343E+02  0.13610789774E+03  0.12509089811E+03 0.  0.
          5    1    3    3  502    0  0.26277497130E+02 -0.25263351997E+02  0.49068025529E+02  0.61268975337E+02  0.41800000000E+01 0.  1.
         -5    1    3    3    0  502 -0.34633339266E+02 -0.26431405874E+02 -0.60706708872E+02  0.74838922408E+02  0.41800000000E+01 0.  1.
        -11    1    1    2    0    0 -0.29834680505E+02 -0.76093839694E+01  0.91594706132E+01  0.32123305981E+02  0.00000000000E+00 0. -1.
         11    1    1    2    0    0  0.38190522641E+02  0.59304141840E+02  0.62278312219E+02  0.94096149931E+02  0.00000000000E+00 0.  1.
</event>
<event>
 7    1  0.2842702E-009  0.9468713E+02  0.7561462E-02  0.1291882E+00
         -1   -1    0    0    0  501 -0.00000000000E+00  0.00000000000E+00  0.46269907940E+03  0.46269907940E+03  0.00000000000E+00 0.  1.
          1   -1    0    0  501    0  0.00000000000E+00 -0.00000000000E+00 -0.67530065907E+02  0.67530065907E+02  0.00000000000E+00 0. -1.
         25    2    1    2    0    0 -0.31918241388E+02  0.72504562913E+02  0.37272345075E+02  0.15267597943E+03  0.12508013915E+03 0.  0.
          5    1    3    3  502    0 -0.25538918026E+02  0.41922278484E+02 -0.43656421881E+02  0.65826053646E+02  0.41800000000E+01 0. -1.
         -5    1    3    3    0  502 -0.63793233625E+01  0.30582284430E+02  0.80928766956E+02  0.86849925783E+02  0.41800000000E+01 0. -1.
        -11    1    1    2    0    0  0.20112328323E+02  0.11895657092E+02  0.26302801393E+02  0.35183089252E+02  0.00000000000E+00 0. -1.
         11    1    1    2    0    0  0.11805913065E+02 -0.84400220005E+02  0.33159386703E+03  0.34237007663E+03  0.00000000000E+00 0.  1.
</event>
<event>
 7    1  0.2842702E-009  0.7638812E+02  0.7561462E-02  0.1339626E+00
          2   -1    0    0  501    0  0.00000000000E+00  0.00000000000E+00  0.77248149587E+02  0.77248149587E+02  0.00000000000E+00 0. -1.
         -2   -1    0    0    0  501 -0.00000000000E+00 -0.00000000000E+00 -0.16127114796E+03  0.16127114796E+03  0.00000000000E+00 0.  1.
         25    2    1    2    0    0  0.16332341242E+02 -0.12297535571E+02 -0.30182837705E+02  0.13029249699E+03  0.12508859392E+03 0.  0.
          5    1    3    3  502    0 -0.25552287319E+02 -0.22891778305E+02  0.36794463171E+02  0.50480271605E+02  0.41800000000E+01 0.  1.
         -5    1    3    3    0  502  0.41884628561E+02  0.10594242734E+02 -0.66977300877E+02  0.79812225389E+02  0.41800000000E+01 0.  1.
        -11    1    1    2    0    0 -0.22283029450E+02 -0.27032496414E+02 -0.58489322405E+02  0.68178369732E+02  0.00000000000E+00 0.  1.
         11    1    1    2    0    0  0.59506882084E+01  0.39330031985E+02  0.46491617411E+01  0.40048430818E+02  0.00000000000E+00 0. -1.
</event>
<event>
 7    1  0.2842702E-009  0.8556109E+02  0.7561462E-02  0.1313972E+00
          1   -1    0    0  501    0  0.00000000000E+00  0.00000000000E+00  0.34649445065E+03  0.34649445065E+03  0.00000000000E+00 0. -1.
         -1   -1    0    0    0  501 -0.00000000000E+00 -0.00000000000E+00 -0.46178989523E+02  0.46178989523E+02  0.00000000000E+00 0.  1.
         25    2    1    2    0    0 -0.15448664247E+02 -0.43703065760E+02  0.93571805623E+02  0.16293868644E+03  0.12507882934E+03 0.  0.
          5    1    3    3  502    0 -0.30075786703E+02  0.17119123268E+01 -0.22198124260E+02  0.37652525948E+02  0.41800000000E+01 0.  1.
         -5    1    3    3    0  502  0.14627122456E+02 -0.45414978087E+02  0.11576992988E+03  0.12528616049E+03  0.41800000000E+01 0.  1.
        -11    1    1    2    0    0  0.44508898805E+02  0.45562267656E+02  0.17699207135E+03  0.18810410849E+03  0.00000000000E+00 0. -1.
         11    1    1    2    0    0 -0.29060234558E+02 -0.18592018963E+01  0.29751584149E+02  0.41630645247E+02  0.00000000000E+00 0.  1.
</event>
<event>
 7    1  0.2842702E-009  0.1899690E+03  0.7561462E-02  0.1158489E+00
          1   -1    0    0  501    0  0.00000000000E+00  0.00000000000E+00  0.19680881302E+04  0.19680881302E+04  0.00000000000E+00 0. -1.
         -1   -1    0    0    0  501 -0.00000000000E+00 -0.00000000000E+00 -0.23227866591E+02  0.23227866591E+02  0.00000000000E+00 0.  1.
         25    2    1    2    0    0 -0.63261843672E+02  0.16523765599E+03  0.12873990828E+04  0.13055073443E+04  0.12508990313E+03 0.  0.
          5    1    3    3  502    0 -0.79496085770E+01  0.95308479408E+02  0.99987676686E+03  0.10044490648E+04  0.41800000000E+01 0.  1.
         -5    1    3    3    0  502 -0.55312235095E+02  0.69929176585E+02  0.28752231589E+03  0.30105827945E+03  0.41800000000E+01 0.  1.
        -11    1    1    2    0    0  0.68102924322E+02 -0.63556454229E+02  0.32919778661E+03  0.34212368215E+03  0.00000000000E+00 0.  1.
         11    1    1    2    0    0 -0.48410806502E+01 -0.10168120176E+03  0.32826339420E+03  0.34368497032E+03  0.00000000000E+00 0. -1.
</event>
<event>
 7    1  0.2842702E-009  0.1100582E+03  0.7561462E-02  0.1260462E+00
         -2   -1    0    0    0  501 -0.00000000000E+00  0.00000000000E+00  0.25118898223E+03  0.25118898223E+03  0.00000000000E+00 0.  1.
          2   -1    0    0  501    0  0.00000000000E+00 -0.00000000000E+00 -0.63119615554E+02  0.63119615554E+02  0.00000000000E+00 0. -1.
         25    2    1    2    0    0 -0.81242850191E+02 -0.10776238088E+02  0.92266944259E+02  0.17571693982E+03  0.12508687350E+03 0.  0.
          5    1    3    3  502    0 -0.57548225400E+01  0.33795533539E+02 -0.14544431144E+02  0.37473576650E+02  0.41800000000E+01 0. -1.
         -5    1    3    3    0  502 -0.75488027651E+02 -0.44571771627E+02  0.10681137540E+03  0.13824336317E+03  0.41800000000E+01 0. -1.
        -11    1    1    2    0    0  0.33275969631E+02 -0.21847092158E+02  0.24780425304E+02  0.46889818392E+02  0.00000000000E+00 0. -1.
         11    1    1    2    0    0  0.47966880560E+02  0.32623330246E+02  0.71021997111E+02  0.91701839570E+02  0.00000000000E+00 0.  1.
</event>
<event>
 6    1  0.2842702E-009  0.8716817E+02  0.7561462E-02  0.1309858E+00
          2   -1    0    0  501    0  0.00000000000E+00  0.00000000000E+00  0.25153859078E+02  0.25153859078E+02  0.00000000000E+00 0. -1.
         -2   -1    0    0    0  501 -0.00000000000E+00 -0.00000000000E+00 -0.63460464950E+03  0.63460464950E+03  0.00000000000E+00 0.  1.
          5    1    1    2  502    0  0.36934118275E+02  0.28431361007E+02 -0.11468982750E+03  0.12386969086E+03  0.41800000000E+01 0. -1.
         -5    1    1    2    0  502 -0.68894280494E+02 -0.31294123242E+02 -0.37525955410E+03  0.38283540769E+03  0.41800000000E+01 0. -1.
        -11    1    1    2    0    0  0.25158960697E+02 -0.17262710960E+02  0.11622324894E+01  0.30534001988E+02  0.00000000000E+00 0. -1.
         11    1    1    2    0    0  0.68012015213E+01  0.20125473195E+02 -0.12066364131E+03  0.12251940804E+03  0.00000000000E+00 0.  1.
</event>
<event>
 7    1  0.2842702E-009  0.1240994E+03  0.7561462E-02  0.1236483E+00
          2   -1    0    0  501    0  0.00000000000E+00  0.00000000000E+00  0.13132580753E+04  0.13132580753E+04  0.00000000000E+00 0. -1.
         -2   -1    0    0    0  501 -0.00000000000E+00 -0.00000000000E+00 -0.13995397803E+02  0.13995397803E+02  0.00000000000E+00 0.  1.
         25    2    1    2    0    0  0.78108876584E+02  0.71751553703E+01  0.67072515934E+03  0.68678464806E+03  0.12509370084E+03 0.  0.
          5    1    3    3  502    0  0.23833223665E+02 -0.44142000030E+02  0.10855700437E+03  0.11966049605E+03  0.41800000000E+01 0. -1.
         -5    1    3    3    0  502  0.54275652918E+02  0.51317155400E+02  0.56216815497E+03  0.56712415201E+03  0.41800000000E+01 0. -1.
        -11    1    1    2    0    0 -0.76340380924E+02  0.32760988803E+02  0.42452027354E+03  0.43257207353E+03  0.00000000000E+00 0. -1.
         11    1    1    2    0    0 -0.17684956591E+01 -0.39936144173E+02  0.20401724462E+03  0.20789675152E+03  0.00000000000E+00 0.  1.
</event>
<event>
 7    1  0.2842702E-009  0.8612008E+02  0.7561462E-02  0.1312529E+00
          1   -1    0    0  501    0  0.00000000000E+00  0.00000000000E+00  0.29803376623E+02  0.29803376623E+02  0.00000000000E+00 0. -1.
         -1   -1    0    0    0  501 -0.00000000000E+00 -0.00000000000E+00 -0.57623471494E+03  0.57623471494E+03  0.00000000000E+00 0.  1.
         25    2    1    2    0    0 -0.83559667109E+01 -0.71590741633E+02 -0.31793110695E+03  0.34917209877E+03  0.12508360934E+03 0.  0.
          5    1    3    3  502    0  0.28146287726E+02 -0.26804968463E+02 -0.27320304107E+03  0.27598567698E+03  0.41800000000E+01 0.  1.
         -5    1    3    3    0  502 -0.36502254437E+02 -0.44785773170E+02 -0.44728065878E+02  0.73186421791E+02  0.41800000000E+01 0.  1.
        -11    1    1    2    0    0 -0.14469922323E+00  0.63449656681E+02 -0.23500366046E+03  0.24341857016E+03  0.00000000000E+00 0.  1.
         11    1    1    2    0    0  0.85006659341E+01  0.81410849516E+01  0.65034290897E+01  0.13447422632E+02  0.00000000000E+00 0. -1.
</event>
<event>
 7    1  0.2842702E-009  0.1268831E+03  0.7561462E-02  0.1232155E+00
         -4   -1    0    0    0  501 -0.00000000000E+00  0.00000000000E+00  0.18760934001E+03  0.18760934001E+03  0.00000000000E+00 0.  1.
          4   -1    0    0  501    0  0.00000000000E+00 -0.00000000000E+00 -0.14620030844E+03  0.14620030844E+03  0.00000000000E+00 0. -1.
         25    2    1    2    0    0  0.10973244176E+03  0.57872549795E+02  0.93731159985E+01  0.17642814830E+03  0.12509434605E+03 0.  0.
          5    1    3    3  502    0  0.91883405605E+02  0.60331022979E+02  0.58034691654E+02  0.12436997385E+03  0.41800000000E+01 0.  1.
         -5    1    3    3    0  502  0.17849036152E+02 -0.24584731844E+01 -0.48661575655E+02  0.52058174452E+02  0.41800000000E+01 0.  1.
        -11    1    1    2    0    0 -0.27652066221E+02 -0.63898464205E+01  0.51269886549E+02  0.58600922948E+02  0.00000000000E+00 0.  1.
         11    1    1    2    0    0 -0.82080375536E+02 -0.51482703374E+02 -0.19233970977E+02  0.98780577212E+02  0.00000000000E+00 0. -1.
</event>
<event>
 7    1  0.2842702E-009  0.1691022E+03  0.7561462E-02  0.1178787E+00
         -2   -1    0    0    0  501 -0.00000000000E+00  0.00000000000E+00  0.12726306166E+02  0.12726306166E+02  0.00000000000E+00 0.  1.
          2   -1    0    0  501    0  0.00000000000E+00 -0.00000000000E+00 -0.28900135998E+04  0.28900135998E+04  0.00000000000E+00 0. -1.
         25    2    1    2    0    0 -0.89647663961E+02 -0.93284331027E+02 -0.21924938711E+04  0.21998686033E+04  0.12511525433E+03 0.  0.
          5    1    3    3  502    0  0.99971399624E+01  0.23806903124E+02 -0.30904999904E+03  0.31015493830E+03  0.41800000000E+01 0. -1.
         -5    1    3    3    0  502 -0.99644803924E+02 -0.11709123415E+03 -0.18834438720E+04  0.18897136650E+04  0.41800000000E+01 0. -1.
        -11    1    1    2    0    0  0.86697686833E+02  0.11068106389E+03 -0.59842372572E+03  0.61471761185E+03  0.00000000000E+00 0. -1.
         11    1    1    2    0    0  0.29499771280E+01 -0.17396732865E+02 -0.86369696828E+02  0.88153690845E+02  0.00000000000E+00 0.  1.
</event>
<event>
 7    1  0.2842702E-009  0.9839644E+02  0.7561462E-02  0.1283705E+00
         -1   -1    0    0    0  501 -0.00000000000E+00  0.00000000000E+00  0.35557899178E+02  0.35557899178E+02  0.00000000000E+00 0.  1.
          1   -1    0    0  501    0  0.00000000000E+00 -0.00000000000E+00 -0.41441830452E+03  0.41441830452E+03  0.00000000000E+00 0. -1.
         25    2    1    2    0    0  0.52444456115E+02 -0.28248691854E+01 -0.18275000666E+03  0.22760370122E+03  0.12508988372E+03 0.  0.
          5    1    3    3  502    0  0.76600601630E+02 -0.12895158621E+02 -0.50547920530E+02  0.92771234528E+02  0.41800000000E+01 0. -1.
         -5    1    3    3    0  502 -0.24156145516E+02  0.10070289435E+02 -0.13220208613E+03  0.13483246669E+03  0.41800000000E+01 0. -1.
        -11    1    1    2    0    0 -0.11476723451E+02 -0.34942566660E+02 -0.13388867822E+03  0.13884839323E+03  0.00000000000E+00 0. -1.
         11    1    1    2    0    0 -0.40967732664E+02  0.37767435845E+02 -0.62221720461E+02  0.83524109257E+02  0.00000000000E+00 0.  1.
</event>
<event>
 7    1  0.2842702E-009  0.1278241E+03  0.7561462E-02  0.1230721E+00
         -2   -1    0    0    0  501 -0.00000000000E+00  0.00000000000E+00  0.36070214876E+02  0.36070214876E+02  0.00000000000E+00 0.  1.
          2   -1    0    0  501    0  0.00000000000E+00 -0.00000000000E+00 -0.62292603910E+03  0.62292603910E+03  0.00000000000E+00 0. -1.
         25    2    1    2    0    0 -0.66490343339E+02  0.77283379323E+02 -0.29565409356E+03  0.33682739103E+03  0.12509061450E+03 0.  0.
          5    1    3    3  502    0 -0.60389296118E+02  0.55510984718E+01 -0.23457748421E+03  0.24232571114E+03  0.41800000000E+01 0. -1.
         -5    1    3    3    0  502 -0.61010472212E+01  0.71732280852E+02 -0.61076609346E+02  0.94501679893E+02  0.41800000000E+01 0. -1.
        -11    1    1    2    0    0  0.73660282460E+01 -0.60971361028E+02 -0.72430993437E+02  0.94963224713E+02  0.00000000000E+00 0.  1.
         11    1    1    2    0    0  0.59124315093E+02 -0.16312018296E+02 -0.21877073722E+03  0.22720563823E+03  0.00000000000E+00 0. -1.
</event>
<event>
 7    1  0.2842702E-009  0.1537841E+03  0.7561462E-02  0.1195899E+00
         -1   -1    0    0    0  501 -0.00000000000E+00  0.00000000000E+00  0.98408438339E+02  0.98408438339E+02  0.00000000000E+00 0.  1.
          1   -1    0    0  501    0  0.00000000000E+00 -0.00000000000E+00 -0.31117410614E+03  0.31117410614E+03  0.00000000000E+00 0. -1.
         25    2    1    2    0    0 -0.57078740128E+02 -0.12281025516E+03 -0.13364100702E+03  0.22770388872E+03  0.12509516710E+03 0.  0.
          5    1    3    3  502    0  0.98287973881E+01 -0.32200873295E+02 -0.10649498626E+03  0.11176831393E+03  0.41800000000E+01 0. -1.
         -5    1    3    3    0  502 -0.66907537516E+02 -0.90609381870E+02 -0.27146020754E+02  0.11593557479E+03  0.41800000000E+01 0. -1.
        -11    1    1    2    0    0  0.75555217637E+01  0.10934855518E+03 -0.69147107091E+02  0.12959751097E+03  0.00000000000E+00 0. -1.
         11    1    1    2    0    0  0.49523218365E+02  0.13461699982E+02 -0.99775536966E+01  0.52281144798E+02  0.00000000000E+00 0.  1.
</event>
<event>
 7    1  0.2842702E-009  0.1892096E+03  0.7561462E-02  0.1159176E+00
          1   -1    0    0  501    0  0.00000000000E+00  0.00000000000E+00  0.13573345368E+03  0.13573345368E+03  0.00000000000E+00 0. -1.
         -1   -1    0    0    0  501 -0.00000000000E+00 -0.00000000000E+00 -0.48730646132E+03  0.48730646132E+03  0.00000000000E+00 0.  1.
         25    2    1    2    0    0 -0.10416580359E+03  0.15191712719E+03 -0.35215322014E+03  0.41663570119E+03  0.12507633221E+03 0.  0.
          5    1    3    3  502    0 -0.36776512063E+02  0.10668159305E+03 -0.29877731096E+03  0.31940386359E+03  0.41800000000E+01 0.  1.
         -5    1    3    3    0  502 -0.67389291527E+02  0.45235534136E+02 -0.53375909182E+02  0.97231837595E+02  0.41800000000E+01 0.  1.
        -11    1    1    2    0    0  0.53691687068E+02 -0.81167388337E+02 -0.46174122391E+02  0.10771718418E+03  0.00000000000E+00 0.  1.
         11    1    1    2    0    0  0.50474116522E+02 -0.70749738851E+02  0.46754334896E+02  0.98687029633E+02  0.00000000000E+00 0. -1.
</event>
<event>
 7    1  0.2842702E-009  0.1405712E+03  0.7561462E-02  0.1212562E+00
         -3   -1    0    0    0  501 -0.00000000000E+00  0.00000000000E+00  0.57313991453E+02  0.57313991453E+02  0.00000000000E+00 0.  1.
          3   -1    0    0  501    0  0.00000000000E+00 -0.00000000000E+00 -0.38367547794E+03  0.38367547794E+03  0.00000000000E+00 0. -1.
         25    2    1    2    0    0  0.65417325284E+01  0.98900019393E+02 -0.22042871727E+03  0.27213840933E+03  0.12508591581E+03 0.  0.
          5    1    3    3  502    0 -0.36384100790E+02  0.10841285362E+03 -0.14479794078E+03  0.18455640242E+03  0.41800000000E+01 0. -1.
         -5    1    3    3    0  502  0.42925833319E+02 -0.95128342317E+01 -0.75630776488E+02  0.87582006904E+02  0.41800000000E+01 0. -1.
        -11    1    1    2    0    0 -0.29247886726E+02 -0.95134434573E+02 -0.10657925003E+03  0.14582570438E+03  0.00000000000E+00 0. -1.
         11    1    1    2    0    0  0.22706154198E+02 -0.37655848197E+01  0.64648080510E+00  0.23025355696E+02  0.00000000000E+00 0.  1.
</event>
<event>
 7    1  0.2842702E-009  0.9226317E+02  0.7561462E-02  0.1297462E+00
          1   -1    0    0  501    0  0.00000000000E+00  0.00000000000E+00  0.12187503019E+04  0.12187503019E+04  0.00000000000E+00 0. -1.
         -1   -1    0    0    0  501 -0.00000000000E+00 -0.00000000000E+00 -0.11932695460E+02  0.11932695460E+02  0.00000000000E+00 0.  1.
         25    2    1    2    0    0  0.11426826140E+02  0.27195533477E+02  0.86752662468E+03  0.87699435252E+03  0.12508589214E+03 0.  0.
          5    1    3    3  502    0  0.49734486595E+02  0.30776052361E+02  0.20186231053E+03  0.21020596892E+03  0.41800000000E+01 0. -1.
         -5    1    3    3    0  502 -0.38307660455E+02 -0.35805188841E+01  0.66566431415E+03  0.66678838360E+03  0.41800000000E+01 0. -1.
        -11    1    1    2    0    0 -0.22849703347E+02  0.24935650507E+02  0.56049816144E+02  0.65463558558E+02  0.00000000000E+00 0.  1.
         11    1    1    2    0    0  0.11422877207E+02 -0.52131183984E+02  0.28324116558E+03  0.28822508625E+03  0.00000000000E+00 0. -1.
</event>
<event>
 7    1  0.2842702E-009  0.1324586E+03  0.7561462E-02  0.1223853E+00
          1   -1    0    0  501    0  0.00000000000E+00  0.00000000000E+00  0.44615020033E+03  0.44615020033E+03  0.00000000000E+00 0. -1.
         -1   -1    0    0    0  501 -0.00000000000E+00 -0.00000000000E+00 -0.41089524543E+02  0.41089524543E+02  0.00000000000E+00 0.  1.
         25    2    1    2    0    0  0.61359228575E+02  0.49176718852E+02  0.23944016699E+03  0.28135202116E+03  0.12507622330E+03 0.  0.
          5    1    3    3  502    0 -0.18029859601E+02 -0.26914952374E+02  0.28144286946E+02  0.43116861971E+02  0.41800000000E+01 0. -1.
         -5    1    3    3    0  502  0.79389088176E+02  0.76091671226E+02  0.21129588004E+03  0.23823515919E+03  0.41800000000E+01 0. -1.
        -11    1    1    2    0    0 -0.76442287961E+00 -0.60549484165E+02  0.77858026539E+02  0.98634155705E+02  0.00000000000E+00 0.  1.
         11    1    1    2    0    0 -0.60594805695E+02  0.11372765313E+02  0.87762482259E+02  0.10725354801E+03  0.00000000000E+00 0. -1.
</event>
<event>
 7    1  0.3458314E-009  0.9956807E+02  0.7561462E-02  0.1281207E+00
         -3   -1    0    0    0  501 -0.00000000000E+00  0.00000000000E+00  0.13094409382E+03  0.13094409382E+03  0.00000000000E+00 0.  1.
          3   -1    0    0  501    0  0.00000000000E+00 -0.00000000000E+00 -0.10878872293E+03  0.10878872293E+03  0.00000000000E+00 0. -1.
         25    2    1    2    0    0  0.20000876192E+02  0.45092520579E+02  0.16320343238E+02  0.13544733720E+03  0.12508499946E+03 0.  0.
          5    1    3    3  502    0 -0.17208895248E+02 -0.19426005096E+02  0.47744036082E+02  0.54502120427E+02  0.41800000000E+01 0. -1.
         -5    1    3    3    0  502  0.37209771440E+02  0.64518525675E+02 -0.31423692843E+02  0.80945216769E+02  0.41800000000E+01 0. -1.
        -11    1    1    2    0    0  0.13712839091E+02 -0.59886118307E+02  0.20338488484E+02  0.64715092796E+02  0.00000000000E+00 0.  1.
         11    1    1    2    0    0 -0.33713715283E+02  0.14793597728E+02 -0.14503460831E+02  0.39570386756E+02  0.00000000000E+00 0. -1.
</event>
<event>
 7    1  0.2842702E-009  0.1676473E+03  0.7561462E-02  0.1180324E+00
         -3   -1    0    0    0  501 -0.00000000000E+00  0.00000000000E+00  0.35701394248E+02  0.35701394248E+02  0.00000000000E+00 0. -1.
          3   -1    0    0  501    0  0.00000000000E+00 -0.00000000000E+00 -0.99635661611E+03  0.99635661611E+03  0.00000000000E+00 0.  1.
         25    2    1    2    0    0 -0.62954120967E+02 -0.13543223116E+03 -0.60947455751E+03  0.63985307690E+03  0.12509042001E+03 0.  0.
          5    1    3    3  502    0 -0.15920758643E+02 -0.11393995499E+03 -0.23372750807E+03  0.26054136779E+03  0.41800000000E+01 0. -1.
         -5    1    3    3    0  502 -0.47033362325E+02 -0.21492276175E+02 -0.37574704944E+03  0.37931170911E+03  0.41800000000E+01 0. -1.
        -11    1    1    2    0    0  0.81260217734E+02  0.10489942996E+03 -0.31319610594E+03  0.34014543091E+03  0.00000000000E+00 0.  1.
         11    1    1    2    0    0 -0.18306096767E+02  0.30532801205E+02 -0.37984558412E+02  0.52059502552E+02  0.00000000000E+00 0. -1.
</event>
<event>
 7    1  0.2842702E-009  0.1024430E+03  0.7561462E-02  0.1275241E+00
         -4   -1    0    0    0  501 -0.00000000000E+00  0.00000000000E+00  0.11072343859E+03  0.11072343859E+03  0.00000000000E+00 0. -1.
          4   -1    0    0  501    0  0.00000000000E+00 -0.00000000000E+00 -0.16505673328E+03  0.16505673328E+03  0.00000000000E+00 0.  1.
         25    2    1    2    0    0 -0.17817415088E+02  0.40175153425E+02  0.39175871688E+02  0.13824830600E+03  0.12508533870E+03 0.  0.
          5    1    3    3  502    0  0.15322237376E+02 -0.32154145962E+02 -0.18057177022E+02  0.40152136964E+02  0.41800000000E+01 0.  1.
         -5    1    3    3    0  502 -0.33139652464E+02  0.72329299387E+02  0.57233048711E+02  0.98096169038E+02  0.41800000000E+01 0.  1.
        -11    1    1    2    0    0 -0.61747061401E+00 -0.61307507607E+02 -0.30317059171E+02  0.68396753108E+02  0.00000000000E+00 0. -1.
         11    1    1    2    0    0  0.18434885702E+02  0.21132354183E+02 -0.63192107199E+02  0.69135112761E+02  0.00000000000E+00 0.  1.
</event>
<event>
 7    1  0.2955087E-009  0.1064040E+03  0.7561462E-02  0.1267378E+00
         -2   -1    0    0    0  501 -0.00000000000E+00  0.00000000000E+00  0.13968546238E+03  0.13968546238E+03  0.00000000000E+00 0.  1.
          2   -1    0    0  501    0  0.00000000000E+00 -0.00000000000E+00 -0.15147442472E+03  0.15147442472E+03  0.00000000000E+00 0. -1.
         25    2    1    2    0    0  0.81941171124E+02 -0.49408883151E+02  0.79615351860E+01  0.15768141861E+03  0.12507777770E+03 0.  0.
          5    1    3    3  502    0 -0.25809615754E+01  0.48674158233E+01  0.48712472016E+02  0.49200918989E+02  0.41800000000E+01 0. -1.
         -5    1    3    3    0  502  0.84522132700E+02 -0.54276298974E+02 -0.40750936830E+02  0.10848049963E+03  0.41800000000E+01 0. -1.
        -11    1    1    2    0    0 -0.50009971800E+02  0.53418870608E+02  0.25901134648E+02  0.77623719265E+02  0.00000000000E+00 0.  1.
         11    1    1    2    0    0 -0.31931199324E+02 -0.40099874565E+01 -0.45651632176E+02  0.55854749217E+02  0.00000000000E+00 0. -1.
</event>
<event>
 7    1  0.2842702E-009  0.6079927E+02  0.7561462E-02  0.1394508E+00
         -1   -1    0    0    0  501 -0.00000000000E+00  0.00000000000E+00  0.40373008726E+02  0.40373008726E+02  0.00000000000E+00 0.  1.
          1   -1    0    0  501    0  0.00000000000E+00 -0.00000000000E+00 -0.25358426774E+03  0.25358426774E+03  0.00000000000E+00 0. -1.
         25    2    1    2    0    0  0.42109994979E+02  0.26565663062E+01 -0.12126717547E+03  0.17925899051E+03  0.12509096216E+03 0.  0.
          5    1    3    3  502    0  0.33907302372E+02  0.25004357061E+02 -0.14152536223E+03  0.14772211609E+03  0.41800000000E+01 0. -1.
         -5    1    3    3    0  502  0.82026926066E+01 -0.22347790755E+02  0.20258186766E+02  0.31536874428E+02  0.41800000000E+01 0. -1.
        -11    1    1    2    0    0 -0.15597009894E+02  0.16253320964E+02 -0.67867732342E+01  0.23526526538E+02  0.00000000000E+00 0.  1.
         11    1    1    2    0    0 -0.26512985085E+02 -0.18909887270E+02 -0.85157310310E+02  0.91171759410E+02  0.00000000000E+00 0. -1.
</event>
<event>
 7    1  0.2842702E-009  0.1313716E+03  0.7561462E-02  0.1225435E+00
         -2   -1    0    0    0  501 -0.00000000000E+00  0.00000000000E+00  0.54461396363E+02  0.54461396363E+02  0.00000000000E+00 0.  1.
          2   -1    0    0  501    0  0.00000000000E+00 -0.00000000000E+00 -0.38417199207E+03  0.38417199207E+03  0.00000000000E+00 0. -1.
         25    2    1    2    0    0  0.10907797040E+02 -0.94178159866E+02 -0.18690689239E+03  0.24407016099E+03  0.12509017239E+03 0.  0.
          5    1    3    3  502    0  0.29880502329E+02 -0.10721770753E+03 -0.19022825448E+03  0.22043761573E+03  0.41800000000E+01 0.  1.
         -5    1    3    3    0  502 -0.18972705289E+02  0.13039547664E+02  0.33213620837E+01  0.23632545257E+02  0.41800000000E+01 0.  1.
        -11    1    1    2    0    0 -0.11695548801E+02 -0.14866598096E+02 -0.41993436998E+02  0.46057033682E+02  0.00000000000E+00 0. -1.
         11    1    1    2    0    0  0.78775176131E+00  0.10904475796E+03 -0.10081026632E+03  0.14850619377E+03  0.00000000000E+00 0.  1.
</event>
<event>
 7    1  0.2842702E-009  0.1308194E+03  0.7561462E-02  0.1226245E+00
         -2   -1    0    0    0  501 -0.00000000000E+00  0.00000000000E+00  0.12770663978E+03  0.12770663978E+03  0.00000000000E+00 0.  1.
          2   -1    0    0  501    0  0.00000000000E+00 -0.00000000000E+00 -0.13724621588E+03  0.13724621588E+03  0.00000000000E+00 0. -1.
         25    2    1    2    0    0  0.14308675984E+02  0.72456780619E+02  0.52247603421E+01  0.14536380593E+03  0.12509442309E+03 0.  0.
          5    1    3    3  502    0 -0.53019236068E+02  0.15096722088E+02  0.11947834911E+02  0.56561237346E+02  0.41800000000E+01 0.  1.
         -5    1    3    3    0  502  0.67327912052E+02  0.57360058531E+02 -0.67230745684E+01  0.88802568587E+02  0.41800000000E+01 0.  1.
        -11    1    1    2    0    0 -0.30877752867E+02 -0.89113724613E+02 -0.59623702525E+01  0.94499954473E+02  0.00000000000E+00 0. -1.
         11    1    1    2    0    0  0.16569076883E+02  0.16656943993E+02 -0.88019661942E+01  0.25089095258E+02  0.00000000000E+00 0.  1.
</event>
<event>
 7    1  0.2842702E-009  0.8637917E+02  0.7561462E-02  0.1311865E+00
         -1   -1    0    0    0  501 -0.00000000000E+00  0.00000000000E+00  0.10072856087E+03  0.10072856087E+03  0.00000000000E+00 0.  1.
          1   -1    0    0  501    0  0.00000000000E+00 -0.00000000000E+00 -0.90976729221E+02  0.90976729221E+02  0.00000000000E+00 0. -1.
         25    2    1    2    0    0  0.71209774787E+01 -0.30345931281E+02 -0.22657789451E+02  0.13089111424E+03  0.12509006554E+03 0.  0.
          5    1    3    3  502    0  0.56851953843E+02 -0.41413529429E+02 -0.34447429170E+02  0.78430369449E+02  0.41800000000E+01 0.  1.
         -5    1    3    3    0  502 -0.49730976364E+02  0.11067598147E+02  0.11789639719E+02  0.52460744787E+02  0.41800000000E+01 0.  1.
        -11    1    1    2    0    0 -0.24163852561E+02  0.18186170700E+02  0.22233093574E+02  0.37535836545E+02  0.00000000000E+00 0. -1.
         11    1    1    2    0    0  0.17042875083E+02  0.12159760582E+02  0.10176527525E+02  0.23278339309E+02  0.00000000000E+00 0.  1.
</event>
<event>
 7    1  0.2842702E-009  0.1165070E+03  0.7561462E-02  0.1248973E+00
          2   -1    0    0  501    0  0.00000000000E+00  0.00000000000E+00  0.62429894755E+03  0.62429894755E+03  0.00000000000E+00 0. -1.
         -2   -1    0    0    0  501 -0.00000000000E+00 -0.00000000000E+00 -0.33110359963E+02  0.33110359963E+02  0.00000000000E+00 0.  1.
         25    2    1    2    0    0 -0.94503310144E+02 -0.38773058616E+01  0.32722007866E+03  0.36285831869E+03  0.12508905000E+03 0.  0.
          5    1    3    3  502    0 -0.76406907517E+02  0.24749276102E+02  0.31728291347E+03  0.32731706610E+03  0.41800000000E+01 0. -1.
         -5    1    3    3    0  502 -0.18096402627E+02 -0.28626581963E+02  0.99371651963E+01  0.35541252582E+02  0.41800000000E+01 0. -1.
        -11    1    1    2    0    0  0.86561188848E+02  0.29649367159E+02  0.13696562095E+03  0.16471644031E+03  0.00000000000E+00 0.  1.
         11    1    1    2    0    0  0.79421212952E+01 -0.25772061298E+02  0.12700288797E+03  0.12983454851E+03  0.00000000000E+00 0. -1.
</event>
<event>
 7    1  0.3739127E-009  0.1451208E+03  0.7561462E-02  0.1206600E+00
         -2   -1    0    0    0  501 -0.00000000000E+00  0.00000000000E+00  0.12674994069E+02  0.12674994069E+02  0.00000000000E+00 0.  1.
          2   -1    0    0  501    0  0.00000000000E+00 -0.00000000000E+00 -0.18708433414E+04  0.18708433414E+04  0.00000000000E+00 0. -1.
         25    2    1    2    0    0 -0.62078969383E+02 -0.86138550592E+02 -0.11506211849E+04  0.11622610185E+04  0.12509162961E+03 0.  0.
          5    1    3    3  502    0 -0.10534364438E+01 -0.92435675696E+02 -0.48085298453E+03  0.48967594284E+03  0.41800000000E+01 0.  1.
         -5    1    3    3    0  502 -0.61025532940E+02  0.62971251040E+01 -0.66976820035E+03  0.67258507570E+03  0.41800000000E+01 0.  1.
        -11    1    1    2    0    0 -0.22498087138E+01 -0.15644807772E+02 -0.41379426194E+02  0.44295355982E+02  0.00000000000E+00 0.  1.
         11    1    1    2    0    0  0.64328778097E+02  0.10178335836E+03 -0.66616773622E+03  0.67696196091E+03  0.00000000000E+00 0. -1.
</event>
<event>
 7    1  0.2842702E-009  0.1100630E+03  0.7561462E-02  0.1260453E+00
          2   -1    0    0  501    0  0.00000000000E+00  0.00000000000E+00  0.10089929936E+04  0.10089929936E+04  0.00000000000E+00 0. -1.
         -2   -1    0    0    0  501 -0.00000000000E+00 -0.00000000000E+00 -0.16860187902E+02  0.16860187902E+02  0.00000000000E+00 0.  1.
         25    2    1    2    0    0 -0.32112005038E+02 -0.54683138377E+02  0.67222185924E+03  0.68669631465E+03  0.12509266175E+03 0.  0.
          5    1    3    3  502    0  0.25307083880E+02 -0.67997390351E+02  0.24964616388E+03  0.26000917893E+03  0.41800000000E+01 0.  1.
         -5    1    3    3    0  502 -0.57419088918E+02  0.13314251974E+02  0.42257569536E+03  0.42668713572E+03  0.41800000000E+01 0.  1.
        -11    1    1    2    0    0  0.32059502571E+02  0.67929427499E+02  0.31675532052E+03  0.32553978544E+03  0.00000000000E+00 0. -1.
         11    1    1    2    0    0  0.52502467285E-01 -0.13246289122E+02  0.31556259775E+01  0.13617081454E+02  0.00000000000E+00 0.  1.
</event>
<event>
 7    1  0.2842702E-009  0.3344993E+03  0.7561462E-02  0.1069163E+00
         -2   -1    0    0    0  501 -0.00000000000E+00  0.00000000000E+00  0.37774837299E+02  0.37774837299E+02  0.00000000000E+00 0. -1.
          2   -1    0    0  501    0  0.00000000000E+00 -0.00000000000E+00 -0.31493050719E+04  0.31493050719E+04  0.00000000000E+00 0.  1.
         25    2    1    2    0    0  0.30481075254E+03 -0.11778559586E+03 -0.14850522358E+04  0.15257191160E+04  0.12512248517E+03 0.  0.
          5    1    3    3  502    0  0.95833086189E+02 -0.10146938845E+02 -0.23991812619E+03  0.25858290827E+03  0.41800000000E+01 0.  1.
         -5    1    3    3    0  502  0.20897766635E+03 -0.10763865702E+03 -0.12451341096E+04  0.12671362077E+04  0.41800000000E+01 0.  1.
        -11    1    1    2    0    0 -0.22468407997E+03  0.44923389300E+02 -0.10363948229E+04  0.10614213468E+04  0.00000000000E+00 0. -1.
         11    1    1    2    0    0 -0.80126672576E+02  0.72862206562E+02 -0.59008317595E+03  0.59993944640E+03  0.00000000000E+00 0.  1.
</event>
<event>
 7    1  0.2842702E-009  0.1076902E+03  0.7561462E-02  0.1264908E+00
         -1   -1    0    0    0  501 -0.00000000000E+00  0.00000000000E+00  0.26195813704E+03  0.26195813704E+03  0.00000000000E+00 0.  1.
          1   -1    0    0  501    0  0.00000000000E+00 -0.00000000000E+00 -0.88679348063E+02  0.88679348063E+02  0.00000000000E+00 0. -1.
         25    2    1    2    0    0 -0.76755803020E+02  0.36552822381E+02  0.43042855391E+02  0.15726400736E+03  0.12510682831E+03 0.  0.
          5    1    3    3  502    0 -0.48200627854E+02 -0.29868683174E+02 -0.20975807002E+02  0.60604419306E+02  0.41800000000E+01 0. -1.
         -5    1    3    3    0  502 -0.28555175166E+02  0.66421505555E+02  0.64018662393E+02  0.96659588058E+02  0.41800000000E+01 0. -1.
        -11    1    1    2    0    0  0.51915961763E+02 -0.31587119965E+02  0.14961091481E+03  0.16148200848E+03  0.00000000000E+00 0.  1.
         11    1    1    2    0    0  0.24839841257E+02 -0.49657024166E+01 -0.19374981222E+02  0.31891469259E+02  0.00000000000E+00 0. -1.
</event>
<event>
 7    1  0.2842702E-009  0.1070025E+03  0.7561462E-02  0.1266224E+00
          1   -1    0    0  501    0  0.00000000000E+00  0.00000000000E+00  0.27061298866E+03  0.27061298866E+03  0.00000000000E+00 0. -1.
         -1   -1    0    0    0  501 -0.00000000000E+00 -0.00000000000E+00 -0.46517286412E+02  0.46517286412E+02  0.00000000000E+00 0.  1.
         25    2    1    2    0    0  0.38655358283E+02 -0.25027196776E+01  0.11510668196E+03  0.17434996143E+03  0.12509140854E+03 0.  0.
          5    1    3    3  502    0  0.40098201160E+02  0.57637320828E+02  0.55960753298E+02  0.89883284309E+02  0.41800000000E+01 0.  1.
         -5    1    3    3    0  502 -0.14428428772E+01 -0.60140040506E+02  0.59145928659E+02  0.84466677125E+02  0.41800000000E+01 0.  1.
        -11    1    1    2    0    0 -0.38795583776E+02 -0.31124367567E+02  0.33017157009E+02  0.59698879671E+02  0.00000000000E+00 0.  1.
         11    1    1    2    0    0  0.14022549361E+00  0.33627087244E+02  0.75971863286E+02  0.83081433973E+02  0.00000000000E+00 0. -1.
</event>
<event>
 7    1  0.2842702E-009  0.1173519E+03  0.7561462E-02  0.1247531E+00
          2   -1    0    0  501    0  0.00000000000E+00  0.00000000000E+00  0.78505912207E+02  0.78505912207E+02  0.00000000000E+00 0. -1.
         -2   -1    0    0    0  501 -0.00000000000E+00 -0.00000000000E+00 -0.57832355095E+03  0.57832355095E+03  0.00000000000E+00 0.  1.
         25    2    1    2    0    0 -0.14884879213E+02  0.45482306213E+02  0.12392322811E+02  0.13450190317E+03  0.12508793900E+03 0.  0.
          5    1    3    3  502    0 -0.61232367673E+02 -0.75535635608E+01 -0.43315511255E+01  0.61989466109E+02  0.41800000000E+01 0.  1.
         -5    1    3    3    0  502  0.46347488460E+02  0.53035869773E+02  0.16723873937E+02  0.72512437061E+02  0.41800000000E+01 0.  1.
        -11    1    1    2    0    0 -0.20829734877E+02 -0.60183572879E+02 -0.31939421331E+03  0.32568175232E+03  0.00000000000E+00 0.  1.
         11    1    1    2    0    0  0.35714614090E+02  0.14701266667E+02 -0.19281574824E+03  0.19664580766E+03  0.00000000000E+00 0. -1.
</event>
<event>
 7    1  0.3039031E-009  0.1053445E+03  0.7561462E-02  0.1269442E+00
          1   -1    0    0  501    0  0.00000000000E+00  0.00000000000E+00  0.12663978373E+03  0.12663978373E+03  0.00000000000E+00 0. -1.
         -1   -1    0    0    0  501 -0.00000000000E+00 -0.00000000000E+00 -0.14823886100E+03  0.14823886100E+03  0.00000000000E+00 0.  1.
         25    2    1    2    0    0  0.77944106951E+02 -0.46198893180E+01  0.17641505531E+02  0.14850820968E+03  0.12508732325E+03 0.  0.
          5    1    3    3  502    0 -0.21985247577E+02 -0.20229312625E+02 -0.24496672365E+02  0.38860462649E+02  0.41800000000E+01 0.  1.
         -5    1    3    3    0  502  0.99929354529E+02  0.15609423307E+02  0.42138177896E+02  0.10964774703E+03  0.41800000000E+01 0.  1.
        -11    1    1    2    0    0 -0.94594153862E+01 -0.39982525952E+01  0.28112427666E+02  0.29929503045E+02  0.00000000000E+00 0. -1.
         11    1    1    2    0    0 -0.68484691565E+02  0.86181419132E+01 -0.67353010467E+02  0.96440932015E+02  0.00000000000E+00 0.  1.
</event>
<event>
 7    1  0.2842702E-009  0.1456183E+03  0.7561462E-02  0.1205963E+00
         -1   -1    0    0    0  501 -0.00000000000E+00  0.00000000000E+00  0.10507923834E+03  0.10507923834E+03  0.00000000000E+00 0.  1.
          1   -1    0    0  501    0  0.00000000000E+00 -0.00000000000E+00 -0.22399313996E+03  0.22399313996E+03  0.00000000000E+00 0. -1.
         25    2    1    2    0    0  0.97728667707E+02  0.54215578358E+02 -0.70006308343E+02  0.18176392402E+03  0.12508804674E+03 0.  0.
          5    1    3    3  502    0  0.95565546635E+02 -0.58065949029E+01 -0.74507952540E+02  0.12138944616E+03  0.41800000000E+01 0.  1.
         -5    1    3    3    0  502  0.21631210718E+01  0.60022173261E+02  0.45016441967E+01  0.60374477855E+02  0.41800000000E+01 0.  1.
        -11    1    1    2    0    0 -0.27366742936E+02  0.19260179413E+02  0.20494280400E+01  0.33527500432E+02  0.00000000000E+00 0.  1.
         11    1    1    2    0    0 -0.70361924770E+02 -0.73475757771E+02 -0.50957021315E+02  0.11378095385E+03  0.00000000000E+00 0. -1.
</event>
<event>
 7    1  0.2842702E-009  0.9427175E+02  0.7561462E-02  0.1292825E+00
          1   -1    0    0  501    0  0.00000000000E+00  0.00000000000E+00  0.11380583418E+03  0.11380583418E+03  0.00000000000E+00 0. -1.
         -1   -1    0    0    0  501 -0.00000000000E+00 -0.00000000000E+00 -0.13306384347E+03  0.13306384347E+03  0.00000000000E+00 0.  1.
         25    2    1    2    0    0  0.38521247430E+02  0.10448594801E+02 -0.54294987943E+02  0.14208714308E+03  0.12509097040E+03 0.  0.
          5    1    3    3  502    0  0.36453643668E+02 -0.52533675918E+02 -0.97808793529E+01  0.64821240678E+02  0.41800000000E+01 0.  1.
         -5    1    3    3    0  502  0.20676037620E+01  0.62982270719E+02 -0.44514108590E+02  0.77265902401E+02  0.41800000000E+01 0.  1.
        -11    1    1    2    0    0 -0.39748713904E+02 -0.24836113975E+02 -0.17702802014E+02  0.50101716672E+02  0.00000000000E+00 0.  1.
         11    1    1    2    0    0  0.12274664744E+01  0.14387519173E+02  0.52739780660E+02  0.54680817897E+02  0.00000000000E+00 0. -1.
</event>
<event>
 7    1  0.2842702E-009  0.2617332E+03  0.7561462E-02  0.1106106E+00
         -2   -1    0    0    0  501 -0.00000000000E+00  0.00000000000E+00  0.38742716441E+02  0.38742716441E+02  0.00000000000E+00 0.  1.
          2   -1    0    0  501    0  0.00000000000E+00 -0.00000000000E+00 -0.19245633608E+04  0.19245633608E+04  0.00000000000E+00 0. -1.
         25    2    1    2    0    0 -0.17275188083E+03  0.18056409298E+03 -0.10212702836E+04  0.10588138400E+04  0.12508857515E+03 0.  0.
          5    1    3    3  502    0 -0.79951268448E+02  0.12789600696E+03 -0.38261084878E+03  0.41128837562E+03  0.41800000000E+01 0.  1.
         -5    1    3    3    0  502 -0.92800612380E+02  0.52668086026E+02 -0.63865943479E+03  0.64752546436E+03  0.41800000000E+01 0.  1.
        -11    1    1    2    0    0  0.28922528247E+02 -0.93025559663E+02 -0.31089982707E+03  0.32580511025E+03  0.00000000000E+00 0. -1.
         11    1    1    2    0    0  0.14382935258E+03 -0.87538533320E+02 -0.55365053373E+03  0.57868712702E+03  0.00000000000E+00 0.  1.
</event>
<event>
 7    1  0.2842702E-009  0.1639190E+03  0.7561462E-02  0.1184342E+00
         -1   -1    0    0    0  501 -0.00000000000E+00  0.00000000000E+00  0.45387913870E+02  0.45387913870E+02  0.00000000000E+00 0.  1.
          1   -1    0    0  501    0  0.00000000000E+00 -0.00000000000E+00 -0.81242254508E+03  0.81242254508E+03  0.00000000000E+00 0. -1.
         25    2    1    2    0    0 -0.30418686610E+02  0.13381472953E+03 -0.57885499726E+03  0.60790932812E+03  0.12509582338E+03 0.  0.
          5    1    3    3  502    0  0.48585919756E+02  0.44155992762E+02 -0.22306895325E+03  0.23256735283E+03  0.41800000000E+01 0.  1.
         -5    1    3    3    0  502 -0.79004606366E+02  0.89658736771E+02 -0.35578604401E+03  0.37534197530E+03  0.41800000000E+01 0.  1.
        -11    1    1    2    0    0 -0.80826343971E+01 -0.44350455104E+02 -0.12728973611E+03  0.13503691631E+03  0.00000000000E+00 0. -1.
         11    1    1    2    0    0  0.38501321007E+02 -0.89464274430E+02 -0.60889897832E+02  0.11486421452E+03  0.00000000000E+00 0.  1.
</event>
<event>
 7    1  0.2842702E-009  0.1447402E+03  0.7561462E-02  0.1207089E+00
         -1   -1    0    0    0  501 -0.00000000000E+00  0.00000000000E+00  0.22825337251E+03  0.22825337251E+03  0.00000000000E+00 0.  1.
          1   -1    0    0  501    0  0.00000000000E+00 -0.00000000000E+00 -0.11607600393E+03  0.11607600393E+03  0.00000000000E+00 0. -1.
         25    2    1    2    0    0  0.10965362820E+03  0.51247848000E+02  0.50516311353E+02  0.18124350046E+03  0.12508816348E+03 0.  0.
          5    1    3    3  502    0  0.11438376943E+03  0.77669767688E+02  0.62207559257E+02  0.15166902238E+03  0.41800000000E+01 0. -1.
         -5    1    3    3    0  502 -0.47301412255E+01 -0.26421919688E+02 -0.11691247904E+02  0.29574478077E+02  0.41800000000E+01 0. -1.
        -11    1    1    2    0    0 -0.19528264038E+02  0.14619722944E+01 -0.21884407703E+02  0.29366950128E+02  0.00000000000E+00 0. -1.
         11    1    1    2    0    0 -0.90125364164E+02 -0.52709820295E+02  0.83545464932E+02  0.13371892586E+03  0.00000000000E+00 0.  1.
</event>
<event>
 7    1  0.2842702E-009  0.1240088E+03  0.7561462E-02  0.1236627E+00
         -2   -1    0    0    0  501 -0.00000000000E+00  0.00000000000E+00  0.16496935786E+03  0.16496935786E+03  0.00000000000E+00 0. -1.
          2   -1    0    0  501    0  0.00000000000E+00 -0.00000000000E+00 -0.10182933526E+03  0.10182933526E+03  0.00000000000E+00 0.  1.
         25    2    1    2    0    0  0.37302445006E+02 -0.51571223237E+02  0.70662068682E+02  0.15713595678E+03  0.12509003755E+03 0.  0.
          5    1    3    3  502    0 -0.43460743300E+02  0.24651956669E+00  0.29165156035E+02  0.52506911037E+02  0.41800000000E+01 0.  1.
         -5    1    3    3    0  502  0.80763188306E+02 -0.51817742804E+02  0.41496912647E+02  0.10462904575E+03  0.41800000000E+01 0.  1.
        -11    1    1    2    0    0 -0.20449620523E+02  0.75958775450E+02  0.14952072139E+01  0.78677558376E+02  0.00000000000E+00 0. -1.
         11    1    1    2    0    0 -0.16852824483E+02 -0.24387552213E+02 -0.90172532971E+01  0.30985177957E+02  0.00000000000E+00 0.  1.
</event>
<event>
 7    1  0.2842702E-009  0.1108677E+03  0.7561462E-02  0.1258971E+00
          2   -1    0    0  501    0  0.00000000000E+00  0.00000000000E+00  0.48149265213E+03  0.48149265213E+03  0.00000000000E+00 0.  1.
         -2   -1    0    0    0  501 -0.00000000000E+00 -0.00000000000E+00 -0.40385763681E+02  0.40385763681E+02  0.00000000000E+00 0. -1.
         25    2    1    2    0    0 -0.70281920701E+02  0.56696127925E+01  0.33089541959E+03  0.36070838438E+03  0.12508823673E+03 0.  0.
          5    1    3    3  502    0  0.14701035123E+02  0.36350452045E+02  0.40386528552E+02  0.56444839321E+02  0.41800000000E+01 0. -1.
         -5    1    3    3    0  502 -0.84982955824E+02 -0.30680839252E+02  0.29050889104E+03  0.30426354506E+03  0.41800000000E+01 0. -1.
        -11    1    1    2    0    0  0.98334304454E+01  0.22953772918E+02 -0.72491076393E+01  0.26002338492E+02  0.00000000000E+00 0. -1.
         11    1    1    2    0    0  0.60448490256E+02 -0.28623385711E+02  0.11746057650E+03  0.13516769294E+03  0.00000000000E+00 0.  1.
</event>
<event>
 7    1  0.2842702E-009  0.1582006E+03  0.7561462E-02  0.1190743E+00
         -1   -1    0    0    0  501 -0.00000000000E+00  0.00000000000E+00  0.68276201299E+02  0.68276201299E+02  0.00000000000E+00 0.  1.
          1   -1    0    0  501    0  0.00000000000E+00 -0.00000000000E+00 -0.42671634627E+03  0.42671634627E+03  0.00000000000E+00 0. -1.
         25    2    1    2    0    0 -0.95386437569E+02  0.77750436657E+02 -0.25783054997E+03  0.31187927943E+03  0.12509352328E+03 0.  0.
          5    1    3    3  502    0 -0.46994930661E+02  0.10713227651E+03 -0.15276835602E+03  0.19246166158E+03  0.41800000000E+01 0.  1.
         -5    1    3    3    0  502 -0.48391506908E+02 -0.29381839857E+02 -0.10506219396E+03  0.11941761785E+03  0.41800000000E+01 0.  1.
        -11    1    1    2    0    0  0.12727818951E+02  0.14106993130E+02 -0.42511519638E+02  0.46564298903E+02  0.00000000000E+00 0.  1.
         11    1    1    2    0    0  0.82658618619E+02 -0.91857429787E+02 -0.58098075366E+02  0.13654896924E+03  0.00000000000E+00 0. -1.
</event>
<event>
 7    1  0.2842702E-009  0.1144846E+03  0.7561462E-02  0.1252483E+00
          1   -1    0    0  501    0  0.00000000000E+00  0.00000000000E+00  0.30459808024E+03  0.30459808024E+03  0.00000000000E+00 0. -1.
         -1   -1    0    0    0  501 -0.00000000000E+00 -0.00000000000E+00 -0.84200867926E+02  0.84200867926E+02  0.00000000000E+00 0.  1.
         25    2    1    2    0    0 -0.53677837490E+02  0.46335557912E+02  0.23604978623E+03  0.27639515108E+03  0.12508590565E+03 0.  0.
          5    1    3    3  502    0  0.36813421309E+02 -0.82425615969E+01  0.58521927717E+02  0.69752822408E+02  0.41800000000E+01 0. -1.
         -5    1    3    3    0  502 -0.90491258799E+02  0.54578119509E+02  0.17752785852E+03  0.20664232867E+03  0.41800000000E+01 0. -1.
        -11    1    1    2    0    0  0.33596692311E+02  0.12349508763E+01  0.28800999420E+02  0.44269181215E+02  0.00000000000E+00 0. -1.
         11    1    1    2    0    0  0.20081145179E+02 -0.47570508788E+02 -0.44453573337E+02  0.68134615876E+02  0.00000000000E+00 0.  1.
</event>
<event>
 7    1  0.2842702E-009  0.1219958E+03  0.7561462E-02  0.1239840E+00
          2   -1    0    0  501    0  0.00000000000E+00  0.00000000000E+00  0.25484776037E+03  0.25484776037E+03  0.00000000000E+00 0.  1.
         -2   -1    0    0    0  501 -0.00000000000E+00 -0.00000000000E+00 -0.64033645956E+02  0.64033645956E+02  0.00000000000E+00 0. -1.
         25    2    1    2    0    0 -0.29838603800E+02  0.56490599669E+02  0.82319991201E+02  0.16280427873E+03  0.12508845708E+03 0.  0.
          5    1    3    3  502    0  0.27720765164E+02 -0.24904366392E+02  0.78806344671E+01  0.38317686338E+02  0.41800000000E+01 0. -1.
         -5    1    3    3    0  502 -0.57559368965E+02  0.81394966061E+02  0.74439356734E+02  0.12448659240E+03  0.41800000000E+01 0. -1.
        -11    1    1    2    0    0  0.50381565110E+02 -0.42266546376E+01  0.27599002366E+02  0.57600969124E+02  0.00000000000E+00 0. -1.
         11    1    1    2    0    0 -0.20542961310E+02 -0.52263945031E+02  0.80895120846E+02  0.98476158467E+02  0.00000000000E+00 0.  1.
</event>
<event>
 7    1  0.2842702E-009  0.2049657E+03  0.7561462E-02  0.1145616E+00
         -2   -1    0    0    0  501 -0.00000000000E+00  0.00000000000E+00  0.76431601571E+02  0.76431601571E+02  0.00000000000E+00 0. -1.
          2   -1    0    0  501    0  0.00000000000E+00 -0.00000000000E+00 -0.60243080491E+03  0.60243080491E+03  0.00000000000E+00 0.  1.
         25    2    1    2    0    0 -0.75153350019E+02 -0.15802020487E+03 -0.36852161008E+03  0.42670296824E+03  0.12509530305E+03 0.  0.
          5    1    3    3  502    0 -0.70767013236E+02 -0.15774458699E+02 -0.13066880663E+03  0.14949452544E+03  0.41800000000E+01 0. -1.
         -5    1    3    3    0  502 -0.43863367834E+01 -0.14224574617E+03 -0.23785280345E+03  0.27720844280E+03  0.41800000000E+01 0. -1.
        -11    1    1    2    0    0  0.61443033446E+02  0.34129969800E+02 -0.39969230504E+02  0.80855677504E+02  0.00000000000E+00 0. -1.
         11    1    1    2    0    0  0.13710316573E+02  0.12389023507E+03 -0.11750836276E+03  0.17130376074E+03  0.00000000000E+00 0.  1.
</event>
<event>
 7    1  0.2842702E-009  0.1090506E+03  0.7561462E-02  0.1262338E+00
          1   -1    0    0  501    0  0.00000000000E+00  0.00000000000E+00  0.24096297570E+02  0.24096297570E+02  0.00000000000E+00 0. -1.
         -1   -1    0    0    0  501 -0.00000000000E+00 -0.00000000000E+00 -0.71433409654E+03  0.71433409654E+03  0.00000000000E+00 0.  1.
         25    2    1    2    0    0  0.57967568130E+02 -0.38193855736E+02 -0.45607963068E+03  0.47798991277E+03  0.12508684030E+03 0.  0.
          5    1    3    3  502    0  0.96372082446E+02 -0.31075652069E+02 -0.28575090165E+03  0.30319024493E+03  0.41800000000E+01 0. -1.
         -5    1    3    3    0  502 -0.38404514316E+02 -0.71182036673E+01 -0.17032872903E+03  0.17479966784E+03  0.41800000000E+01 0. -1.
        -11    1    1    2    0    0 -0.38105281305E+02  0.42572975655E+02 -0.23317978841E+03  0.24007766335E+03  0.00000000000E+00 0.  1.
         11    1    1    2    0    0 -0.19862286824E+02 -0.43791199183E+01 -0.97837988044E+00  0.20362817986E+02  0.00000000000E+00 0. -1.
</event>
<event>
 7    1  0.2842702E-009  0.9859894E+02  0.7561462E-02  0.1283270E+00
          2   -1    0    0  501    0  0.00000000000E+00  0.00000000000E+00  0.38947028160E+03  0.38947028160E+03  0.00000000000E+00 0.  1.
         -2   -1    0    0    0  501 -0.00000000000E+00 -0.00000000000E+00 -0.41585916282E+02  0.41585916282E+02  0.00000000000E+00 0. -1.
         25    2    1    2    0    0 -0.33390395957E+02 -0.35521862453E+01  0.29389350071E+03  0.32116732844E+03  0.12509007366E+03 0.  0.
          5    1    3    3  502    0  0.28762704460E+02  0.25708524805E+02  0.31742535248E+02  0.50132647641E+02  0.41800000000E+01 0. -1.
         -5    1    3    3    0  502 -0.62153100417E+02 -0.29260711051E+02  0.26215096546E+03  0.27103468080E+03  0.41800000000E+01 0. -1.
        -11    1    1    2    0    0  0.19690466056E+02  0.43279385523E+02  0.91241045233E+01  0.48415585797E+02  0.00000000000E+00 0. -1.
         11    1    1    2    0    0  0.13699929901E+02 -0.39727199278E+02  0.44866760086E+02  0.61473283647E+02  0.00000000000E+00 0.  1.
</event>
<event>
 7    1  0.2842702E-009  0.9524094E+02  0.7561462E-02  0.1290634E+00
          1   -1    0    0  501    0  0.00000000000E+00  0.00000000000E+00  0.32360391750E+03  0.32360391750E+03  0.00000000000E+00 0. -1.
         -1   -1    0    0    0  501 -0.00000000000E+00 -0.00000000000E+00 -0.46492390605E+02  0.46492390605E+02  0.00000000000E+00 0.  1.
         25    2    1    2    0    0  0.18626613428E+02 -0.24584392541E+02  0.84064313942E+02  0.15383681238E+03  0.12509041882E+03 0.  0.
          5    1    3    3  502    0  0.52690283115E+02 -0.50750704547E+02  0.82930496183E+02  0.11066543970E+03  0.41800000000E+01 0.  1.
         -5    1    3    3    0  502 -0.34063669687E+02  0.26166312007E+02  0.11338177588E+01  0.43171372682E+02  0.41800000000E+01 0.  1.
        -11    1    1    2    0    0  0.17623612231E+02  0.32476358517E+02  0.16672600889E+03  0.17077138991E+03  0.00000000000E+00 0. -1.
         11    1    1    2    0    0 -0.36250225659E+02 -0.78919659764E+01  0.26321204062E+02  0.45488105815E+02  0.00000000000E+00 0.  1.
</event>
<event>
 7    1  0.2842702E-009  0.1654004E+03  0.7561462E-02  0.1182731E+00
         -3   -1    0    0    0  501 -0.00000000000E+00  0.00000000000E+00  0.22454087046E+03  0.22454087046E+03  0.00000000000E+00 0.  1.
          3   -1    0    0  501    0  0.00000000000E+00 -0.00000000000E+00 -0.12953454583E+03  0.12953454583E+03  0.00000000000E+00 0. -1.
         25    2    1    2    0    0 -0.67374074488E+02  0.11226089455E+03  0.64791951881E+02  0.19232109968E+03  0.12509050322E+03 0.  0.
          5    1    3    3  502    0 -0.10385554003E+03  0.72237416816E+02  0.49300093933E+02  0.13583883556E+03  0.41800000000E+01 0. -1.
         -5    1    3    3    0  502  0.36481465545E+02  0.40023477736E+02  0.15491857948E+02  0.56482264128E+02  0.41800000000E+01 0. -1.
        -11    1    1    2    0    0  0.76991552445E+02 -0.62330089737E+02 -0.61355977655E+01  0.99249104753E+02  0.00000000000E+00 0. -1.
         11    1    1    2    0    0 -0.96174779567E+01 -0.49930804815E+02  0.36349970521E+02  0.62505211851E+02  0.00000000000E+00 0.  1.
</event>
<event>
 7    1  0.2842702E-009  0.2014470E+03  0.7561462E-02  0.1148524E+00
          1   -1    0    0  501    0  0.00000000000E+00  0.00000000000E+00  0.10464198849E+04  0.10464198849E+04  0.00000000000E+00 0. -1.
         -1   -1    0    0    0  501 -0.00000000000E+00 -0.00000000000E+00 -0.62527409182E+02  0.62527409182E+02  0.00000000000E+00 0.  1.
         25    2    1    2    0    0 -0.16706080503E+03 -0.70876037625E+02  0.19481254011E+03  0.29416499257E+03  0.12509353212E+03 0.  0.
          5    1    3    3  502    0 -0.15397303397E+03 -0.20595166387E+02  0.96600599992E+02  0.18297815276E+03  0.41800000000E+01 0.  1.
         -5    1    3    3    0  502 -0.13087771062E+02 -0.50280871238E+02  0.98211940122E+02  0.11118683981E+03  0.41800000000E+01 0.  1.
        -11    1    1    2    0    0  0.10551836016E+03  0.56156360241E+01  0.53493399088E+03  0.54527060648E+03  0.00000000000E+00 0.  1.
         11    1    1    2    0    0  0.61542444875E+02  0.65260401601E+02  0.25414594475E+03  0.26951169505E+03  0.00000000000E+00 0. -1.
</event>
<event>
 7    1  0.2842702E-009  0.1846956E+03  0.7561462E-02  0.1163334E+00
          2   -1    0    0  501    0  0.00000000000E+00  0.00000000000E+00  0.27768026657E+03  0.27768026657E+03  0.00000000000E+00 0. -1.
         -2   -1    0    0    0  501 -0.00000000000E+00 -0.00000000000E+00 -0.20774985896E+03  0.20774985896E+03  0.00000000000E+00 0.  1.
         25    2    1    2    0    0  0.12171799830E+03 -0.87547310308E+02 -0.11787258446E+03  0.22808096143E+03  0.12508867313E+03 0.  0.
          5    1    3    3  502    0  0.25390745987E+02 -0.95008266842E+02 -0.55396476326E+02  0.11294911571E+03  0.41800000000E+01 0.  1.
         -5    1    3    3    0  502  0.96327252317E+02  0.74609565337E+01 -0.62476108132E+02  0.11513184572E+03  0.41800000000E+01 0.  1.
        -11    1    1    2    0    0 -0.90837255857E+02  0.10495413126E+03  0.13410054066E+03  0.19300189566E+03  0.00000000000E+00 0. -1.
         11    1    1    2    0    0 -0.30880742447E+02 -0.17406820956E+02  0.53702451408E+02  0.64347268450E+02  0.00000000000E+00 0.  1.
</event>
<event>
 7    1  0.3859707E-009  0.1274597E+03  0.7561462E-02  0.1231275E+00
         -2   -1    0    0    0  501 -0.00000000000E+00  0.00000000000E+00  0.53020714051E+02  0.53020714051E+02  0.00000000000E+00 0.  1.
          2   -1    0    0  501    0  0.00000000000E+00 -0.00000000000E+00 -0.35978315512E+03  0.35978315512E+03  0.00000000000E+00 0. -1.
         25    2    1    2    0    0  0.82116347897E+02  0.75844884917E+01 -0.20133669989E+03  0.25096459404E+03  0.12508453814E+03 0.  0.
          5    1    3    3  502    0  0.40079763882E+02  0.66110606158E+02 -0.11096743099E+03  0.13530795564E+03  0.41800000000E+01 0.  1.
         -5    1    3    3    0  502  0.42036584015E+02 -0.58526117666E+02 -0.90369268904E+02  0.11565663840E+03  0.41800000000E+01 0.  1.
        -11    1    1    2    0    0 -0.30454102730E+02  0.28967653788E+02 -0.39091311249E+01  0.42212067530E+02  0.00000000000E+00 0.  1.
         11    1    1    2    0    0 -0.51662245167E+02 -0.36552142279E+02 -0.10151661006E+03  0.11962720760E+03  0.00000000000E+00 0. -1.
</event>
<event>
 7    1  0.2842702E-009  0.3297133E+03  0.7561462E-02  0.1071264E+00
         -1   -1    0    0    0  501 -0.00000000000E+00  0.00000000000E+00  0.10534847851E+03  0.10534847851E+03  0.00000000000E+00 0.  1.
          1   -1    0    0  501    0  0.00000000000E+00 -0.00000000000E+00 -0.10803137700E+04  0.10803137700E+04  0.00000000000E+00 0. -1.
         25    2    1    2    0    0  0.15146060442E+03  0.27923137167E+03 -0.44243417271E+03  0.55884306021E+03  0.12508834934E+03 0.  0.
          5    1    3    3  502    0  0.12612206688E+03  0.11119216923E+03 -0.25837582097E+03  0.30829533164E+03  0.41800000000E+01 0. -1.
         -5    1    3    3    0  502  0.25338537547E+02  0.16803920245E+03 -0.18405835174E+03  0.25054772857E+03  0.41800000000E+01 0. -1.
        -11    1    1    2    0    0 -0.64043800238E+02 -0.72173595332E+02 -0.23421501528E+03  0.25331267161E+03  0.00000000000E+00 0. -1.
         11    1    1    2    0    0 -0.87416804185E+02 -0.20705777634E+03 -0.29831610346E+03  0.37350651665E+03  0.00000000000E+00 0.  1.
</event>
<event>
 7    1  0.2842702E-009  0.1066511E+03  0.7561462E-02  0.1266900E+00
          1   -1    0    0  501    0  0.00000000000E+00  0.00000000000E+00  0.48931782295E+03  0.48931782295E+03  0.00000000000E+00 0. -1.
         -1   -1    0    0    0  501 -0.00000000000E+00 -0.00000000000E+00 -0.49446139234E+02  0.49446139234E+02  0.00000000000E+00 0.  1.
         25    2    1    2    0    0 -0.89558913194E+02 -0.56822444624E+02  0.29312283781E+03  0.33588435886E+03  0.12509082834E+03 0.  0.
          5    1    3    3  502    0 -0.65140194447E+02 -0.46621587731E+02  0.57380806853E+02  0.98624777669E+02  0.41800000000E+01 0. -1.
         -5    1    3    3    0  502 -0.24418718746E+02 -0.10200856893E+02  0.23574203096E+03  0.23725958119E+03  0.41800000000E+01 0. -1.
        -11    1    1    2    0    0  0.57343886775E+02  0.40324007013E+02  0.15095847946E+03  0.16644160962E+03  0.00000000000E+00 0. -1.
         11    1    1    2    0    0  0.32215026419E+02  0.16498437611E+02 -0.42096335512E+01  0.36437993708E+02  0.00000000000E+00 0.  1.
</event>
<event>
 7    1  0.2842702E-009  0.9646926E+02  0.7561462E-02  0.1287901E+00
         -2   -1    0    0    0  501 -0.00000000000E+00  0.00000000000E+00  0.10347146152E+03  0.10347146152E+03  0.00000000000E+00 0.  1.
          2   -1    0    0  501    0  0.00000000000E+00 -0.00000000000E+00 -0.12647069009E+03  0.12647069009E+03  0.00000000000E+00 0. -1.
         25    2    1    2    0    0  0.80954047239E+01 -0.32000460610E+02  0.38584035632E+01  0.12942909013E+03  0.12508971595E+03 0.  0.
          5    1    3    3  502    0  0.40892623437E+02  0.29412453700E+02 -0.21889509397E+02  0.55081050334E+02  0.41800000000E+01 0.  1.
         -5    1    3    3    0  502 -0.32797218713E+02 -0.61412914310E+02  0.25747912960E+02  0.74348039794E+02  0.41800000000E+01 0.  1.
        -11    1    1    2    0    0  0.26281320818E+02  0.91174594770E+00  0.21176167596E+02  0.33763429605E+02  0.00000000000E+00 0.  1.
         11    1    1    2    0    0 -0.34376725542E+02  0.31088714662E+02 -0.48033799734E+02  0.66749631874E+02  0.00000000000E+00 0. -1.
</event>
<event>
 7    1  0.2842702E-009  0.1118539E+03  0.7561462E-02  0.1257175E+00
         -4   -1    0    0    0  501 -0.00000000000E+00  0.00000000000E+00  0.11663265681E+04  0.11663265681E+04  0.00000000000E+00 0.  1.
          4   -1    0    0  501    0  0.00000000000E+00 -0.00000000000E+00 -0.12496858161E+02  0.12496858161E+02  0.00000000000E+00 0. -1.
         25    2    1    2    0    0 -0.34182098386E+02 -0.40738203343E+02  0.71399305590E+03  0.72681538951E+03  0.12508600840E+03 0.  0.
          5    1    3    3  502    0 -0.31550776882E+02  0.33674342890E+02  0.45339482010E+03  0.45575623768E+03  0.41800000000E+01 0.  1.
         -5    1    3    3    0  502 -0.26313215041E+01 -0.74412546233E+02  0.26059823580E+03  0.27105915183E+03  0.41800000000E+01 0.  1.
        -11    1    1    2    0    0 -0.21486193581E+02  0.41931437883E+02  0.23875400529E+03  0.24335853599E+03  0.00000000000E+00 0.  1.
         11    1    1    2    0    0  0.55668291966E+02 -0.11932345400E+01  0.20108264877E+03  0.20864950077E+03  0.00000000000E+00 0. -1.
</event>
<event>
 7    1  0.2842702E-009  0.1213091E+03  0.7561462E-02  0.1240953E+00
          1   -1    0    0  501    0  0.00000000000E+00  0.00000000000E+00  0.49885490688E+03  0.49885490688E+03  0.00000000000E+00 0. -1.
         -1   -1    0    0    0  501 -0.00000000000E+00 -0.00000000000E+00 -0.55308575450E+02  0.55308575450E+02  0.00000000000E+00 0.  1.
         25    2    1    2    0    0 -0.93783112997E+02 -0.38063970974E+02  0.36041104520E+03  0.39469926311E+03  0.12508896287E+03 0.  0.
          5    1    3    3  502    0 -0.81916023048E+02 -0.19827268135E+02  0.36273575553E+03  0.37242187924E+03  0.41800000000E+01 0. -1.
         -5    1    3    3    0  502 -0.11867089949E+02 -0.18236702839E+02 -0.23247103323E+01  0.22277383878E+02  0.41800000000E+01 0. -1.
        -11    1    1    2    0    0  0.69441879886E+02 -0.20708324537E+02  0.43943243206E+02  0.84746787613E+02  0.00000000000E+00 0. -1.
         11    1    1    2    0    0  0.24341233111E+02  0.58772295511E+02  0.39192043027E+02  0.74717431605E+02  0.00000000000E+00 0.  1.
</event>
<event>
 7    1  0.2842702E-009  0.1639673E+03  0.7561462E-02  0.1184289E+00
         -1   -1    0    0    0  501 -0.00000000000E+00  0.00000000000E+00  0.87383302839E+03  0.87383302839E+03  0.00000000000E+00 0.  1.
          1   -1    0    0  501    0  0.00000000000E+00 -0.00000000000E+00 -0.39498601720E+02  0.39498601720E+02  0.00000000000E+00 0. -1.
         25    2    1    2    0    0 -0.73714840062E+02  0.11531948497E+03  0.59433319199E+03  0.62258408289E+03  0.12508611397E+03 0.  0.
          5    1    3    3  502    0 -0.22517147198E+01  0.95010116084E+02  0.45277281517E+03  0.46265828312E+03  0.41800000000E+01 0.  1.
         -5    1    3    3    0  502 -0.71463125342E+02  0.20309368890E+02  0.14156037682E+03  0.15992579977E+03  0.41800000000E+01 0.  1.
        -11    1    1    2    0    0 -0.11001741199E+02 -0.50610960380E+02  0.11717874504E+03  0.12811465923E+03  0.00000000000E+00 0.  1.
         11    1    1    2    0    0  0.84716581260E+02 -0.64708524593E+02  0.12282248964E+03  0.16263288799E+03  0.00000000000E+00 0. -1.
</event>
<event>
 7    1  0.2842702E-009  0.6919485E+02  0.7561462E-02  0.1362853E+00
         -2   -1    0    0    0  501 -0.00000000000E+00  0.00000000000E+00  0.16007145489E+02  0.16007145489E+02  0.00000000000E+00 0.  1.
          2   -1    0    0  501    0  0.00000000000E+00 -0.00000000000E+00 -0.78964344647E+03  0.78964344647E+03  0.00000000000E+00 0. -1.
         25    2    1    2    0    0  0.25474398400E+02 -0.17904644321E+02 -0.42560968512E+03  0.44470254779E+03  0.12508889112E+03 0.  0.
          5    1    3    3  502    0  0.76362465224E+01 -0.23775051578E+02 -0.42468755355E+03  0.42544160102E+03  0.41800000000E+01 0. -1.
         -5    1    3    3    0  502  0.17838151878E+02  0.58704072567E+01 -0.92213156733E+00  0.19260946768E+02  0.41800000000E+01 0. -1.
        -11    1    1    2    0    0  0.20065534858E+02 -0.24457507732E+02 -0.85803933324E+02  0.91450042906E+02  0.00000000000E+00 0.  1.
         11    1    1    2    0    0 -0.45539933259E+02  0.42362152053E+02 -0.26222268253E+03  0.26949800126E+03  0.00000000000E+00 0. -1.
</event>
<event>
 7    1  0.2842702E-009  0.1930224E+03  0.7561462E-02  0.1155763E+00
         -2   -1    0    0    0  501 -0.00000000000E+00  0.00000000000E+00  0.73034164399E+02  0.73034164399E+02  0.00000000000E+00 0.  1.
          2   -1    0    0  501    0  0.00000000000E+00 -0.00000000000E+00 -0.63154562008E+03  0.63154562008E+03  0.00000000000E+00 0. -1.
         25    2    1    2    0    0  0.32082622079E+02  0.16961555489E+03 -0.18213994687E+03  0.28039434953E+03  0.12508916782E+03 0.  0.
          5    1    3    3  502    0  0.51638134946E+02  0.11300955653E+02 -0.54651494166E+02  0.76147664402E+02  0.41800000000E+01 0.  1.
         -5    1    3    3    0  502 -0.19555512867E+02  0.15831459923E+03 -0.12748845270E+03  0.20424668513E+03  0.41800000000E+01 0.  1.
        -11    1    1    2    0    0 -0.17838150018E+01 -0.50726546344E+02 -0.35592232001E+02  0.61993318017E+02  0.00000000000E+00 0.  1.
         11    1    1    2    0    0 -0.30298807077E+02 -0.11888900854E+03 -0.34077927681E+03  0.36219211693E+03  0.00000000000E+00 0. -1.
</event>
<event>
 7    1  0.2842702E-009  0.1693138E+03  0.7561462E-02  0.1178565E+00
         -2   -1    0    0    0  501 -0.00000000000E+00  0.00000000000E+00  0.41702369517E+02  0.41702369517E+02  0.00000000000E+00 0.  1.
          2   -1    0    0  501    0  0.00000000000E+00 -0.00000000000E+00 -0.80844167256E+03  0.80844167256E+03  0.00000000000E+00 0. -1.
         25    2    1    2    0    0 -0.81187173035E+02  0.12195856131E+03 -0.44277027184E+03  0.48286274338E+03  0.12508264300E+03 0.  0.
          5    1    3    3  502    0 -0.70318470827E+02  0.33369681086E+01 -0.12572634933E+03  0.14415411895E+03  0.41800000000E+01 0. -1.
         -5    1    3    3    0  502 -0.10868702208E+02  0.11862159320E+03 -0.31704392251E+03  0.33870862443E+03  0.41800000000E+01 0. -1.
        -11    1    1    2    0    0  0.40586546505E+02 -0.37747952697E+02 -0.22254743139E+03  0.22934588487E+03  0.00000000000E+00 0. -1.
         11    1    1    2    0    0  0.40600626530E+02 -0.84210608611E+02 -0.10142159981E+03  0.13793541382E+03  0.00000000000E+00 0.  1.
</event>
<event>
 7    1  0.2842702E-009  0.1131441E+03  0.7561462E-02  0.1254856E+00
         -2   -1    0    0    0  501 -0.00000000000E+00  0.00000000000E+00  0.81369672056E+03  0.81369672056E+03  0.00000000000E+00 0.  1.
          2   -1    0    0  501    0  0.00000000000E+00 -0.00000000000E+00 -0.18293793394E+02  0.18293793394E+02  0.00000000000E+00 0. -1.
         25    2    1    2    0    0 -0.40427787636E+02 -0.67672470518E+01  0.32064378033E+03  0.34661305933E+03  0.12509187579E+03 0.  0.
          5    1    3    3  502    0  0.24939234208E+02 -0.46192785097E+02  0.16512739533E+03  0.17332128515E+03  0.41800000000E+01 0. -1.
         -5    1    3    3    0  502 -0.65367021844E+02  0.39425538045E+02  0.15551638499E+03  0.17329177417E+03  0.41800000000E+01 0. -1.
        -11    1    1    2    0    0 -0.27088093010E+02  0.11643736226E+02  0.89928409953E+02  0.94638577192E+02  0.00000000000E+00 0. -1.
         11    1    1    2    0    0  0.67515880646E+02 -0.48764891738E+01  0.38483073689E+03  0.39073887743E+03  0.00000000000E+00 0.  1.
</event>
<event>
 7    1  0.2842702E-009  0.9452687E+02  0.7561462E-02  0.1292245E+00
          2   -1    0    0  501    0  0.00000000000E+00  0.00000000000E+00  0.61745568265E+03  0.61745568265E+03  0.00000000000E+00 0.  1.
         -2   -1    0    0    0  501 -0.00000000000E+00 -0.00000000000E+00 -0.24776652811E+02  0.24776652811E+02  0.00000000000E+00 0. -1.
         25    2    1    2    0    0 -0.37445803930E+02 -0.12759096018E+02  0.44593193259E+03  0.46482839881E+03  0.12508065028E+03 0.  0.
          5    1    3    3  502    0 -0.38210792891E+02 -0.60600422350E+02  0.35297795688E+03  0.36019909263E+03  0.41800000000E+01 0. -1.
         -5    1    3    3    0  502  0.76498896171E+00  0.47841326332E+02  0.92953975704E+02  0.10462930618E+03  0.41800000000E+01 0. -1.
        -11    1    1    2    0    0  0.24711441543E+02  0.35466527056E+02  0.14500546690E+03  0.15131131919E+03  0.00000000000E+00 0.  1.
         11    1    1    2    0    0  0.12734362386E+02 -0.22707431038E+02  0.17416303533E+01  0.26092617462E+02  0.00000000000E+00 0. -1.
</event>
<event>
 7    1  0.2842702E-009  0.1279090E+03  0.7561462E-02  0.1230592E+00
          2   -1    0    0  501    0  0.00000000000E+00  0.00000000000E+00  0.42825627042E+03  0.42825627042E+03  0.00000000000E+00 0. -1.
         -2   -1    0    0    0  501 -0.00000000000E+00 -0.00000000000E+00 -0.40714055321E+02  0.40714055321E+02  0.00000000000E+00 0.  1.
         25    2    1    2    0    0  0.73971975385E+02  0.24331107461E+02  0.17884297246E+03  0.23172491759E+03  0.12509105764E+03 0.  0.
          5    1    3    3  502    0  0.10714981242E+03  0.30235097436E+02  0.15189503625E+03  0.18837414327E+03  0.41800000000E+01 0. -1.
         -5    1    3    3    0  502 -0.33177837031E+02 -0.59039899753E+01  0.26947936214E+02  0.43350774317E+02  0.41800000000E+01 0. -1.
        -11    1    1    2    0    0 -0.17417066955E+02 -0.46537419655E+02  0.11844327657E+03  0.12844413344E+03  0.00000000000E+00 0.  1.
         11    1    1    2    0    0 -0.56554908429E+02  0.22206312194E+02  0.90255966067E+02  0.10880127471E+03  0.00000000000E+00 0. -1.
</event>
<event>
 7    1  0.2842702E-009  0.1129041E+03  0.7561462E-02  0.1255285E+00
         -1   -1    0    0    0  501 -0.00000000000E+00  0.00000000000E+00  0.66167824094E+02  0.66167824094E+02  0.00000000000E+00 0.  1.
          1   -1    0    0  501    0  0.00000000000E+00 -0.00000000000E+00 -0.21831905644E+03  0.21831905644E+03  0.00000000000E+00 0. -1.
         25    2    1    2    0    0  0.96310709680E+01 -0.37440649184E+02 -0.12270326347E+03  0.17943916017E+03  0.12509101326E+03 0.  0.
          5    1    3    3  502    0 -0.29178532677E+02 -0.72495543460E+02 -0.78345277558E+02  0.11073592690E+03  0.41800000000E+01 0. -1.
         -5    1    3    3    0  502  0.38809603645E+02  0.35054894276E+02 -0.44357985913E+02  0.68703233272E+02  0.41800000000E+01 0. -1.
        -11    1    1    2    0    0 -0.39276276193E+02  0.49406437801E+02 -0.23835104617E+01  0.63160930091E+02  0.00000000000E+00 0.  1.
         11    1    1    2    0    0  0.29645205225E+02 -0.11965788617E+02 -0.27064458412E+02  0.41886790271E+02  0.00000000000E+00 0. -1.
</event>
<event>
 7    1  0.2842702E-009  0.1070333E+03  0.7561462E-02  0.1266164E+00
         -4   -1    0    0    0  501 -0.00000000000E+00  0.00000000000E+00  0.72711821614E+03  0.72711821614E+03  0.00000000000E+00 0.  1.
          4   -1    0    0  501    0  0.00000000000E+00 -0.00000000000E+00 -0.28753131433E+02  0.28753131433E+02  0.00000000000E+00 0. -1.
         25    2    1    2    0    0  0.66007319930E+02  0.23606311527E+02  0.58070335017E+03  0.59814521563E+03  0.12508834421E+03 0.  0.
          5    1    3    3  502    0  0.26144902732E+02 -0.45924671948E+02  0.13069794246E+03  0.14103920021E+03  0.41800000000E+01 0. -1.
         -5    1    3    3    0  502  0.39862417198E+02  0.69530983476E+02  0.45000540771E+03  0.45710601542E+03  0.41800000000E+01 0. -1.
        -11    1    1    2    0    0 -0.50927056614E+02  0.21294285185E+01  0.11729930774E+03  0.12789537583E+03  0.00000000000E+00 0.  1.
         11    1    1    2    0    0 -0.15080263316E+02 -0.25735740046E+02  0.36242679964E+00  0.29830756118E+02  0.00000000000E+00 0. -1.
</event>
<event>
 7    1  0.2842702E-009  0.9419403E+02  0.7561462E-02  0.1293002E+00
         -1   -1    0    0    0  501 -0.00000000000E+00  0.00000000000E+00  0.66101376354E+03  0.66101376354E+03  0.00000000000E+00 0.  1.
          1   -1    0    0  501    0  0.00000000000E+00 -0.00000000000E+00 -0.30151894812E+02  0.30151894812E+02  0.00000000000E+00 0. -1.
         25    2    1    2    0    0  0.68502873443E+02 -0.35096128043E+02  0.45436590152E+03  0.47751513838E+03  0.12509177847E+03 0.  0.
          5    1    3    3  502    0  0.24896405888E+02 -0.49417602598E+01  0.40219312619E+03  0.40301493170E+03  0.41800000000E+01 0. -1.
         -5    1    3    3    0  502  0.43606467555E+02 -0.30154367783E+02  0.52172775337E+02  0.74500206681E+02  0.41800000000E+01 0. -1.
        -11    1    1    2    0    0 -0.44624402212E+02  0.60134555587E+02  0.15698206126E+03  0.17392777123E+03  0.00000000000E+00 0. -1.
         11    1    1    2    0    0 -0.23878471231E+02 -0.25038427544E+02  0.19513905944E+02  0.39722748739E+02  0.00000000000E+00 0.  1.
</event>
<event>
 7    1  0.2842702E-009  0.1472015E+03  0.7561462E-02  0.1203955E+00
         -2   -1    0    0    0  501 -0.00000000000E+00  0.00000000000E+00  0.32986889770E+02  0.32986889770E+02  0.00000000000E+00 0. -1.
          2   -1    0    0  501    0  0.00000000000E+00 -0.00000000000E+00 -0.13066074188E+04  0.13066074188E+04  0.00000000000E+00 0.  1.
         25    2    1    2    0    0  0.94236729696E+02 -0.10329796778E+03 -0.89307940901E+03  0.91257274160E+03  0.12508855475E+03 0.  0.
          5    1    3    3  502    0  0.60859246364E+02 -0.70341221588E+02 -0.82232539923E+03  0.82757976651E+03  0.41800000000E+01 0.  1.
         -5    1    3    3    0  502  0.33377483332E+02 -0.32956746195E+02 -0.70754009786E+02  0.84992975087E+02  0.41800000000E+01 0.  1.
        -11    1    1    2    0    0 -0.85437505933E+02  0.11263479095E+03 -0.38745960743E+03  0.41244528236E+03  0.00000000000E+00 0.  1.
         11    1    1    2    0    0 -0.87992237629E+01 -0.93368231637E+01  0.69184873995E+01  0.14576284627E+02  0.00000000000E+00 0. -1.
</event>
<event>
 7    1  0.2842702E-009  0.4998361E+02  0.7561462E-02  0.1445430E+00
         -1   -1    0    0    0  501 -0.00000000000E+00  0.00000000000E+00  0.78314560424E+02  0.78314560424E+02  0.00000000000E+00 0.  1.
          1   -1    0    0  501    0  0.00000000000E+00 -0.00000000000E+00 -0.22897709647E+03  0.22897709647E+03  0.00000000000E+00 0. -1.
         25    2    1    2    0    0 -0.24283554877E+02 -0.25713349953E+02 -0.16289497984E+03  0.20840659744E+03  0.12509063912E+03 0.  0.
          5    1    3    3  502    0 -0.39887977546E+01  0.89673644312E+01 -0.16741565819E+03  0.16775517619E+03  0.41800000000E+01 0. -1.
         -5    1    3    3    0  502 -0.20294757123E+02 -0.34680714384E+02  0.45206783459E+01  0.40651421249E+02  0.41800000000E+01 0. -1.
        -11    1    1    2    0    0  0.16965855540E+01  0.26252240079E+02 -0.36603334272E+02  0.45076186523E+02  0.00000000000E+00 0. -1.
         11    1    1    2    0    0  0.22586969323E+02 -0.53889012547E+00  0.48835778072E+02  0.53808872927E+02  0.00000000000E+00 0.  1.
</event>
<event>
 7    1  0.2842702E-009  0.9866265E+02  0.7561462E-02  0.1283134E+00
         -2   -1    0    0    0  501 -0.00000000000E+00  0.00000000000E+00  0.17403966631E+02  0.17403966631E+02  0.00000000000E+00 0. -1.
          2   -1    0    0  501    0  0.00000000000E+00 -0.00000000000E+00 -0.11553243710E+04  0.11553243710E+04  0.00000000000E+00 0.  1.
         25    2    1    2    0    0 -0.43763946206E+02  0.18323727913E+01 -0.94244995404E+03  0.95172362897E+03  0.12508920617E+03 0.  0.
          5    1    3    3  502    0 -0.76996656405E+02 -0.13472879366E+02 -0.37515093078E+03  0.38323060530E+03  0.41800000000E+01 0. -1.
         -5    1    3    3    0  502  0.33232710199E+02  0.15305252157E+02 -0.56729902326E+03  0.56849302367E+03  0.41800000000E+01 0. -1.
        -11    1    1    2    0    0  0.54767873146E+02 -0.22180141178E+02 -0.18741572472E+03  0.19650987879E+03  0.00000000000E+00 0.  1.
         11    1    1    2    0    0 -0.11003926940E+02  0.20347768386E+02 -0.80547256405E+01  0.24494829894E+02  0.00000000000E+00 0. -1.
</event>
<event>
 7    1  0.2842702E-009  0.1222277E+03  0.7561462E-02  0.1239467E+00
          3   -1    0    0  501    0  0.00000000000E+00  0.00000000000E+00  0.22073290318E+02  0.22073290318E+02  0.00000000000E+00 0. -1.
         -3   -1    0    0    0  501 -0.00000000000E+00 -0.00000000000E+00 -0.14586272578E+04  0.14586272578E+04  0.00000000000E+00 0.  1.
         25    2    1    2    0    0  0.38132736427E+02 -0.53635863352E+02 -0.12118851909E+04  0.12200986990E+04  0.12507680844E+03 0.  0.
          5    1    3    3  502    0  0.26096997827E+02 -0.93723718249E+02 -0.93143908756E+03  0.93651558177E+03  0.41800000000E+01 0.  1.
         -5    1    3    3    0  502  0.12035738600E+02  0.40087854897E+02 -0.28044610335E+03  0.28358311726E+03  0.41800000000E+01 0.  1.
        -11    1    1    2    0    0  0.18210800007E+02  0.44305081523E+02 -0.27297113148E+02  0.55133527657E+02  0.00000000000E+00 0. -1.
         11    1    1    2    0    0 -0.56343536434E+02  0.93307818289E+01 -0.19737166341E+03  0.20546832142E+03  0.00000000000E+00 0.  1.
</event>
<event>
 7    1  0.2842702E-009  0.2573347E+03  0.7561462E-02  0.1108755E+00
         -1   -1    0    0    0  501 -0.00000000000E+00  0.00000000000E+00  0.13652251885E+03  0.13652251885E+03  0.00000000000E+00 0.  1.
          1   -1    0    0  501    0  0.00000000000E+00 -0.00000000000E+00 -0.58460622700E+03  0.58460622700E+03  0.00000000000E+00 0. -1.
         25    2    1    2    0    0 -0.16552827224E+03 -0.16749134541E+03 -0.37192743661E+03  0.45763458866E+03  0.12508572636E+03 0.  0.
          5    1    3    3  502    0 -0.14337446185E+03 -0.58110653713E+02 -0.22484117992E+03  0.27295441556E+03  0.41800000000E+01 0.  1.
         -5    1    3    3    0  502 -0.22153810391E+02 -0.10938069170E+03 -0.14708625669E+03  0.18468017310E+03  0.41800000000E+01 0.  1.
        -11    1    1    2    0    0  0.44789393718E+02  0.10078513657E+03 -0.57252980871E+02  0.12426438493E+03  0.00000000000E+00 0. -1.
         11    1    1    2    0    0  0.12073887852E+03  0.66706208834E+02 -0.18903290671E+02  0.13922977225E+03  0.00000000000E+00 0.  1.
</event>
<event>
 7    1  0.3479576E-009  0.1911186E+03  0.7561462E-02  0.1157456E+00
         -1   -1    0    0    0  501 -0.00000000000E+00  0.00000000000E+00  0.10445642095E+03  0.10445642095E+03  0.00000000000E+00 0.  1.
          1   -1    0    0  501    0  0.00000000000E+00 -0.00000000000E+00 -0.45571818445E+03  0.45571818445E+03  0.00000000000E+00 0. -1.
         25    2    1    2    0    0 -0.36953390201E+02  0.18285083349E+03 -0.14456810015E+03  0.26710987354E+03  0.12509104127E+03 0.  0.
          5    1    3    3  502    0  0.69092394156E+01  0.26402441244E+02  0.21308368338E+02  0.34876144486E+02  0.41800000000E+01 0. -1.
         -5    1    3    3    0  502 -0.43862629617E+02  0.15644839225E+03 -0.16587646848E+03  0.23223372905E+03  0.41800000000E+01 0. -1.
        -11    1    1    2    0    0  0.45594261563E+02 -0.11523505270E+03 -0.75215681707E+02  0.14496673009E+03  0.00000000000E+00 0.  1.
         11    1    1    2    0    0 -0.86408713623E+01 -0.67615780792E+02 -0.13147798165E+03  0.14809800177E+03  0.00000000000E+00 0. -1.
</event>
<event>
 7    1  0.2842702E-009  0.1339440E+03  0.7561462E-02  0.1221718E+00
         -1   -1    0    0    0  501 -0.00000000000E+00  0.00000000000E+00  0.10651889683E+03  0.10651889683E+03  0.00000000000E+00 0.  1.
          1   -1    0    0  501    0  0.00000000000E+00 -0.00000000000E+00 -0.26926624248E+03  0.26926624248E+03  0.00000000000E+00 0. -1.
         25    2    1    2    0    0  0.50692314212E+02 -0.11675823883E+03 -0.11417857855E+03  0.21186429047E+03  0.12509009842E+03 0.  0.
          5    1    3    3  502    0  0.34752733242E+02 -0.11488506512E+03 -0.26966596857E+02  0.12308940004E+03  0.41800000000E+01 0. -1.
         -5    1    3    3    0  502  0.15939580970E+02 -0.18731737133E+01 -0.87211981691E+02  0.88774890435E+02  0.41800000000E+01 0. -1.
        -11    1    1    2    0    0 -0.37320164870E+02  0.11012551170E+03 -0.33755162813E+01  0.11632633899E+03  0.00000000000E+00 0.  1.
         11    1    1    2    0    0 -0.13372149342E+02  0.66327271374E+01 -0.45193250828E+02  0.47594509849E+02  0.00000000000E+00 0. -1.
</event>
<event>
 7    1  0.4013523E-009  0.1068375E+03  0.7561462E-02  0.1266541E+00
          2   -1    0    0  501    0  0.00000000000E+00  0.00000000000E+00  0.30037419391E+03  0.30037419391E+03  0.00000000000E+00 0. -1.
         -2   -1    0    0    0  501 -0.00000000000E+00 -0.00000000000E+00 -0.52733541327E+02  0.52733541327E+02  0.00000000000E+00 0.  1.
         25    2    1    2    0    0 -0.34071537863E+02  0.85015695784E+01  0.21274857811E+03  0.24928368597E+03  0.12508897723E+03 0.  0.
          5    1    3    3  502    0 -0.21705848093E+02 -0.58032083107E+02  0.99354533447E+02  0.11716510670E+03  0.41800000000E+01 0.  1.
         -5    1    3    3    0  502 -0.12365689769E+02  0.66533652686E+02  0.11339404467E+03  0.13211857927E+03  0.41800000000E+01 0.  1.
        -11    1    1    2    0    0  0.31099640785E+02 -0.40820853728E+02 -0.59443036028E+01  0.51661054009E+02  0.00000000000E+00 0.  1.
         11    1    1    2    0    0  0.29718970776E+01  0.32319284149E+02  0.40836378076E+02  0.52162995260E+02  0.00000000000E+00 0. -1.
</event>
<event>
 7    1  0.2842702E-009  0.9522371E+02  0.7561462E-02  0.1290673E+00
          2   -1    0    0  501    0  0.00000000000E+00  0.00000000000E+00  0.69778073278E+03  0.69778073278E+03  0.00000000000E+00 0.  1.
         -2   -1    0    0    0  501 -0.00000000000E+00 -0.00000000000E+00 -0.19582263302E+02  0.19582263302E+02  0.00000000000E+00 0. -1.
         25    2    1    2    0    0 -0.22366105565E+02  0.34776181661E+02  0.43377629610E+03  0.45334026558E+03  0.12508355547E+03 0.  0.
          5    1    3    3  502    0 -0.45619202030E+02 -0.11824300404E+02  0.62406961500E+02  0.78313644517E+02  0.41800000000E+01 0.  1.
         -5    1    3    3    0  502  0.23253096465E+02  0.46600482065E+02  0.37136933460E+03  0.37502662106E+03  0.41800000000E+01 0.  1.
        -11    1    1    2    0    0  0.28298341968E+02 -0.59273966420E+02  0.21724011358E+03  0.22695256377E+03  0.00000000000E+00 0.  1.
         11    1    1    2    0    0 -0.59322364036E+01  0.24497784759E+02  0.27182059798E+02  0.37070166735E+02  0.00000000000E+00 0. -1.
</event>
<event>
 7    1  0.2842702E-009  0.9174211E+02  0.7561462E-02  0.1298687E+00
         -2   -1    0    0    0  501 -0.00000000000E+00  0.00000000000E+00  0.83443094890E+02  0.83443094890E+02  0.00000000000E+00 0.  1.
          2   -1    0    0  501    0  0.00000000000E+00 -0.00000000000E+00 -0.14365694228E+03  0.14365694228E+03  0.00000000000E+00 0. -1.
         25    2    1    2    0    0 -0.74663906752E+01  0.52325724610E+01 -0.23843302801E+02  0.12766926369E+03  0.12509121072E+03 0.  0.
          5    1    3    3  502    0  0.46175373123E+02  0.63112344929E+01 -0.49444215966E+02  0.68074956161E+02  0.41800000000E+01 0. -1.
         -5    1    3    3    0  502 -0.53641763798E+02 -0.10786620319E+01  0.25600913165E+02  0.59594307530E+02  0.41800000000E+01 0. -1.
        -11    1    1    2    0    0 -0.11303012914E+02 -0.40975513343E+02  0.35513177051E+01  0.42653987529E+02  0.00000000000E+00 0.  1.
         11    1    1    2    0    0  0.18769403589E+02  0.35742940882E+02 -0.39921862294E+02  0.56776785952E+02  0.00000000000E+00 0. -1.
</event>
<event>
 7    1  0.2842702E-009  0.1002701E+03  0.7561462E-02  0.1279729E+00
          2   -1    0    0  501    0  0.00000000000E+00  0.00000000000E+00  0.16796081856E+03  0.16796081856E+03  0.00000000000E+00 0.  1.
         -2   -1    0    0    0  501 -0.00000000000E+00 -0.00000000000E+00 -0.97562228613E+02  0.97562228613E+02  0.00000000000E+00 0. -1.
         25    2    1    2    0    0 -0.22152507084E+02 -0.21288147415E+02  0.10233925163E+03  0.16450159617E+03  0.12507411374E+03 0.  0.
          5    1    3    3  502    0 -0.65249004854E+02 -0.59418391438E+01  0.17372933324E+02  0.67911923100E+02  0.41800000000E+01 0.  1.
         -5    1    3    3    0  502  0.43096497770E+02 -0.15346308272E+02  0.84966318304E+02  0.96589673070E+02  0.41800000000E+01 0.  1.
        -11    1    1    2    0    0  0.42559094826E+02  0.42056971030E+02 -0.38533175434E+02  0.71167906907E+02  0.00000000000E+00 0. -1.
         11    1    1    2    0    0 -0.20406587741E+02 -0.20768823614E+02  0.65925137545E+01  0.29853544097E+02  0.00000000000E+00 0.  1.
</event>
<event>
 7    1  0.2842702E-009  0.1031445E+03  0.7561462E-02  0.1273819E+00
          2   -1    0    0  501    0  0.00000000000E+00  0.00000000000E+00  0.23183217257E+03  0.23183217257E+03  0.00000000000E+00 0. -1.
         -2   -1    0    0    0  501 -0.00000000000E+00 -0.00000000000E+00 -0.63575959619E+02  0.63575959619E+02  0.00000000000E+00 0.  1.
         25    2    1    2    0    0 -0.32509962151E+02 -0.24456500589E+02  0.13750000995E+03  0.19029054886E+03  0.12509685124E+03 0.  0.
          5    1    3    3  502    0  0.39389251587E+02 -0.32156911361E+02  0.25826531330E+02  0.57184457761E+02  0.41800000000E+01 0. -1.
         -5    1    3    3    0  502 -0.71899213738E+02  0.77004107719E+01  0.11167347862E+03  0.13310609110E+03  0.41800000000E+01 0. -1.
        -11    1    1    2    0    0  0.48540880573E+02 -0.55101602388E+01 -0.12190565431E+02  0.50350658766E+02  0.00000000000E+00 0.  1.
         11    1    1    2    0    0 -0.16030918422E+02  0.29966660828E+02  0.42946768430E+02  0.54766924555E+02  0.00000000000E+00 0. -1.
</event>
<event>
 7    1  0.2842702E-009  0.1473381E+03  0.7561462E-02  0.1203783E+00
         -2   -1    0    0    0  501 -0.00000000000E+00  0.00000000000E+00  0.23493526476E+02  0.23493526476E+02  0.00000000000E+00 0.  1.
          2   -1    0    0  501    0  0.00000000000E+00 -0.00000000000E+00 -0.11795858419E+04  0.11795858419E+04  0.00000000000E+00 0. -1.
         25    2    1    2    0    0  0.62373217544E+02 -0.10499115565E+03 -0.53880528281E+03  0.56645565140E+03  0.12508921293E+03 0.  0.
          5    1    3    3  502    0  0.34044160204E+02 -0.12272919616E+03 -0.30978054458E+03  0.33496704111E+03  0.41800000000E+01 0. -1.
         -5    1    3    3    0  502  0.28329057341E+02  0.17738040510E+02 -0.22902473823E+03  0.23148861028E+03  0.41800000000E+01 0. -1.
        -11    1    1    2    0    0 -0.71941604293E+02  0.98590516982E+02 -0.61182936487E+03  0.62388368802E+03  0.00000000000E+00 0. -1.
         11    1    1    2    0    0  0.95683867481E+01  0.64006386697E+01 -0.54576677413E+01  0.12740028945E+02  0.00000000000E+00 0.  1.
</event>
<event>
 7    1  0.2842702E-009  0.1054062E+03  0.7561462E-02  0.1269321E+00
         -1   -1    0    0    0  501 -0.00000000000E+00  0.00000000000E+00  0.27539378492E+03  0.27539378492E+03  0.00000000000E+00 0.  1.
          1   -1    0    0  501    0  0.00000000000E+00 -0.00000000000E+00 -0.69994890691E+02  0.69994890691E+02  0.00000000000E+00 0. -1.
         25    2    1    2    0    0  0.13549869078E+02  0.59887974864E+01  0.21950889128E+03  0.25308931270E+03  0.12510228695E+03 0.  0.
          5    1    3    3  502    0 -0.19123279003E+02  0.57472195967E+02  0.77227355795E+02  0.98235889532E+02  0.41800000000E+01 0. -1.
         -5    1    3    3    0  502  0.32673148081E+02 -0.51483398480E+02  0.14228153549E+03  0.15485342316E+03  0.41800000000E+01 0. -1.
        -11    1    1    2    0    0 -0.28946802905E+02  0.34867766324E+02 -0.17332781568E+02  0.48519108027E+02  0.00000000000E+00 0.  1.
         11    1    1    2    0    0  0.15396933827E+02 -0.40856563811E+02  0.32227845092E+01  0.43780254884E+02  0.00000000000E+00 0. -1.
</event>
<event>
 7    1  0.2842702E-009  0.1404495E+03  0.7561462E-02  0.1212725E+00
         -2   -1    0    0    0  501 -0.00000000000E+00  0.00000000000E+00  0.23404156424E+02  0.23404156424E+02  0.00000000000E+00 0.  1.
          2   -1    0    0  501    0  0.00000000000E+00 -0.00000000000E+00 -0.91023488941E+03  0.91023488941E+03  0.00000000000E+00 0. -1.
         25    2    1    2    0    0 -0.90685176382E+02 -0.35565856111E+02 -0.49531083551E+03  0.52006655179E+03  0.12509061988E+03 0.  0.
          5    1    3    3  502    0 -0.62561235789E+02 -0.76471335798E+02 -0.23380935329E+03  0.25386228453E+03  0.41800000000E+01 0.  1.
         -5    1    3    3    0  502 -0.28123940593E+02  0.40905479687E+02 -0.26150148222E+03  0.26620426726E+03  0.41800000000E+01 0.  1.
        -11    1    1    2    0    0  0.18776570637E+02 -0.29663214416E+02 -0.82452258016E+02  0.89614958273E+02  0.00000000000E+00 0. -1.
         11    1    1    2    0    0  0.71908605745E+02  0.65229070526E+02 -0.30906763946E+03  0.32395753577E+03  0.00000000000E+00 0.  1.
</event>
<event>
 7    1  0.2842702E-009  0.1731027E+03  0.7561462E-02  0.1174650E+00
          2   -1    0    0  501    0  0.00000000000E+00  0.00000000000E+00  0.43506314943E+03  0.43506314943E+03  0.00000000000E+00 0. -1.
         -2   -1    0    0    0  501 -0.00000000000E+00 -0.00000000000E+00 -0.92636536350E+02  0.92636536350E+02  0.00000000000E+00 0.  1.
         25    2    1    2    0    0  0.15530485082E+03 -0.25870254373E+02  0.26025225851E+03  0.32888864949E+03  0.12509052302E+03 0.  0.
          5    1    3    3  502    0  0.52662893619E+02  0.14713464689E+02  0.19054304691E+03  0.19827756185E+03  0.41800000000E+01 0. -1.
         -5    1    3    3    0  502  0.10264195720E+03 -0.40583719062E+02  0.69709211603E+02  0.13061108764E+03  0.41800000000E+01 0. -1.
        -11    1    1    2    0    0 -0.15748995424E+02 -0.27344618638E+02  0.17123170635E+02  0.35902116900E+02  0.00000000000E+00 0. -1.
         11    1    1    2    0    0 -0.13955585540E+03  0.53214873011E+02  0.65051183932E+02  0.16290891939E+03  0.00000000000E+00 0.  1.
</event>
<event>
 7    1  0.2842702E-009  0.3100994E+03  0.7561462E-02  0.1080298E+00
          2   -1    0    0  501    0  0.00000000000E+00  0.00000000000E+00  0.53250805175E+03  0.53250805175E+03  0.00000000000E+00 0. -1.
         -2   -1    0    0    0  501 -0.00000000000E+00 -0.00000000000E+00 -0.27191107255E+03  0.27191107255E+03  0.00000000000E+00 0.  1.
         25    2    1    2    0    0 -0.24526382661E+03  0.16449404204E+03  0.35845995448E+03  0.48099284681E+03  0.12509174716E+03 0.  0.
          5    1    3    3  502    0 -0.13751220689E+03  0.14957283043E+03  0.28352567743E+03  0.34883509114E+03  0.41800000000E+01 0. -1.
         -5    1    3    3    0  502 -0.10775161972E+03  0.14921211616E+02  0.74934277052E+02  0.13215775568E+03  0.41800000000E+01 0. -1.
        -11    1    1    2    0    0  0.10856592982E+02  0.10877152600E+02 -0.27350686554E+01  0.15609569513E+02  0.00000000000E+00 0. -1.
         11    1    1    2    0    0  0.23440723363E+03 -0.17537119464E+03 -0.95127906630E+02  0.30781670798E+03  0.00000000000E+00 0.  1.
</event>
<event>
 7    1  0.2842702E-009  0.1559312E+03  0.7561462E-02  0.1193369E+00
         -1   -1    0    0    0  501 -0.00000000000E+00  0.00000000000E+00  0.26011604101E+03  0.26011604101E+03  0.00000000000E+00 0. -1.
          1   -1    0    0  501    0  0.00000000000E+00 -0.00000000000E+00 -0.13819029184E+03  0.13819029184E+03  0.00000000000E+00 0.  1.
         25    2    1    2    0    0 -0.69385237327E+02 -0.98707544161E+02  0.16578292210E+03  0.24018577142E+03  0.12509091534E+03 0.  0.
          5    1    3    3  502    0 -0.17945657550E+02 -0.10705211956E+03  0.15070933980E+03  0.18577669507E+03  0.41800000000E+01 0.  1.
         -5    1    3    3    0  502 -0.51439579777E+02  0.83445754021E+01  0.15073582303E+02  0.54409076354E+02  0.41800000000E+01 0.  1.
        -11    1    1    2    0    0 -0.18431248825E+02  0.43460154328E+02 -0.55822824514E+01  0.47535858305E+02  0.00000000000E+00 0.  1.
         11    1    1    2    0    0  0.87816486152E+02  0.55247389833E+02 -0.38274890485E+02  0.11058470312E+03  0.00000000000E+00 0. -1.
</event>
<event>
 7    1  0.3439933E-009  0.1930426E+03  0.7561462E-02  0.1155745E+00
          2   -1    0    0  501    0  0.00000000000E+00  0.00000000000E+00  0.56081094679E+03  0.56081094679E+03  0.00000000000E+00 0. -1.
         -2   -1    0    0    0  501 -0.00000000000E+00 -0.00000000000E+00 -0.72349070515E+02  0.72349070515E+02  0.00000000000E+00 0.  1.
         25    2    1    2    0    0 -0.19513609833E+02  0.16778696663E+03  0.23351199670E+03  0.31417464221E+03  0.12507839968E+03 0.  0.
          5    1    3    3  502    0 -0.48333496244E+02  0.16667951653E+03  0.16405154444E+03  0.23884842416E+03  0.41800000000E+01 0.  1.
         -5    1    3    3    0  502  0.28819886411E+02  0.11074501054E+01  0.69460452256E+02  0.75326218052E+02  0.41800000000E+01 0.  1.
        -11    1    1    2    0    0 -0.25477629214E+02 -0.89463447797E+02  0.82601611928E+02  0.12440194683E+03  0.00000000000E+00 0.  1.
         11    1    1    2    0    0  0.44991239047E+02 -0.78323518835E+02  0.17234826765E+03  0.19458342826E+03  0.00000000000E+00 0. -1.
</event>
<event>
 7    1  0.2842702E-009  0.7522747E+02  0.7561462E-02  0.1343168E+00
         -3   -1    0    0    0  501 -0.00000000000E+00  0.00000000000E+00  0.37389748340E+02  0.37389748340E+02  0.00000000000E+00 0.  1.
          3   -1    0    0  501    0  0.00000000000E+00 -0.00000000000E+00 -0.34786817189E+03  0.34786817189E+03  0.00000000000E+00 0. -1.
         25    2    1    2    0    0  0.24222574966E+02 -0.82379211886E+01 -0.13833269705E+03  0.18824700314E+03  0.12508558124E+03 0.  0.
          5    1    3    3  502    0 -0.22035741650E+02 -0.24170696051E+02 -0.13506844936E+03  0.13903508503E+03  0.41800000000E+01 0. -1.
         -5    1    3    3    0  502  0.46258316616E+02  0.15932774862E+02 -0.32642476909E+01  0.49211918109E+02  0.41800000000E+01 0. -1.
        -11    1    1    2    0    0  0.72140175107E+01  0.29536961982E+02 -0.15000408899E+03  0.15305456832E+03  0.00000000000E+00 0.  1.
         11    1    1    2    0    0 -0.31436592477E+02 -0.21299040793E+02 -0.22141637519E+02  0.43956348771E+02  0.00000000000E+00 0. -1.
</event>
<event>
 7    1  0.2842702E-009  0.1062496E+03  0.7561462E-02  0.1267677E+00
          2   -1    0    0  501    0  0.00000000000E+00  0.00000000000E+00  0.37209407785E+03  0.37209407785E+03  0.00000000000E+00 0. -1.
         -2   -1    0    0    0  501 -0.00000000000E+00 -0.00000000000E+00 -0.44475151381E+02  0.44475151381E+02  0.00000000000E+00 0.  1.
         25    2    1    2    0    0  0.58683592979E+02 -0.35588065519E+02  0.16533758953E+03  0.21839266967E+03  0.12509422514E+03 0.  0.
          5    1    3    3  502    0 -0.71486975134E+01 -0.40035866035E+02  0.14280788863E+03  0.14854474040E+03  0.41800000000E+01 0.  1.
         -5    1    3    3    0  502  0.65832290493E+02  0.44478005161E+01  0.22529700895E+02  0.69847929270E+02  0.41800000000E+01 0.  1.
        -11    1    1    2    0    0 -0.62086285975E+02 -0.72681108675E+01  0.13054778471E+03  0.14474203410E+03  0.00000000000E+00 0. -1.
         11    1    1    2    0    0  0.34026929959E+01  0.42856176387E+02  0.31733552232E+02  0.53434525462E+02  0.00000000000E+00 0.  1.
</event>
<event>
 7    1  0.2842702E-009  0.1172755E+03  0.7561462E-02  0.1247660E+00
          1   -1    0    0  501    0  0.00000000000E+00  0.00000000000E+00  0.42363830355E+02  0.42363830355E+02  0.00000000000E+00 0. -1.
         -1   -1    0    0    0  501 -0.00000000000E+00 -0.00000000000E+00 -0.45624341085E+03  0.45624341085E+03  0.00000000000E+00 0.  1.
         25    2    1    2    0    0  0.33521478381E+02  0.79745260602E+02 -0.24192999233E+03  0.28576231178E+03  0.12508789528E+03 0.  0.
          5    1    3    3  502    0  0.42376528914E+02  0.11483774743E+02 -0.11990145949E+02  0.45704302697E+02  0.41800000000E+01 0. -1.
         -5    1    3    3    0  502 -0.88550505334E+01  0.68261485859E+02 -0.22993984638E+03  0.24005800909E+03  0.41800000000E+01 0. -1.
        -11    1    1    2    0    0 -0.18106176587E+02  0.16209707961E+02 -0.59182979812E+02  0.63978225688E+02  0.00000000000E+00 0. -1.
         11    1    1    2    0    0 -0.15415301794E+02 -0.95954968563E+02 -0.11276660835E+03  0.14886670373E+03  0.00000000000E+00 0.  1.
</event>
<event>
 7    1  0.2842702E-009  0.1032975E+03  0.7561462E-02  0.1273511E+00
          1   -1    0    0  501    0  0.00000000000E+00  0.00000000000E+00  0.21063285123E+03  0.21063285123E+03  0.00000000000E+00 0. -1.
         -1   -1    0    0    0  501 -0.00000000000E+00 -0.00000000000E+00 -0.63549111069E+02  0.63549111069E+02  0.00000000000E+00 0.  1.
         25    2    1    2    0    0  0.21864211518E+02 -0.28437709914E+02  0.60193165861E+02  0.14337741623E+03  0.12508844542E+03 0.  0.
          5    1    3    3  502    0  0.24936093754E+02 -0.67525180473E+02  0.82530923799E+00  0.72108337278E+02  0.41800000000E+01 0. -1.
         -5    1    3    3    0  502 -0.30718822360E+01  0.39087470559E+02  0.59367856623E+02  0.71269078955E+02  0.41800000000E+01 0. -1.
        -11    1    1    2    0    0  0.21549806620E+02  0.43958176154E+02  0.59971418268E+02  0.77416318856E+02  0.00000000000E+00 0.  1.
         11    1    1    2    0    0 -0.43414018138E+02 -0.15520466240E+02  0.26919156034E+02  0.53388227211E+02  0.00000000000E+00 0. -1.
</event>
<event>
 7    1  0.2842702E-009  0.5963702E+02  0.7561462E-02  0.1399361E+00
          1   -1    0    0  501    0  0.00000000000E+00  0.00000000000E+00  0.89510459244E+02  0.89510459244E+02  0.00000000000E+00 0. -1.
         -1   -1    0    0    0  501 -0.00000000000E+00 -0.00000000000E+00 -0.16496618635E+03  0.16496618635E+03  0.00000000000E+00 0.  1.
         25    2    1    2    0    0 -0.43295602353E+01 -0.13696743544E+01 -0.10050779007E+03  0.16053032080E+03  0.12509015521E+03 0.  0.
          5    1    3    3  502    0 -0.11963940899E+02 -0.11523034469E+02 -0.12843187278E+03  0.12956903392E+03  0.41800000000E+01 0.  1.
         -5    1    3    3    0  502  0.76343806638E+01  0.10153360114E+02  0.27924082712E+02  0.30961286876E+02  0.41800000000E+01 0.  1.
        -11    1    1    2    0    0  0.44501843799E+02  0.14015020504E+02  0.22379002767E+02  0.51746059426E+02  0.00000000000E+00 0. -1.
         11    1    1    2    0    0 -0.40172283564E+02 -0.12645346150E+02  0.26730602019E+01  0.42200265365E+02  0.00000000000E+00 0.  1.
</event>
<event>
 7    1  0.2842702E-009  0.1604161E+03  0.7561462E-02  0.1188228E+00
          2   -1    0    0  501    0  0.00000000000E+00  0.00000000000E+00  0.23800415327E+03  0.23800415327E+03  0.00000000000E+00 0. -1.
         -2   -1    0    0    0  501 -0.00000000000E+00 -0.00000000000E+00 -0.14403046607E+03  0.14403046607E+03  0.00000000000E+00 0.  1.
         25    2    1    2    0    0  0.32347637008E+02 -0.14576760570E+03  0.20077808581E+02  0.19581901297E+03  0.12508957971E+03 0.  0.
          5    1    3    3  502    0  0.65313273731E+01 -0.13879041980E+03 -0.26914820915E+02  0.14158855480E+03  0.41800000000E+01 0.  1.
         -5    1    3    3    0  502  0.25816309635E+02 -0.69771858961E+01  0.46992629496E+02  0.54230458168E+02  0.41800000000E+01 0.  1.
        -11    1    1    2    0    0 -0.41640705422E+02  0.10523866361E+03  0.15067768779E+02  0.11417601466E+03  0.00000000000E+00 0.  1.
         11    1    1    2    0    0  0.92930684143E+01  0.40528942084E+02  0.58828109834E+02  0.72039591710E+02  0.00000000000E+00 0. -1.
</event>
<event>
 7    1  0.2842702E-009  0.1291789E+03  0.7561462E-02  0.1228679E+00
          2   -1    0    0  501    0  0.00000000000E+00  0.00000000000E+00  0.10180962382E+04  0.10180962382E+04  0.00000000000E+00 0. -1.
         -2   -1    0    0    0  501 -0.00000000000E+00 -0.00000000000E+00 -0.17607758407E+02  0.17607758407E+02  0.00000000000E+00 0.  1.
         25    2    1    2    0    0  0.71251013424E+02 -0.22172872438E+02  0.66005273590E+03  0.67593282805E+03  0.12508889108E+03 0.  0.
          5    1    3    3  502    0 -0.31927406396E+02 -0.27354334787E+02  0.18750555261E+03  0.19220672093E+03  0.41800000000E+01 0. -1.
         -5    1    3    3    0  502  0.10317841982E+03  0.51814623489E+01  0.47254718329E+03  0.48372610712E+03  0.41800000000E+01 0. -1.
        -11    1    1    2    0    0  0.19078764494E+02  0.10082964229E+02  0.35852783923E+02  0.41845997865E+02  0.00000000000E+00 0.  1.
         11    1    1    2    0    0 -0.90329777918E+02  0.12089908209E+02  0.30458295993E+03  0.31792517066E+03  0.00000000000E+00 0. -1.
</event>
<event>
 7    1  0.2842702E-009  0.1156552E+03  0.7561462E-02  0.1250442E+00
         -2   -1    0    0    0  501 -0.00000000000E+00  0.00000000000E+00  0.48420654932E+02  0.48420654932E+02  0.00000000000E+00 0. -1.
          2   -1    0    0  501    0  0.00000000000E+00 -0.00000000000E+00 -0.49331507254E+03  0.49331507254E+03  0.00000000000E+00 0.  1.
         25    2    1    2    0    0 -0.73580835231E+02 -0.64038736228E+01 -0.94811071533E+02  0.17346711653E+03  0.12508617958E+03 0.  0.
          5    1    3    3  502    0 -0.14945192708E+02  0.54232910270E+02 -0.17741862738E+02  0.59133860307E+02  0.41800000000E+01 0.  1.
         -5    1    3    3    0  502 -0.58635642523E+02 -0.60636783893E+02 -0.77069208795E+02  0.11433325623E+03  0.41800000000E+01 0.  1.
        -11    1    1    2    0    0  0.44145615009E+02 -0.22191130678E+02 -0.29745880319E+03  0.30153444447E+03  0.00000000000E+00 0.  1.
         11    1    1    2    0    0  0.29435220222E+02  0.28595004301E+02 -0.52624542877E+02  0.66734166463E+02  0.00000000000E+00 0. -1.
</event>
<event>
 7    1  0.2842702E-009  0.1570547E+03  0.7561462E-02  0.1192063E+00
          2   -1    0    0  501    0  0.00000000000E+00  0.00000000000E+00  0.15529894379E+03  0.15529894379E+03  0.00000000000E+00 0.  1.
         -2   -1    0    0    0  501 -0.00000000000E+00 -0.00000000000E+00 -0.19921705192E+03  0.19921705192E+03  0.00000000000E+00 0. -1.
         25    2    1    2    0    0 -0.13691115389E+03 -0.78263100070E+01 -0.64979204677E+02  0.19665915105E+03  0.12508640798E+03 0.  0.
          5    1    3    3  502    0 -0.13207210723E+03  0.16044586818E+02 -0.66085598357E+01  0.13327271191E+03  0.41800000000E+01 0. -1.
         -5    1    3    3    0  502 -0.48390466594E+01 -0.23870896825E+02 -0.58370644841E+02  0.63386439141E+02  0.41800000000E+01 0. -1.
        -11    1    1    2    0    0  0.13255466841E+03  0.28143323473E+02  0.20651576229E+02  0.13707397409E+03  0.00000000000E+00 0.  1.
         11    1    1    2    0    0  0.43564854849E+01 -0.20317013466E+02  0.40952031548E+00  0.20782870563E+02  0.00000000000E+00 0. -1.
</event>
<event>
 7    1  0.2842702E-009  0.1499113E+03  0.7561462E-02  0.1200582E+00
          2   -1    0    0  501    0  0.00000000000E+00  0.00000000000E+00  0.21711825272E+03  0.21711825272E+03  0.00000000000E+00 0. -1.
         -2   -1    0    0    0  501 -0.00000000000E+00 -0.00000000000E+00 -0.16055392868E+03  0.16055392868E+03  0.00000000000E+00 0.  1.
         25    2    1    2    0    0  0.74082086597E+02 -0.11595845804E+03 -0.34921655631E+02  0.18921249956E+03  0.12508928176E+03 0.  0.
          5    1    3    3  502    0  0.78345598408E+02 -0.52875046928E+02  0.29248946150E+02  0.99029170593E+02  0.41800000000E+01 0. -1.
         -5    1    3    3    0  502 -0.42635118108E+01 -0.63083411108E+02 -0.64170601781E+02  0.90183328964E+02  0.41800000000E+01 0. -1.
        -11    1    1    2    0    0 -0.37563090033E+02  0.28758356960E+02  0.80383977477E+02  0.93271714163E+02  0.00000000000E+00 0. -1.
         11    1    1    2    0    0 -0.36518996564E+02  0.87200101076E+02  0.11102002195E+02  0.95187967677E+02  0.00000000000E+00 0.  1.
</event>
<event>
 7    1  0.2842702E-009  0.2568285E+03  0.7561462E-02  0.1109064E+00
          2   -1    0    0  501    0  0.00000000000E+00  0.00000000000E+00  0.23145926317E+04  0.23145926317E+04  0.00000000000E+00 0. -1.
         -2   -1    0    0    0  501 -0.00000000000E+00 -0.00000000000E+00 -0.32022345642E+02  0.32022345642E+02  0.00000000000E+00 0.  1.
         25    2    1    2    0    0 -0.18686411189E+03  0.14518123963E+03  0.15091090821E+04  0.15326634862E+04  0.12510536281E+03 0.  0.
          5    1    3    3  502    0 -0.51555175981E+02  0.11853180005E+03  0.68983504470E+03  0.70185296544E+03  0.41800000000E+01 0. -1.
         -5    1    3    3    0  502 -0.13530893591E+03  0.26649439586E+02  0.81927403738E+03  0.83081052081E+03  0.41800000000E+01 0. -1.
        -11    1    1    2    0    0  0.14190055571E+03 -0.68737337811E+02  0.39654024756E+03  0.42673733989E+03  0.00000000000E+00 0.  1.
         11    1    1    2    0    0  0.44963556179E+02 -0.76443901823E+02  0.37692095645E+03  0.38721415124E+03  0.00000000000E+00 0. -1.
</event>
<event>
 7    1  0.2842702E-009  0.1386605E+03  0.7561462E-02  0.1215143E+00
         -2   -1    0    0    0  501 -0.00000000000E+00  0.00000000000E+00  0.27303405174E+02  0.27303405174E+02  0.00000000000E+00 0.  1.
          2   -1    0    0  501    0  0.00000000000E+00 -0.00000000000E+00 -0.86554607081E+03  0.86554607081E+03  0.00000000000E+00 0. -1.
         25    2    1    2    0    0 -0.46137432170E+02  0.75221239367E+02 -0.26770300460E+03  0.30838107129E+03  0.12508832463E+03 0.  0.
          5    1    3    3  502    0 -0.19006577706E+01 -0.33361124909E+02 -0.40473482238E+02  0.52651232841E+02  0.41800000000E+01 0.  1.
         -5    1    3    3    0  502 -0.44236774399E+02  0.10858236428E+03 -0.22722952237E+03  0.25572983845E+03  0.41800000000E+01 0.  1.
        -11    1    1    2    0    0  0.69737577382E+02 -0.75422114842E+02 -0.44194342474E+03  0.45372438305E+03  0.00000000000E+00 0.  1.
         11    1    1    2    0    0 -0.23600145212E+02  0.20087547463E+00 -0.12859623629E+03  0.13074402163E+03  0.00000000000E+00 0. -1.
</event>
<event>
 7    1  0.2842702E-009  0.1162113E+03  0.7561462E-02  0.1249481E+00
         -1   -1    0    0    0  501 -0.00000000000E+00  0.00000000000E+00  0.54746295000E+02  0.54746295000E+02  0.00000000000E+00 0.  1.
          1   -1    0    0  501    0  0.00000000000E+00 -0.00000000000E+00 -0.28367241668E+03  0.28367241668E+03  0.00000000000E+00 0. -1.
         25    2    1    2    0    0 -0.71977061660E+01  0.46765460220E+02 -0.17463021770E+03  0.21995679404E+03  0.12508582280E+03 0.  0.
          5    1    3    3  502    0 -0.77786611939E+01  0.89784990135E+02 -0.12472499991E+03  0.15393391448E+03  0.41800000000E+01 0. -1.
         -5    1    3    3    0  502  0.58095502792E+00 -0.43019529914E+02 -0.49905217788E+02  0.66022879559E+02  0.41800000000E+01 0. -1.
        -11    1    1    2    0    0 -0.35559394620E+02  0.72334797864E-01 -0.39868727321E+02  0.53422759160E+02  0.00000000000E+00 0. -1.
         11    1    1    2    0    0  0.42757100786E+02 -0.46837795018E+02 -0.14427176659E+02  0.65039158482E+02  0.00000000000E+00 0.  1.
</event>
<event>
 7    1  0.2842702E-009  0.1102972E+03  0.7561462E-02  0.1260021E+00
          2   -1    0    0  501    0  0.00000000000E+00  0.00000000000E+00  0.64479600491E+03  0.64479600491E+03  0.00000000000E+00 0. -1.
         -2   -1    0    0    0  501 -0.00000000000E+00 -0.00000000000E+00 -0.19802260188E+02  0.19802260188E+02  0.00000000000E+00 0.  1.
         25    2    1    2    0    0 -0.30977872753E+02  0.18588814707E+02  0.35550896670E+03  0.37860144463E+03  0.12508899167E+03 0.  0.
          5    1    3    3  502    0 -0.74476759336E+02 -0.58908737051E+01  0.15773415380E+03  0.17458243253E+03  0.41800000000E+01 0.  1.
         -5    1    3    3    0  502  0.43498886583E+02  0.24479688412E+02  0.19777481290E+03  0.20401901210E+03  0.41800000000E+01 0.  1.
        -11    1    1    2    0    0  0.53812034942E+02 -0.37863311728E+02  0.19102920922E+03  0.20204337221E+03  0.00000000000E+00 0. -1.
         11    1    1    2    0    0 -0.22834162189E+02  0.19274497021E+02  0.78455568802E+02  0.83953448257E+02  0.00000000000E+00 0.  1.
</event>
<event>
 7    1  0.2842702E-009  0.9620821E+02  0.7561462E-02  0.1288478E+00
          2   -1    0    0  501    0  0.00000000000E+00  0.00000000000E+00  0.60432888803E+03  0.60432888803E+03  0.00000000000E+00 0. -1.
         -2   -1    0    0    0  501 -0.00000000000E+00 -0.00000000000E+00 -0.38581156363E+02  0.38581156363E+02  0.00000000000E+00 0.  1.
         25    2    1    2    0    0 -0.87278433271E+01  0.56644829963E+02  0.49414836097E+03  0.51294728647E+03  0.12508998374E+03 0.  0.
          5    1    3    3  502    0  0.46084645390E+02  0.32525214749E+02  0.10564382412E+03  0.11983227491E+03  0.41800000000E+01 0.  1.
         -5    1    3    3    0  502 -0.54812488717E+02  0.24119615214E+02  0.38850453685E+03  0.39311501155E+03  0.41800000000E+01 0.  1.
        -11    1    1    2    0    0 -0.19426563685E+02 -0.11367646947E+02  0.73240028279E+02  0.76620601120E+02  0.00000000000E+00 0. -1.
         11    1    1    2    0    0  0.28154407012E+02 -0.45277183016E+02 -0.16406575778E+01  0.53342156812E+02  0.00000000000E+00 0.  1.
</event>
<event>
 7    1  0.2842702E-009  0.1215428E+03  0.7561462E-02  0.1240573E+00
          3   -1    0    0  501    0  0.00000000000E+00  0.00000000000E+00  0.63893509522E+02  0.63893509522E+02  0.00000000000E+00 0. -1.
         -3   -1    0    0    0  501 -0.00000000000E+00 -0.00000000000E+00 -0.27408063947E+03  0.27408063947E+03  0.00000000000E+00 0.  1.
         25    2    1    2    0    0 -0.18815299275E+02  0.69492941032E+02 -0.14482324092E+03  0.20445998043E+03  0.12508728210E+03 0.  0.
          5    1    3    3  502    0 -0.62907496828E+02  0.32683370929E+02 -0.12461268725E+03  0.14342715962E+03  0.41800000000E+01 0. -1.
         -5    1    3    3    0  502  0.44092197553E+02  0.36809570103E+02 -0.20210553678E+02  0.61032820812E+02  0.41800000000E+01 0. -1.
        -11    1    1    2    0    0 -0.24577429987E+02 -0.66603003031E+02 -0.28487817112E+02  0.76495527983E+02  0.00000000000E+00 0. -1.
         11    1    1    2    0    0  0.43392729262E+02 -0.28899380013E+01 -0.36876071915E+02  0.57018640586E+02  0.00000000000E+00 0.  1.
</event>
<event>
 6    1  0.2842702E-009  0.2967543E+03  0.7561462E-02  0.1086874E+00
         -1   -1    0    0    0  501 -0.00000000000E+00  0.00000000000E+00  0.28905082446E+03  0.28905082446E+03  0.00000000000E+00 0.  1.
          1   -1    0    0  501    0  0.00000000000E+00 -0.00000000000E+00 -0.34223826098E+03  0.34223826098E+03  0.00000000000E+00 0. -1.
          5    1    1    2  502    0  0.49945922133E+02 -0.35191636809E+00 -0.59795847333E+02  0.78023936975E+02  0.41800000000E+01 0. -1.
         -5    1    1    2    0  502  0.23894201761E+03 -0.54023998220E+02  0.10062166295E+02  0.24521541500E+03  0.41800000000E+01 0. -1.
        -11    1    1    2    0    0 -0.24237931362E+03  0.64426393555E+02 -0.31580251206E+02  0.25277619374E+03  0.00000000000E+00 0. -1.
         11    1    1    2    0    0 -0.46508626125E+02 -0.10050478967E+02  0.28126495722E+02  0.55273539720E+02  0.00000000000E+00 0.  1.
</event>
<event>
 7    1  0.2842702E-009  0.1329615E+03  0.7561462E-02  0.1223126E+00
          1   -1    0    0  501    0  0.00000000000E+00  0.00000000000E+00  0.21192868511E+03  0.21192868511E+03  0.00000000000E+00 0. -1.
         -1   -1    0    0    0  501 -0.00000000000E+00 -0.00000000000E+00 -0.12615934978E+03  0.12615934978E+03  0.00000000000E+00 0.  1.
         25    2    1    2    0    0  0.11179268103E+03 -0.23346067690E+02  0.43274322404E+01  0.16943327393E+03  0.12508503203E+03 0.  0.
          5    1    3    3  502    0  0.12917768146E+03 -0.10534062303E+02  0.32505678171E+02  0.13368594305E+03  0.41800000000E+01 0. -1.
         -5    1    3    3    0  502 -0.17385000426E+02 -0.12812005387E+02 -0.28178245931E+02  0.35747330888E+02  0.41800000000E+01 0. -1.
        -11    1    1    2    0    0 -0.49117868945E+02  0.85789927537E+01  0.90797765365E+02  0.10358763614E+03  0.00000000000E+00 0. -1.
         11    1    1    2    0    0 -0.62674812085E+02  0.14767074936E+02 -0.93558622817E+01  0.65067124810E+02  0.00000000000E+00 0.  1.
</event>
<event>
 7    1  0.2842702E-009  0.7209167E+02  0.7561462E-02  0.1353121E+00
         -1   -1    0    0    0  501 -0.00000000000E+00  0.00000000000E+00  0.49459224110E+02  0.49459224110E+02  0.00000000000E+00 0.  1.
          1   -1    0    0  501    0  0.00000000000E+00 -0.00000000000E+00 -0.24738085260E+03  0.24738085260E+03  0.00000000000E+00 0. -1.
         25    2    1    2    0    0  0.17111301299E+02  0.12398456486E+02 -0.12855331229E+03  0.18060865589E+03  0.12508802550E+03 0.  0.
          5    1    3    3  502    0 -0.92931555516E+01 -0.28119949555E+02  0.11758047208E+02  0.32137491769E+02  0.41800000000E+01 0. -1.
         -5    1    3    3    0  502  0.26404456851E+02  0.40518406040E+02 -0.14031135950E+03  0.14847116412E+03  0.41800000000E+01 0. -1.
        -11    1    1    2    0    0 -0.40822410786E+02 -0.85849231180E+01 -0.79801745356E+02  0.90047147036E+02  0.00000000000E+00 0. -1.
         11    1    1    2    0    0  0.23711109487E+02 -0.38135333675E+01  0.10433429158E+02  0.26184273788E+02  0.00000000000E+00 0.  1.
</event>
<event>
 7    1  0.2842702E-009  0.8856169E+02  0.7561462E-02  0.1306373E+00
          1   -1    0    0  501    0  0.00000000000E+00  0.00000000000E+00  0.63786873676E+02  0.63786873676E+02  0.00000000000E+00 0. -1.
         -1   -1    0    0    0  501 -0.00000000000E+00 -0.00000000000E+00 -0.22450480617E+03  0.22450480617E+03  0.00000000000E+00 0.  1.
         25    2    1    2    0    0  0.40273065612E+02 -0.19976497825E+02 -0.11648460014E+03  0.17673914088E+03  0.12508829510E+03 0.  0.
          5    1    3    3  502    0 -0.18517573371E+02  0.81792455187E+01  0.17885337196E+02  0.27334195935E+02  0.41800000000E+01 0.  1.
         -5    1    3    3    0  502  0.58790638983E+02 -0.28155743344E+02 -0.13436993734E+03  0.14940494495E+03  0.41800000000E+01 0.  1.
        -11    1    1    2    0    0 -0.34397619747E+02 -0.27038974441E+02 -0.46844823334E+02  0.64099452854E+02  0.00000000000E+00 0.  1.
         11    1    1    2    0    0 -0.58754458656E+01  0.47015472266E+02  0.26114909759E+01  0.47453086113E+02  0.00000000000E+00 0. -1.
</event>
<event>
 7    1  0.2842702E-009  0.1196987E+03  0.7561462E-02  0.1243595E+00
          1   -1    0    0  501    0  0.00000000000E+00  0.00000000000E+00  0.44536248887E+03  0.44536248887E+03  0.00000000000E+00 0. -1.
         -1   -1    0    0    0  501 -0.00000000000E+00 -0.00000000000E+00 -0.51484229839E+02  0.51484229839E+02  0.00000000000E+00 0.  1.
         25    2    1    2    0    0  0.26710143339E+02 -0.90988293245E+02  0.13682768190E+03  0.20823636866E+03  0.12509304311E+03 0.  0.
          5    1    3    3  502    0 -0.23017424969E+02 -0.73148802169E+02  0.13487188075E+03  0.15520452870E+03  0.41800000000E+01 0.  1.
         -5    1    3    3    0  502  0.49727568309E+02 -0.17839491076E+02  0.19558011497E+01  0.53031839963E+02  0.41800000000E+01 0.  1.
        -11    1    1    2    0    0 -0.16297147949E+02  0.96468975035E+02  0.25883535295E+03  0.27670851109E+03  0.00000000000E+00 0. -1.
         11    1    1    2    0    0 -0.10412995390E+02 -0.54806817900E+01 -0.17847758152E+01  0.11901838959E+02  0.00000000000E+00 0.  1.
</event>
<event>
 7    1  0.2842702E-009  0.1263720E+03  0.7561462E-02  0.1232941E+00
          1   -1    0    0  501    0  0.00000000000E+00  0.00000000000E+00  0.15968135179E+03  0.15968135179E+03  0.00000000000E+00 0. -1.
         -1   -1    0    0    0  501 -0.00000000000E+00 -0.00000000000E+00 -0.17545649548E+03  0.17545649548E+03  0.00000000000E+00 0.  1.
         25    2    1    2    0    0  0.24769914152E+02 -0.12005680045E+03 -0.30613025576E+02  0.17779616851E+03  0.12508851355E+03 0.  0.
          5    1    3    3  502    0  0.80988115553E+01 -0.11791271526E+02  0.43161379718E+02  0.45661821382E+02  0.41800000000E+01 0.  1.
         -5    1    3    3    0  502  0.16671102596E+02 -0.10826552892E+03 -0.73774405294E+02  0.13213434713E+03  0.41800000000E+01 0.  1.
        -11    1    1    2    0    0 -0.34052892661E+02  0.10632191977E+03 -0.24811733277E+02  0.11436595748E+03  0.00000000000E+00 0.  1.
         11    1    1    2    0    0  0.92829785090E+01  0.13734880683E+02  0.39649615162E+02  0.42975721283E+02  0.00000000000E+00 0. -1.
</event>
<event>
 7    1  0.4149595E-009  0.9836884E+02  0.7561462E-02  0.1283764E+00
          2   -1    0    0  501    0  0.00000000000E+00  0.00000000000E+00  0.39495200294E+03  0.39495200294E+03  0.00000000000E+00 0. -1.
         -2   -1    0    0    0  501 -0.00000000000E+00 -0.00000000000E+00 -0.36769680192E+02  0.36769680192E+02  0.00000000000E+00 0.  1.
         25    2    1    2    0    0  0.30698323241E+02  0.30665840446E+02  0.14911999697E+03  0.19941773252E+03  0.12509147744E+03 0.  0.
          5    1    3    3  502    0  0.31370609264E+02 -0.45480643206E+02  0.73213007826E+02  0.91816234659E+02  0.41800000000E+01 0.  1.
         -5    1    3    3    0  502 -0.67228602377E+00  0.76146483651E+02  0.75906989142E+02  0.10760149786E+03  0.41800000000E+01 0.  1.
        -11    1    1    2    0    0  0.13195059423E+02 -0.99664579522E+01 -0.11372306439E+01  0.16575076797E+02  0.00000000000E+00 0.  1.
         11    1    1    2    0    0 -0.43893382663E+02 -0.20699382494E+02  0.21019955643E+03  0.21572887382E+03  0.00000000000E+00 0. -1.
</event>
<event>
 7    1  0.2842702E-009  0.1377954E+03  0.7561462E-02  0.1216327E+00
          3   -1    0    0  501    0  0.00000000000E+00  0.00000000000E+00  0.11115770470E+03  0.11115770470E+03  0.00000000000E+00 0.  1.
         -3   -1    0    0    0  501 -0.00000000000E+00 -0.00000000000E+00 -0.23911809267E+03  0.23911809267E+03  0.00000000000E+00 0. -1.
         25    2    1    2    0    0  0.80233774745E+01 -0.91773905812E+02  0.17879181509E+02  0.15637798645E+03  0.12509030794E+03 0.  0.
          5    1    3    3  502    0  0.56753392795E+02 -0.72079035665E+01  0.11313202370E+02  0.58466763340E+02  0.41800000000E+01 0. -1.
         -5    1    3    3    0  502 -0.48730015321E+02 -0.84566002246E+02  0.65659791383E+01  0.97911223111E+02  0.41800000000E+01 0. -1.
        -11    1    1    2    0    0  0.33388426744E+02  0.58734592726E+02 -0.48811525175E+02  0.83349291617E+02  0.00000000000E+00 0.  1.
         11    1    1    2    0    0 -0.41411804219E+02  0.33039313087E+02 -0.97028044302E+02  0.11054851930E+03  0.00000000000E+00 0. -1.
</event>
<event>
 7    1  0.2842702E-009  0.1501518E+03  0.7561462E-02  0.1200287E+00
          2   -1    0    0  501    0  0.00000000000E+00  0.00000000000E+00  0.13723376566E+03  0.13723376566E+03  0.00000000000E+00 0. -1.
         -2   -1    0    0    0  501 -0.00000000000E+00 -0.00000000000E+00 -0.20343349612E+03  0.20343349612E+03  0.00000000000E+00 0.  1.
         25    2    1    2    0    0  0.10155368200E+03 -0.37476861515E+02 -0.10344299198E+03  0.19510200034E+03  0.12508665985E+03 0.  0.
          5    1    3    3  502    0  0.99406588341E+02  0.22552656318E+02 -0.46093870918E+02  0.11194824451E+03  0.41800000000E+01 0. -1.
         -5    1    3    3    0  502  0.21470936582E+01 -0.60029517834E+02 -0.57349121065E+02  0.83153755835E+02  0.41800000000E+01 0. -1.
        -11    1    1    2    0    0 -0.61221604084E+02 -0.22983561830E+02  0.31710684291E+02  0.72676656633E+02  0.00000000000E+00 0. -1.
         11    1    1    2    0    0 -0.40332077914E+02  0.60460423345E+02  0.55325772283E+01  0.72888604807E+02  0.00000000000E+00 0.  1.
</event>
<event>
 7    1  0.2842702E-009  0.1075060E+03  0.7561462E-02  0.1265259E+00
         -1   -1    0    0    0  501 -0.00000000000E+00  0.00000000000E+00  0.42680543608E+02  0.42680543608E+02  0.00000000000E+00 0.  1.
          1   -1    0    0  501    0  0.00000000000E+00 -0.00000000000E+00 -0.31227768299E+03  0.31227768299E+03  0.00000000000E+00 0. -1.
         25    2    1    2    0    0  0.45254400380E+02 -0.33529066636E+01 -0.15593356009E+03  0.20499338433E+03  0.12509120562E+03 0.  0.
          5    1    3    3  502    0  0.50210313123E+02 -0.50690950358E+02 -0.45653940238E+02  0.84808034120E+02  0.41800000000E+01 0.  1.
         -5    1    3    3    0  502 -0.49559127426E+01  0.47338043695E+02 -0.11027961985E+03  0.12018535021E+03  0.41800000000E+01 0.  1.
        -11    1    1    2    0    0 -0.66554403265E+02 -0.14327476029E+02 -0.93764234456E+02  0.11587276137E+03  0.00000000000E+00 0. -1.
         11    1    1    2    0    0  0.21300002885E+02  0.17680382692E+02 -0.19899344843E+02  0.34092080902E+02  0.00000000000E+00 0.  1.
</event>
<event>
 7    1  0.2842702E-009  0.8173841E+02  0.7561462E-02  0.1324189E+00
         -3   -1    0    0    0  501 -0.00000000000E+00  0.00000000000E+00  0.65746964423E+03  0.65746964423E+03  0.00000000000E+00 0.  1.
          3   -1    0    0  501    0  0.00000000000E+00 -0.00000000000E+00 -0.25324414785E+02  0.25324414785E+02  0.00000000000E+00 0. -1.
         25    2    1    2    0    0  0.29151628574E+02  0.57093113604E+02  0.23110259183E+03  0.27049023828E+03  0.12508844864E+03 0.  0.
          5    1    3    3  502    0 -0.46738045762E+00  0.28217860735E+02  0.22691805997E+03  0.22870449153E+03  0.41800000000E+01 0.  1.
         -5    1    3    3    0  502  0.29619009032E+02  0.28875252869E+02  0.41845318668E+01  0.41785746747E+02  0.41800000000E+01 0.  1.
        -11    1    1    2    0    0 -0.26865400655E+02  0.81608202704E+01  0.16611991550E+03  0.16847603707E+03  0.00000000000E+00 0.  1.
         11    1    1    2    0    0 -0.22862279195E+01 -0.65253933874E+02  0.23492272211E+03  0.24382778367E+03  0.00000000000E+00 0. -1.
</event>
<event>
 7    1  0.2842702E-009  0.1441177E+03  0.7561462E-02  0.1207893E+00
         -2   -1    0    0    0  501 -0.00000000000E+00  0.00000000000E+00  0.22130433394E+03  0.22130433394E+03  0.00000000000E+00 0.  1.
          2   -1    0    0  501    0  0.00000000000E+00 -0.00000000000E+00 -0.20829739111E+03  0.20829739111E+03  0.00000000000E+00 0. -1.
         25    2    1    2    0    0  0.10462291118E+03 -0.36577918586E+02 -0.14093077305E+03  0.21861570441E+03  0.12508975077E+03 0.  0.
          5    1    3    3  502    0  0.12721498565E+03 -0.46034479656E+02 -0.13849319149E+03  0.19365087756E+03  0.41800000000E+01 0.  1.
         -5    1    3    3    0  502 -0.22592074461E+02  0.94565610699E+01 -0.24375815580E+01  0.24964826849E+02  0.41800000000E+01 0.  1.
        -11    1    1    2    0    0 -0.80276218522E+02 -0.43733045559E+01  0.45108580862E+02  0.92185579785E+02  0.00000000000E+00 0. -1.
         11    1    1    2    0    0 -0.24346692662E+02  0.40951223142E+02  0.10882913501E+03  0.11880044086E+03  0.00000000000E+00 0.  1.
</event>
<event>
 7    1  0.2842702E-009  0.9819420E+02  0.7561462E-02  0.1284140E+00
          4   -1    0    0  501    0  0.00000000000E+00  0.00000000000E+00  0.88718435866E+02  0.88718435866E+02  0.00000000000E+00 0. -1.
         -4   -1    0    0    0  501 -0.00000000000E+00 -0.00000000000E+00 -0.17192585622E+03  0.17192585622E+03  0.00000000000E+00 0.  1.
         25    2    1    2    0    0 -0.33687514019E+02  0.42917822564E+02 -0.68044060636E+02  0.15249470529E+03  0.12509137804E+03 0.  0.
          5    1    3    3  502    0  0.35348595831E+01  0.80735934773E+02 -0.54525663801E+02  0.97577183854E+02  0.41800000000E+01 0.  1.
         -5    1    3    3    0  502 -0.37222373602E+02 -0.37818112209E+02 -0.13518396835E+02  0.54917521435E+02  0.41800000000E+01 0.  1.
        -11    1    1    2    0    0  0.33089799643E+02 -0.18688215326E+02 -0.51785668377E+02  0.64233477890E+02  0.00000000000E+00 0.  1.
         11    1    1    2    0    0  0.59771437588E+00 -0.24229607238E+02  0.36622308663E+02  0.43916108903E+02  0.00000000000E+00 0. -1.
</event>
<event>
 7    1  0.2842702E-009  0.1275411E+03  0.7561462E-02  0.1231151E+00
         -3   -1    0    0    0  501 -0.00000000000E+00  0.00000000000E+00  0.48888582108E+02  0.48888582108E+02  0.00000000000E+00 0.  1.
          3   -1    0    0  501    0  0.00000000000E+00 -0.00000000000E+00 -0.45247390910E+03  0.45247390910E+03  0.00000000000E+00 0. -1.
         25    2    1    2    0    0  0.90155861502E+02  0.43344608867E+02 -0.22170825066E+03  0.27351266175E+03  0.12509113975E+03 0.  0.
          5    1    3    3  502    0  0.16941979698E+02  0.41559594460E+02 -0.57543214475E+01  0.45440237489E+02  0.41800000000E+01 0. -1.
         -5    1    3    3    0  502  0.73213881804E+02  0.17850144074E+01 -0.21595392921E+03  0.22807242426E+03  0.41800000000E+01 0. -1.
        -11    1    1    2    0    0 -0.40220094023E+02 -0.69487360357E+02 -0.96310552563E+02  0.12538688826E+03  0.00000000000E+00 0.  1.
         11    1    1    2    0    0 -0.49935767478E+02  0.26142751490E+02 -0.85566523764E+02  0.10246294119E+03  0.00000000000E+00 0. -1.
</event>
<event>
 7    1  0.2842702E-009  0.7959098E+02  0.7561462E-02  0.1330216E+00
         -1   -1    0    0    0  501 -0.00000000000E+00  0.00000000000E+00  0.33348935428E+02  0.33348935428E+02  0.00000000000E+00 0.  1.
          1   -1    0    0  501    0  0.00000000000E+00 -0.00000000000E+00 -0.76010610866E+03  0.76010610866E+03  0.00000000000E+00 0. -1.
         25    2    1    2    0    0 -0.36901614371E+02 -0.43156003871E+02 -0.64179170900E+03  0.65632973425E+03  0.12509177631E+03 0.  0.
          5    1    3    3  502    0 -0.85100776677E+01 -0.53904325060E+02 -0.60897542319E+03  0.61142999283E+03  0.41800000000E+01 0. -1.
         -5    1    3    3    0  502 -0.28391536704E+02  0.10748321189E+02 -0.32816285805E+02  0.44899741412E+02  0.41800000000E+01 0. -1.
        -11    1    1    2    0    0  0.31950304347E+02  0.16366076501E+01 -0.89519552599E+02  0.95064455660E+02  0.00000000000E+00 0. -1.
         11    1    1    2    0    0  0.49513100245E+01  0.41519396220E+02  0.45540883691E+01  0.42060854180E+02  0.00000000000E+00 0.  1.
</event>
<event>
 6    1  0.2842702E-009  0.1157112E+03  0.7561462E-02  0.1250345E+00
         -2   -1    0    0    0  501 -0.00000000000E+00  0.00000000000E+00  0.12026029312E+03  0.12026029312E+03  0.00000000000E+00 0.  1.
          2   -1    0    0  501    0  0.00000000000E+00 -0.00000000000E+00 -0.17008237070E+03  0.17008237070E+03  0.00000000000E+00 0. -1.
          5    1    1    2  502    0 -0.10885275441E+02  0.76757381517E+02 -0.71641585615E+02  0.10564172484E+03  0.41800000000E+01 0. -1.
         -5    1    1    2    0  502  0.53308216927E+02 -0.27564982620E+02 -0.22588202429E+02  0.64259579424E+02  0.41800000000E+01 0. -1.
        -11    1    1    2    0    0 -0.12761622515E+01 -0.52343004077E+02  0.56900567629E+02  0.77324596749E+02  0.00000000000E+00 0.  1.
         11    1    1    2    0    0 -0.41146779234E+02  0.31506051804E+01 -0.12492857162E+02  0.43116762801E+02  0.00000000000E+00 0. -1.
</event>
<event>
 7    1  0.2842702E-009  0.1160287E+03  0.7561462E-02  0.1249796E+00
         -1   -1    0    0    0  501 -0.00000000000E+00  0.00000000000E+00  0.19078920457E+02  0.19078920457E+02  0.00000000000E+00 0.  1.
          1   -1    0    0  501    0  0.00000000000E+00 -0.00000000000E+00 -0.11238772585E+04  0.11238772585E+04  0.00000000000E+00 0. -1.
         25    2    1    2    0    0 -0.73248469497E+02  0.59711655129E+02 -0.68671450417E+03  0.70438298733E+03  0.12509101709E+03 0.  0.
          5    1    3    3  502    0  0.42669676824E+00 -0.38839302190E+01  0.39046042677E+01  0.69271436080E+01  0.41800000000E+01 0.  1.
         -5    1    3    3    0  502 -0.73675166266E+02  0.63595585348E+02 -0.69061910844E+03  0.69745584372E+03  0.41800000000E+01 0.  1.
        -11    1    1    2    0    0 -0.15983830355E+02 -0.31517588547E+02 -0.74229867704E+02  0.82212617523E+02  0.00000000000E+00 0.  1.
         11    1    1    2    0    0  0.89232299853E+02 -0.28194066582E+02 -0.34385396620E+03  0.35636057414E+03  0.00000000000E+00 0. -1.
</event>
<event>
 7    1  0.2842702E-009  0.1711498E+03  0.7561462E-02  0.1176654E+00
         -1   -1    0    0    0  501 -0.00000000000E+00  0.00000000000E+00  0.43935717204E+03  0.43935717204E+03  0.00000000000E+00 0.  1.
          1   -1    0    0  501    0  0.00000000000E+00 -0.00000000000E+00 -0.91013034545E+02  0.91013034545E+02  0.00000000000E+00 0. -1.
         25    2    1    2    0    0  0.14481303548E+03 -0.50266809914E+02  0.91804682648E+02  0.21811159590E+03  0.12508797339E+03 0.  0.
          5    1    3    3  502    0  0.85737275571E+02  0.25829565784E+02  0.81472051181E+02  0.12113304427E+03  0.41800000000E+01 0.  1.
         -5    1    3    3    0  502  0.59075759913E+02 -0.76096375698E+02  0.10332631467E+02  0.96978551633E+02  0.41800000000E+01 0.  1.
        -11    1    1    2    0    0 -0.34916060964E+02 -0.10770317646E+01  0.82056495252E+01  0.35883478020E+02  0.00000000000E+00 0. -1.
         11    1    1    2    0    0 -0.10989697452E+03  0.51343841679E+02  0.24833380532E+03  0.27637513266E+03  0.00000000000E+00 0.  1.
</event>
<event>
 7    1  0.2842702E-009  0.8605878E+02  0.7561462E-02  0.1312687E+00
         -1   -1    0    0    0  501 -0.00000000000E+00  0.00000000000E+00  0.34364462113E+03  0.34364462113E+03  0.00000000000E+00 0.  1.
          1   -1    0    0  501    0  0.00000000000E+00 -0.00000000000E+00 -0.42588501004E+02  0.42588501004E+02  0.00000000000E+00 0. -1.
         25    2    1    2    0    0 -0.14096859615E+02  0.48103563899E+02  0.14190903451E+03  0.19570206801E+03  0.12509376898E+03 0.  0.
          5    1    3    3  502    0 -0.24742700710E+01 -0.16295025792E+02 -0.16847509760E+02  0.23936600908E+02  0.41800000000E+01 0.  1.
         -5    1    3    3    0  502 -0.11622589544E+02  0.64398589691E+02  0.15875654427E+03  0.17176546710E+03  0.41800000000E+01 0.  1.
        -11    1    1    2    0    0 -0.13537490934E+02 -0.58477653341E+02  0.52076002683E+02  0.79465776637E+02  0.00000000000E+00 0. -1.
         11    1    1    2    0    0  0.27634350549E+02  0.10374089442E+02  0.10707108294E+03  0.11106527749E+03  0.00000000000E+00 0.  1.
</event>
<event>
 7    1  0.2842702E-009  0.1098408E+03  0.7561462E-02  0.1260865E+00
          1   -1    0    0  501    0  0.00000000000E+00  0.00000000000E+00  0.32423579616E+03  0.32423579616E+03  0.00000000000E+00 0. -1.
         -1   -1    0    0    0  501 -0.00000000000E+00 -0.00000000000E+00 -0.44910443756E+02  0.44910443756E+02  0.00000000000E+00 0.  1.
         25    2    1    2    0    0 -0.18497913125E+02 -0.18839772278E+02  0.22351346840E+03  0.25749240367E+03  0.12508779951E+03 0.  0.
          5    1    3    3  502    0  0.22483832710E+02  0.44952542163E+02  0.10880685178E+03  0.11992771646E+03  0.41800000000E+01 0.  1.
         -5    1    3    3    0  502 -0.40981745834E+02 -0.63792314441E+02  0.11470661661E+03  0.13756468721E+03  0.41800000000E+01 0.  1.
        -11    1    1    2    0    0 -0.19098434490E+01 -0.35351320767E+02  0.73810333978E+01  0.36164112543E+02  0.00000000000E+00 0.  1.
         11    1    1    2    0    0  0.20407756574E+02  0.54191093045E+02  0.48430850615E+02  0.75489723705E+02  0.00000000000E+00 0. -1.
</event>
<event>
 7    1  0.2842702E-009  0.1182789E+03  0.7561462E-02  0.1245964E+00
          2   -1    0    0  501    0  0.00000000000E+00  0.00000000000E+00  0.86749844207E+03  0.86749844207E+03  0.00000000000E+00 0. -1.
         -2   -1    0    0    0  501 -0.00000000000E+00 -0.00000000000E+00 -0.23394235442E+02  0.23394235442E+02  0.00000000000E+00 0.  1.
         25    2    1    2    0    0 -0.38522122308E+02  0.69594266402E+02  0.61806453265E+03  0.63559412063E+03  0.12509517907E+03 0.  0.
          5    1    3    3  502    0 -0.28379120000E+02 -0.32942158579E+02  0.14583416791E+03  0.15223546628E+03  0.41800000000E+01 0.  1.
         -5    1    3    3    0  502 -0.10143002308E+02  0.10253642498E+03  0.47223036475E+03  0.48335865435E+03  0.41800000000E+01 0.  1.
        -11    1    1    2    0    0  0.21705066799E+02 -0.40395077839E+01  0.30773752422E+01  0.22291204235E+02  0.00000000000E+00 0.  1.
         11    1    1    2    0    0  0.16817055509E+02 -0.65554758618E+02  0.22296229873E+03  0.23300735265E+03  0.00000000000E+00 0. -1.
</event>
<event>
 7    1  0.2842702E-009  0.1173362E+03  0.7561462E-02  0.1247557E+00
         -2   -1    0    0    0  501 -0.00000000000E+00  0.00000000000E+00  0.59602387570E+02  0.59602387570E+02  0.00000000000E+00 0. -1.
          2   -1    0    0  501    0  0.00000000000E+00 -0.00000000000E+00 -0.35499658038E+03  0.35499658038E+03  0.00000000000E+00 0.  1.
         25    2    1    2    0    0 -0.81908037229E+02  0.25258587692E+02 -0.20605411357E+03  0.25585865929E+03  0.12513366054E+03 0.  0.
          5    1    3    3  502    0 -0.10910617024E+02  0.65978974843E+02 -0.69068025257E+02  0.96229575486E+02  0.41800000000E+01 0. -1.
         -5    1    3    3    0  502 -0.70997420205E+02 -0.40720387151E+02 -0.13698608831E+03  0.15962908381E+03  0.41800000000E+01 0. -1.
        -11    1    1    2    0    0  0.51924480692E+02 -0.16029763701E+02 -0.10894530476E+03  0.12174639399E+03  0.00000000000E+00 0.  1.
         11    1    1    2    0    0  0.29983556536E+02 -0.92288239910E+01  0.19605225522E+02  0.36993914670E+02  0.00000000000E+00 0. -1.
</event>
<event>
 7    1  0.2842702E-009  0.1272260E+03  0.7561462E-02  0.1231631E+00
          1   -1    0    0  501    0  0.00000000000E+00  0.00000000000E+00  0.60703453892E+03  0.60703453892E+03  0.00000000000E+00 0. -1.
         -1   -1    0    0    0  501 -0.00000000000E+00 -0.00000000000E+00 -0.33831533189E+02  0.33831533189E+02  0.00000000000E+00 0.  1.
         25    2    1    2    0    0 -0.73614222970E+02 -0.29420741227E+02  0.34697028130E+03  0.37725273841E+03  0.12508644489E+03 0.  0.
          5    1    3    3  502    0 -0.99826883699E+02  0.53432240867E+01  0.19583226169E+03  0.21991294612E+03  0.41800000000E+01 0.  1.
         -5    1    3    3    0  502  0.26212660729E+02 -0.34763965314E+02  0.15113801961E+03  0.15733979229E+03  0.41800000000E+01 0.  1.
        -11    1    1    2    0    0 -0.93231346180E+01  0.26029928632E+02  0.60492763061E+01  0.28303211258E+02  0.00000000000E+00 0.  1.
         11    1    1    2    0    0  0.82937357588E+02  0.33908125955E+01  0.22018344813E+03  0.23531012244E+03  0.00000000000E+00 0. -1.
</event>
<event>
 7    1  0.2842702E-009  0.9132537E+02  0.7561462E-02  0.1299674E+00
         -1   -1    0    0    0  501 -0.00000000000E+00  0.00000000000E+00  0.65835983562E+02  0.65835983562E+02  0.00000000000E+00 0.  1.
          1   -1    0    0  501    0  0.00000000000E+00 -0.00000000000E+00 -0.20274068822E+03  0.20274068822E+03  0.00000000000E+00 0. -1.
         25    2    1    2    0    0 -0.13098053992E+02  0.34256232839E+02 -0.98313821311E+02  0.16327610552E+03  0.12509368755E+03 0.  0.
          5    1    3    3  502    0 -0.35851336744E+01  0.77404336497E+02 -0.33034794909E+02  0.84338926758E+02  0.41800000000E+01 0.  1.
         -5    1    3    3    0  502 -0.95129203175E+01 -0.43148103659E+02 -0.65279026402E+02  0.78937178758E+02  0.41800000000E+01 0.  1.
        -11    1    1    2    0    0  0.28732656848E+02 -0.75254520115E+01  0.22196720439E+02  0.37079541472E+02  0.00000000000E+00 0. -1.
         11    1    1    2    0    0 -0.15634602856E+02 -0.26730780827E+02 -0.60787603788E+02  0.68221024797E+02  0.00000000000E+00 0.  1.
</event>
<event>
 7    1  0.2842702E-009  0.8197341E+02  0.7561462E-02  0.1323543E+00
         -3   -1    0    0    0  501 -0.00000000000E+00  0.00000000000E+00  0.24266999311E+03  0.24266999311E+03  0.00000000000E+00 0.  1.
          3   -1    0    0  501    0  0.00000000000E+00 -0.00000000000E+00 -0.62590937079E+02  0.62590937079E+02  0.00000000000E+00 0. -1.
         25    2    1    2    0    0 -0.37342639781E+02  0.11414178680E+02  0.46354252295E+02  0.13900239980E+03  0.12509274249E+03 0.  0.
          5    1    3    3  502    0 -0.51445143927E+02  0.29434599388E+02 -0.24617724780E+02  0.64315653212E+02  0.41800000000E+01 0. -1.
         -5    1    3    3    0  502  0.14102504146E+02 -0.18020420708E+02  0.70971977075E+02  0.74686746586E+02  0.41800000000E+01 0. -1.
        -11    1    1    2    0    0  0.75257120487E+01 -0.39557245408E+02  0.19189119844E+02  0.44605317245E+02  0.00000000000E+00 0.  1.
         11    1    1    2    0    0  0.29816927732E+02  0.28143066728E+02  0.11453568390E+03  0.12165321315E+03  0.00000000000E+00 0. -1.
</event>
<event>
 7    1  0.2842702E-009  0.8314281E+02  0.7561462E-02  0.1320362E+00
          1   -1    0    0  501    0  0.00000000000E+00  0.00000000000E+00  0.53293966101E+02  0.53293966101E+02  0.00000000000E+00 0. -1.
         -1   -1    0    0    0  501 -0.00000000000E+00 -0.00000000000E+00 -0.26195846160E+03  0.26195846160E+03  0.00000000000E+00 0.  1.
         25    2    1    2    0    0  0.31157382639E+01  0.35508906096E+02 -0.14966144986E+03  0.19828604907E+03  0.12509283531E+03 0.  0.
          5    1    3    3  502    0 -0.23611035130E+02 -0.24866646441E+02  0.11944725496E+00  0.34544431574E+02  0.41800000000E+01 0.  1.
         -5    1    3    3    0  502  0.26726773394E+02  0.60375552537E+02 -0.14978089711E+03  0.16374161749E+03  0.41800000000E+01 0.  1.
        -11    1    1    2    0    0  0.12659290237E+02 -0.45286806229E+02 -0.77572685258E+02  0.90712038594E+02  0.00000000000E+00 0.  1.
         11    1    1    2    0    0 -0.15775028500E+02  0.97779001328E+01  0.18569639618E+02  0.26254340036E+02  0.00000000000E+00 0. -1.
</event>
<event>
 7    1  0.2842702E-009  0.1133821E+03  0.7561462E-02  0.1254432E+00
          1   -1    0    0  501    0  0.00000000000E+00  0.00000000000E+00  0.66623653027E+03  0.66623653027E+03  0.00000000000E+00 0. -1.
         -1   -1    0    0    0  501 -0.00000000000E+00 -0.00000000000E+00 -0.35946382942E+02  0.35946382942E+02  0.00000000000E+00 0.  1.
         25    2    1    2    0    0  0.76466459101E+02  0.73253937837E+02  0.40212191112E+03  0.43423648801E+03  0.12508412106E+03 0.  0.
          5    1    3    3  502    0  0.34622845811E+02  0.32487043430E+02  0.27422732260E+02  0.54987526653E+02  0.41800000000E+01 0. -1.
         -5    1    3    3    0  502  0.41843613290E+02  0.40766894406E+02  0.37469917886E+03  0.37924896135E+03  0.41800000000E+01 0. -1.
        -11    1    1    2    0    0 -0.41263059677E+02 -0.74658329587E+02  0.84681238008E+02  0.12019741404E+03  0.00000000000E+00 0.  1.
         11    1    1    2    0    0 -0.35203399424E+02  0.14043917506E+01  0.14348699820E+03  0.14774901116E+03  0.00000000000E+00 0. -1.
</event>
<event>
 7    1  0.2842702E-009  0.1317500E+03  0.7561462E-02  0.1224882E+00
          2   -1    0    0  501    0  0.00000000000E+00  0.00000000000E+00  0.42390753667E+03  0.42390753667E+03  0.00000000000E+00 0. -1.
         -2   -1    0    0    0  501 -0.00000000000E+00 -0.00000000000E+00 -0.69740967794E+02  0.69740967794E+02  0.00000000000E+00 0.  1.
         25    2    1    2    0    0 -0.99794927148E+02  0.61866332737E+02  0.97112216301E+02  0.19714370321E+03  0.12509351122E+03 0.  0.
          5    1    3    3  502    0 -0.32949116339E+02 -0.19006168447E+02 -0.17172366016E+02  0.41943310088E+02  0.41800000000E+01 0.  1.
         -5    1    3    3    0  502 -0.66845810809E+02  0.80872501185E+02  0.11428458232E+03  0.15520039312E+03  0.41800000000E+01 0.  1.
        -11    1    1    2    0    0  0.40537536102E+02 -0.10672567970E+02  0.19229084982E+02  0.46118903386E+02  0.00000000000E+00 0.  1.
         11    1    1    2    0    0  0.59257391045E+02 -0.51193764767E+02  0.23782526759E+03  0.25038589787E+03  0.00000000000E+00 0. -1.
</event>
<event>
 7    1  0.2842702E-009  0.1506334E+03  0.7561462E-02  0.1199697E+00
         -2   -1    0    0    0  501 -0.00000000000E+00  0.00000000000E+00  0.11321874076E+03  0.11321874076E+03  0.00000000000E+00 0.  1.
          2   -1    0    0  501    0  0.00000000000E+00 -0.00000000000E+00 -0.24598550850E+03  0.24598550850E+03  0.00000000000E+00 0. -1.
         25    2    1    2    0    0 -0.10229520746E+03 -0.68524274749E+02 -0.91877890307E+02  0.19811346995E+03  0.12509002579E+03 0.  0.
          5    1    3    3  502    0 -0.12056426438E+03 -0.19006769342E+02 -0.70514829654E+02  0.14102061100E+03  0.41800000000E+01 0.  1.
         -5    1    3    3    0  502  0.18269056924E+02 -0.49517505407E+02 -0.21363060653E+02  0.57092858950E+02  0.41800000000E+01 0.  1.
        -11    1    1    2    0    0  0.90202929293E+02  0.69774756060E+02 -0.67016404451E+02  0.13227351776E+03  0.00000000000E+00 0. -1.
         11    1    1    2    0    0  0.12092278166E+02 -0.12504813112E+01  0.26127527018E+02  0.28817261543E+02  0.00000000000E+00 0.  1.
</event>
<event>
 7    1  0.2842702E-009  0.1216210E+03  0.7561462E-02  0.1240447E+00
         -2   -1    0    0    0  501 -0.00000000000E+00  0.00000000000E+00  0.28879789798E+02  0.28879789798E+02  0.00000000000E+00 0.  1.
          2   -1    0    0  501    0  0.00000000000E+00 -0.00000000000E+00 -0.54564151578E+03  0.54564151578E+03  0.00000000000E+00 0. -1.
         25    2    1    2    0    0 -0.79309158134E+02 -0.48280828455E+02 -0.33874941358E+03  0.37285262536E+03  0.12508770556E+03 0.  0.
          5    1    3    3  502    0 -0.58450239592E+02  0.32321299182E+02 -0.20094412191E+03  0.21179497024E+03  0.41800000000E+01 0. -1.
         -5    1    3    3    0  502 -0.20858918543E+02 -0.80602127637E+02 -0.13780529167E+03  0.16105765512E+03  0.41800000000E+01 0. -1.
        -11    1    1    2    0    0  0.56783694686E+02  0.32165463892E+02 -0.14164066567E+03  0.15595218248E+03  0.00000000000E+00 0. -1.
         11    1    1    2    0    0  0.22525463448E+02  0.16115364563E+02 -0.36371646730E+02  0.45716497727E+02  0.00000000000E+00 0.  1.
</event>
<event>
 7    1  0.2842702E-009  0.1227668E+03  0.7561462E-02  0.1238601E+00
         -2   -1    0    0    0  501 -0.00000000000E+00  0.00000000000E+00  0.15274442055E+03  0.15274442055E+03  0.00000000000E+00 0.  1.
          2   -1    0    0  501    0  0.00000000000E+00 -0.00000000000E+00 -0.13479286098E+03  0.13479286098E+03  0.00000000000E+00 0. -1.
         25    2    1    2    0    0 -0.49944702336E+02 -0.76820239215E+02  0.31349961559E+02  0.15820110944E+03  0.12509575729E+03 0.  0.
          5    1    3    3  502    0  0.33859375909E+00  0.20474820725E+02 -0.26914515088E+02  0.34076332724E+02  0.41800000000E+01 0.  1.
         -5    1    3    3    0  502 -0.50283296095E+02 -0.97295059940E+02  0.58264476648E+02  0.12412477671E+03  0.41800000000E+01 0.  1.
        -11    1    1    2    0    0 -0.14685891540E+02  0.35253475754E+02 -0.32507997436E+02  0.50152296661E+02  0.00000000000E+00 0. -1.
         11    1    1    2    0    0  0.64630593876E+02  0.41566763460E+02  0.19109595450E+02  0.79183875427E+02  0.00000000000E+00 0.  1.
</event>
<event>
 7    1  0.2842702E-009  0.1276645E+03  0.7561462E-02  0.1230963E+00
          1   -1    0    0  501    0  0.00000000000E+00  0.00000000000E+00  0.20294086778E+03  0.20294086778E+03  0.00000000000E+00 0. -1.
         -1   -1    0    0    0  501 -0.00000000000E+00 -0.00000000000E+00 -0.82525318769E+02  0.82525318769E+02  0.00000000000E+00 0.  1.
         25    2    1    2    0    0  0.16862418828E+02 -0.68797198186E+02  0.74695475867E+02  0.16200587649E+03  0.12509633990E+03 0.  0.
          5    1    3    3  502    0  0.67077379490E+02 -0.19060048338E+02  0.20378860071E+02  0.72769709493E+02  0.41800000000E+01 0.  1.
         -5    1    3    3    0  502 -0.50214960662E+02 -0.49737149849E+02  0.54316615797E+02  0.89236167001E+02  0.41800000000E+01 0.  1.
        -11    1    1    2    0    0 -0.29902155626E+01 -0.22311645521E+02  0.97082102615E+01  0.24515306676E+02  0.00000000000E+00 0.  1.
         11    1    1    2    0    0 -0.13872203265E+02  0.91108843707E+02  0.36011862879E+02  0.98945003376E+02  0.00000000000E+00 0. -1.
</event>
<event>
 7    1  0.2842702E-009  0.1196162E+03  0.7561462E-02  0.1243732E+00
          2   -1    0    0  501    0  0.00000000000E+00  0.00000000000E+00  0.62249845273E+02  0.62249845273E+02  0.00000000000E+00 0. -1.
         -2   -1    0    0    0  501 -0.00000000000E+00 -0.00000000000E+00 -0.27064950159E+03  0.27064950159E+03  0.00000000000E+00 0.  1.
         25    2    1    2    0    0  0.64340094874E+02 -0.46199242130E+02 -0.91694645865E+02  0.17415042651E+03  0.12508575135E+03 0.  0.
          5    1    3    3  502    0  0.97804328360E+02 -0.53842656889E+02 -0.80853846227E+02  0.13791133092E+03  0.41800000000E+01 0.  1.
         -5    1    3    3    0  502 -0.33464233486E+02  0.76434147594E+01 -0.10840799638E+02  0.36239095584E+02  0.41800000000E+01 0.  1.
        -11    1    1    2    0    0 -0.62374776330E+02  0.18360354044E+02 -0.38156566560E+02  0.75389912419E+02  0.00000000000E+00 0. -1.
         11    1    1    2    0    0 -0.19653185436E+01  0.27838888086E+02 -0.78548443897E+02  0.83359007944E+02  0.00000000000E+00 0.  1.
</event>
<event>
 7    1  0.2842702E-009  0.1378174E+03  0.7561462E-02  0.1216296E+00
         -3   -1    0    0    0  501 -0.00000000000E+00  0.00000000000E+00  0.24036664594E+02  0.24036664594E+02  0.00000000000E+00 0.  1.
          3   -1    0    0  501    0  0.00000000000E+00 -0.00000000000E+00 -0.98100826409E+03  0.98100826409E+03  0.00000000000E+00 0. -1.
         25    2    1    2    0    0 -0.36336724353E+02  0.10399910025E+03 -0.58716258313E+03  0.61036357221E+03  0.12509045073E+03 0.  0.
          5    1    3    3  502    0  0.38026865986E+02  0.63011115144E+02 -0.18168840493E+03  0.19607292535E+03  0.41800000000E+01 0.  1.
         -5    1    3    3    0  502 -0.74363590338E+02  0.40987985102E+02 -0.40547417820E+03  0.41429064686E+03  0.41800000000E+01 0.  1.
        -11    1    1    2    0    0  0.36831829774E+02 -0.46111187974E+02 -0.81532747836E+02  0.10064995932E+03  0.00000000000E+00 0. -1.
         11    1    1    2    0    0 -0.49510542151E+00 -0.57887912272E+02 -0.28827626853E+03  0.29403139716E+03  0.00000000000E+00 0.  1.
</event>
<event>
 7    1  0.2842702E-009  0.1119215E+03  0.7561462E-02  0.1257052E+00
          1   -1    0    0  501    0  0.00000000000E+00  0.00000000000E+00  0.22964520760E+02  0.22964520760E+02  0.00000000000E+00 0. -1.
         -1   -1    0    0    0  501 -0.00000000000E+00 -0.00000000000E+00 -0.75844511898E+03  0.75844511898E+03  0.00000000000E+00 0.  1.
         25    2    1    2    0    0  0.75838883731E+02  0.51302951199E+00 -0.39520817642E+03  0.42141791189E+03  0.12510697130E+03 0.  0.
          5    1    3    3  502    0  0.28610848750E+02  0.37341767500E+02 -0.42180754431E+02  0.63322008106E+02  0.41800000000E+01 0. -1.
         -5    1    3    3    0  502  0.47228034981E+02 -0.36828737988E+02 -0.35302742199E+03  0.35809590379E+03  0.41800000000E+01 0. -1.
        -11    1    1    2    0    0 -0.59414644597E+02  0.40831166876E+02 -0.23177033837E+03  0.24272365754E+03  0.00000000000E+00 0. -1.
         11    1    1    2    0    0 -0.16424239133E+02 -0.41344196388E+02 -0.10850208343E+03  0.11726807031E+03  0.00000000000E+00 0.  1.
</event>
<event>
 7    1  0.2842702E-009  0.8218622E+02  0.7561462E-02  0.1322959E+00
         -2   -1    0    0    0  501 -0.00000000000E+00  0.00000000000E+00  0.29360589360E+02  0.29360589360E+02  0.00000000000E+00 0.  1.
          2   -1    0    0  501    0  0.00000000000E+00 -0.00000000000E+00 -0.56421938804E+03  0.56421938804E+03  0.00000000000E+00 0. -1.
         25    2    1    2    0    0 -0.63155522247E+02 -0.10797908711E+02 -0.35781576062E+03  0.38442910953E+03  0.12509359249E+03 0.  0.
          5    1    3    3  502    0 -0.25530395570E+02  0.11766287244E+02 -0.33228249574E+03  0.33349569111E+03  0.41800000000E+01 0. -1.
         -5    1    3    3    0  502 -0.37625126677E+02 -0.22564195955E+02 -0.25533264880E+02  0.50933418420E+02  0.41800000000E+01 0. -1.
        -11    1    1    2    0    0  0.70488699960E+02 -0.87245775574E+01 -0.17417499159E+03  0.18810024660E+03  0.00000000000E+00 0. -1.
         11    1    1    2    0    0 -0.73331777127E+01  0.19522486268E+02 -0.28680464744E+01  0.21050621275E+02  0.00000000000E+00 0.  1.
</event>
<event>
 7    1  0.2842702E-009  0.1061190E+03  0.7561462E-02  0.1267931E+00
         -2   -1    0    0    0  501 -0.00000000000E+00  0.00000000000E+00  0.84085362392E+02  0.84085362392E+02  0.00000000000E+00 0.  1.
          2   -1    0    0  501    0  0.00000000000E+00 -0.00000000000E+00 -0.19590993046E+03  0.19590993046E+03  0.00000000000E+00 0. -1.
         25    2    1    2    0    0 -0.10075314990E+01 -0.56378192045E+02 -0.24163856217E+02  0.13932089447E+03  0.12508758543E+03 0.  0.
          5    1    3    3  502    0  0.56225620418E+02 -0.52101166626E+02 -0.27836601902E+02  0.81659051921E+02  0.41800000000E+01 0.  1.
         -5    1    3    3    0  502 -0.57233151917E+02 -0.42770254192E+01  0.36727456845E+01  0.57661842545E+02  0.41800000000E+01 0.  1.
        -11    1    1    2    0    0  0.13269568598E+02 -0.58489446924E+01  0.14448651972E+02  0.20470836539E+02  0.00000000000E+00 0.  1.
         11    1    1    2    0    0 -0.12262037099E+02  0.62227136738E+02 -0.10210936382E+03  0.12020356184E+03  0.00000000000E+00 0. -1.
</event>
<event>
 7    1  0.2842702E-009  0.9136979E+02  0.7561462E-02  0.1299568E+00
         -3   -1    0    0    0  501 -0.00000000000E+00  0.00000000000E+00  0.18575000270E+03  0.18575000270E+03  0.00000000000E+00 0.  1.
          3   -1    0    0  501    0  0.00000000000E+00 -0.00000000000E+00 -0.71701444804E+02  0.71701444804E+02  0.00000000000E+00 0. -1.
         25    2    1    2    0    0  0.39815499611E+02  0.64811408152E+01  0.66584765161E+02  0.14733765076E+03  0.12509026014E+03 0.  0.
          5    1    3    3  502    0 -0.68020165633E+01 -0.34587606811E+02 -0.19957000732E+02  0.40722527579E+02  0.41800000000E+01 0.  1.
         -5    1    3    3    0  502  0.46617516174E+02  0.41068747626E+02  0.86541765894E+02  0.10661512318E+03  0.41800000000E+01 0.  1.
        -11    1    1    2    0    0 -0.42975219290E+02  0.27386550023E+02  0.55308793282E+02  0.75206084924E+02  0.00000000000E+00 0.  1.
         11    1    1    2    0    0  0.31597196789E+01 -0.33867690838E+02 -0.78450005495E+01  0.34907711824E+02  0.00000000000E+00 0. -1.
</event>
<event>
 7    1  0.2842702E-009  0.1160309E+03  0.7561462E-02  0.1249792E+00
         -2   -1    0    0    0  501 -0.00000000000E+00  0.00000000000E+00  0.13117324193E+03  0.13117324193E+03  0.00000000000E+00 0. -1.
          2   -1    0    0  501    0  0.00000000000E+00 -0.00000000000E+00 -0.14004124506E+03  0.14004124506E+03  0.00000000000E+00 0.  1.
         25    2    1    2    0    0 -0.75177214329E+02  0.24690221511E+02  0.10145156452E+02  0.14836277684E+03  0.12508944304E+03 0.  0.
          5    1    3    3  502    0 -0.10611184961E+01 -0.29836263333E+02  0.41297155118E+02  0.51129795647E+02  0.41800000000E+01 0.  1.
         -5    1    3    3    0  502 -0.74116095833E+02  0.54526484843E+02 -0.31151998665E+02  0.97232981193E+02  0.41800000000E+01 0.  1.
        -11    1    1    2    0    0  0.45657054877E+02  0.24967802080E+02 -0.35238285011E+02  0.62846595224E+02  0.00000000000E+00 0.  1.
         11    1    1    2    0    0  0.29520159452E+02 -0.49658023591E+02  0.16225125427E+02  0.60005114917E+02  0.00000000000E+00 0. -1.
</event>
<event>
 7    1  0.2842702E-009  0.1842344E+03  0.7561462E-02  0.1163767E+00
         -1   -1    0    0    0  501 -0.00000000000E+00  0.00000000000E+00  0.47236288352E+02  0.47236288352E+02  0.00000000000E+00 0.  1.
          1   -1    0    0  501    0  0.00000000000E+00 -0.00000000000E+00 -0.72257721766E+03  0.72257721766E+03  0.00000000000E+00 0. -1.
         25    2    1    2    0    0  0.11564794021E+03  0.93481199998E+02 -0.33738628851E+03  0.38934728053E+03  0.12509442974E+03 0.  0.
          5    1    3    3  502    0  0.18995341548E+02  0.95591359918E+02 -0.17113898925E+03  0.19698872337E+03  0.41800000000E+01 0.  1.
         -5    1    3    3    0  502  0.96652598660E+02 -0.21101599196E+01 -0.16624729926E+03  0.19235855716E+03  0.41800000000E+01 0.  1.
        -11    1    1    2    0    0 -0.91135694938E+02 -0.11129731499E+03 -0.26633696589E+03  0.30270148102E+03  0.00000000000E+00 0.  1.
         11    1    1    2    0    0 -0.24512245270E+02  0.17816114988E+02 -0.71617674910E+02  0.77764744461E+02  0.00000000000E+00 0. -1.
</event>
<event>
 7    1  0.2842702E-009  0.1384406E+03  0.7561462E-02  0.1215443E+00
         -4   -1    0    0    0  501 -0.00000000000E+00  0.00000000000E+00  0.12534984357E+03  0.12534984357E+03  0.00000000000E+00 0.  1.
          4   -1    0    0  501    0  0.00000000000E+00 -0.00000000000E+00 -0.20786705736E+03  0.20786705736E+03  0.00000000000E+00 0. -1.
         25    2    1    2    0    0 -0.11318683075E+03 -0.69384493745E+01 -0.57121398424E+01  0.16893449173E+03  0.12508730239E+03 0.  0.
          5    1    3    3  502    0 -0.61384571106E+02 -0.61110874424E+02  0.21049296993E+02  0.89236482711E+02  0.41800000000E+01 0. -1.
         -5    1    3    3    0  502 -0.51802259643E+02  0.54172425050E+02 -0.26761436835E+02  0.79698009018E+02  0.41800000000E+01 0. -1.
        -11    1    1    2    0    0  0.10054369690E+03 -0.25880572653E+00 -0.96791048601E+02  0.13956220497E+03  0.00000000000E+00 0. -1.
         11    1    1    2    0    0  0.12643133849E+02  0.71972551010E+01  0.19985974649E+02  0.24720204231E+02  0.00000000000E+00 0.  1.
</event>
<event>
 7    1  0.2842702E-009  0.1178454E+03  0.7561462E-02  0.1246694E+00
         -2   -1    0    0    0  501 -0.00000000000E+00  0.00000000000E+00  0.41411797897E+02  0.41411797897E+02  0.00000000000E+00 0.  1.
          2   -1    0    0  501    0  0.00000000000E+00 -0.00000000000E+00 -0.40608534110E+03  0.40608534110E+03  0.00000000000E+00 0. -1.
         25    2    1    2    0    0 -0.25985629201E+02 -0.64754535802E+02 -0.18754875142E+03  0.23598926412E+03  0.12509194934E+03 0.  0.
          5    1    3    3  502    0 -0.30577634253E+02 -0.89723191788E+02 -0.18763398438E+03  0.21025990430E+03  0.41800000000E+01 0.  1.
         -5    1    3    3    0  502  0.45920050525E+01  0.24968655986E+02  0.85232964188E-01  0.25729359821E+02  0.41800000000E+01 0.  1.
        -11    1    1    2    0    0  0.53087946472E+02  0.69611615501E+02 -0.12579596360E+03  0.15326033907E+03  0.00000000000E+00 0.  1.
         11    1    1    2    0    0 -0.27102317271E+02 -0.48570796992E+01 -0.51328828183E+02  0.58247535805E+02  0.00000000000E+00 0. -1.
</event>
<event>
 7    1  0.2842702E-009  0.1227786E+03  0.7561462E-02  0.1238582E+00
          1   -1    0    0  501    0  0.00000000000E+00  0.00000000000E+00  0.26751228013E+03  0.26751228013E+03  0.00000000000E+00 0. -1.
         -1   -1    0    0    0  501 -0.00000000000E+00 -0.00000000000E+00 -0.13799218133E+03  0.13799218133E+03  0.00000000000E+00 0.  1.
         25    2    1    2    0    0  0.38612278311E+02 -0.59821108827E+02  0.22171624507E+03  0.26433927463E+03  0.12509070984E+03 0.  0.
          5    1    3    3  502    0 -0.27002555374E+02 -0.70822967613E+02  0.13601257671E+03  0.15576239650E+03  0.41800000000E+01 0.  1.
         -5    1    3    3    0  502  0.65614833685E+02  0.11001858785E+02  0.85703668358E+02  0.10857687814E+03  0.41800000000E+01 0.  1.
        -11    1    1    2    0    0 -0.59901633927E+02  0.31880733487E+02 -0.41676646649E+02  0.79633722698E+02  0.00000000000E+00 0. -1.
         11    1    1    2    0    0  0.21289355616E+02  0.27940375340E+02 -0.50519499612E+02  0.61531464128E+02  0.00000000000E+00 0.  1.
</event>
<event>
 7    1  0.2842702E-009  0.1185272E+03  0.7561462E-02  0.1245547E+00
         -1   -1    0    0    0  501 -0.00000000000E+00  0.00000000000E+00  0.31426372943E+03  0.31426372943E+03  0.00000000000E+00 0.  1.
          1   -1    0    0  501    0  0.00000000000E+00 -0.00000000000E+00 -0.78802442743E+02  0.78802442743E+02  0.00000000000E+00 0. -1.
         25    2    1    2    0    0 -0.80718597870E+02  0.67763347324E+02  0.72227059745E+02  0.17876811465E+03  0.12503570440E+03 0.  0.
          5    1    3    3  502    0 -0.70718960026E+02  0.11461455626E+02 -0.16020746491E+02  0.73530082214E+02  0.41800000000E+01 0. -1.
         -5    1    3    3    0  502 -0.99996378437E+01  0.56301891698E+02  0.88247806235E+02  0.10523803244E+03  0.41800000000E+01 0. -1.
        -11    1    1    2    0    0  0.20686745485E+02 -0.31919588010E+02  0.14643773141E+01  0.38065022506E+02  0.00000000000E+00 0. -1.
         11    1    1    2    0    0  0.60031852385E+02 -0.35843759314E+02  0.16176984963E+03  0.17623303501E+03  0.00000000000E+00 0.  1.
</event>
<event>
 7    1  0.2842702E-009  0.1259374E+03  0.7561462E-02  0.1233612E+00
          2   -1    0    0  501    0  0.00000000000E+00  0.00000000000E+00  0.10837858666E+04  0.10837858666E+04  0.00000000000E+00 0. -1.
         -2   -1    0    0    0  501 -0.00000000000E+00 -0.00000000000E+00 -0.15971061914E+02  0.15971061914E+02  0.00000000000E+00 0.  1.
         25    2    1    2    0    0 -0.43685091857E+02 -0.47577835888E+02  0.44668478401E+03  0.46834303447E+03  0.12508342798E+03 0.  0.
          5    1    3    3  502    0  0.37765505206E+02  0.91166022676E+01  0.90658374664E+02  0.98720611410E+02  0.41800000000E+01 0. -1.
         -5    1    3    3    0  502 -0.81450597063E+02 -0.56694438155E+02  0.35602640935E+03  0.36962242306E+03  0.41800000000E+01 0. -1.
        -11    1    1    2    0    0  0.16202494247E+02 -0.28389221799E+02  0.18455762920E+03  0.18742995286E+03  0.00000000000E+00 0.  1.
         11    1    1    2    0    0  0.27482597611E+02  0.75967057686E+02  0.43657239146E+03  0.44398394116E+03  0.00000000000E+00 0. -1.
</event>
<event>
 7    1  0.2842702E-009  0.1242884E+03  0.7561462E-02  0.1236186E+00
         -2   -1    0    0    0  501 -0.00000000000E+00  0.00000000000E+00  0.13504218363E+03  0.13504218363E+03  0.00000000000E+00 0.  1.
          2   -1    0    0  501    0  0.00000000000E+00 -0.00000000000E+00 -0.16782989850E+03  0.16782989850E+03  0.00000000000E+00 0. -1.
         25    2    1    2    0    0  0.92627609265E+02  0.42839166279E+02  0.59942802777E+01  0.16154827155E+03  0.12508734740E+03 0.  0.
          5    1    3    3  502    0  0.51162466640E+02  0.48573846274E+02  0.60267789389E+02  0.92880005235E+02  0.41800000000E+01 0.  1.
         -5    1    3    3    0  502  0.41465142625E+02 -0.57346799955E+01 -0.54273509111E+02  0.68668266316E+02  0.41800000000E+01 0.  1.
        -11    1    1    2    0    0 -0.10207551631E+03 -0.11047830022E+02 -0.27481490993E+02  0.10628592534E+03  0.00000000000E+00 0.  1.
         11    1    1    2    0    0  0.94479070431E+01 -0.31791336257E+02 -0.11300504158E+02  0.35037885249E+02  0.00000000000E+00 0. -1.
</event>
<event>
 7    1  0.2842702E-009  0.1262655E+03  0.7561462E-02  0.1233105E+00
          1   -1    0    0  501    0  0.00000000000E+00  0.00000000000E+00  0.81428097632E+03  0.81428097632E+03  0.00000000000E+00 0. -1.
         -1   -1    0    0    0  501 -0.00000000000E+00 -0.00000000000E+00 -0.29527500999E+02  0.29527500999E+02  0.00000000000E+00 0.  1.
         25    2    1    2    0    0 -0.82888463191E+02  0.29304754739E+02  0.60602720599E+03  0.62501571497E+03  0.12508558501E+03 0.  0.
          5    1    3    3  502    0  0.18146794873E+02 -0.67695870657E+01  0.30088344459E+03  0.30153516064E+03  0.41800000000E+01 0.  1.
         -5    1    3    3    0  502 -0.10103525806E+03  0.36074341804E+02  0.30514376139E+03  0.32348055432E+03  0.41800000000E+01 0.  1.
        -11    1    1    2    0    0  0.26904279662E+02 -0.56897896006E+02  0.10240652500E+03  0.12020111146E+03  0.00000000000E+00 0.  1.
         11    1    1    2    0    0  0.55984183529E+02  0.27593141267E+02  0.76319744338E+02  0.98591650895E+02  0.00000000000E+00 0. -1.
</event>
<event>
 7    1  0.2842702E-009  0.1980266E+03  0.7561462E-02  0.1151415E+00
          1   -1    0    0  501    0  0.00000000000E+00  0.00000000000E+00  0.27992638247E+03  0.27992638247E+03  0.00000000000E+00 0. -1.
         -1   -1    0    0    0  501 -0.00000000000E+00 -0.00000000000E+00 -0.18990294818E+03  0.18990294818E+03  0.00000000000E+00 0.  1.
         25    2    1    2    0    0 -0.17383467758E+03 -0.13513513221E+02  0.15242938474E+03  0.26321938153E+03  0.12509442559E+03 0.  0.
          5    1    3    3  502    0 -0.11120563737E+03  0.38509490040E+02  0.13628223948E+03  0.18011106519E+03  0.41800000000E+01 0.  1.
         -5    1    3    3    0  502 -0.62629040205E+02 -0.52023003261E+02  0.16147145265E+02  0.83108316344E+02  0.41800000000E+01 0.  1.
        -11    1    1    2    0    0  0.18297331878E+03  0.32154473362E+01 -0.55666816734E+02  0.19128086410E+03  0.00000000000E+00 0. -1.
         11    1    1    2    0    0 -0.91386411968E+01  0.10298065885E+02 -0.67391337179E+01  0.15329085007E+02  0.00000000000E+00 0.  1.
</event>
<event>
 7    1  0.2842702E-009  0.1229677E+03  0.7561462E-02  0.1238280E+00
         -2   -1    0    0    0  501 -0.00000000000E+00  0.00000000000E+00  0.94539162356E+01  0.94539162356E+01  0.00000000000E+00 0. -1.
          2   -1    0    0  501    0  0.00000000000E+00 -0.00000000000E+00 -0.16350275138E+04  0.16350275138E+04  0.00000000000E+00 0.  1.
         25    2    1    2    0    0 -0.43295356087E+02 -0.36821756239E+02 -0.97841870080E+03  0.98801585817E+03  0.12506739116E+03 0.  0.
          5    1    3    3  502    0 -0.58238663355E+02 -0.74741828236E+02 -0.74715002993E+03  0.75314588389E+03  0.41800000000E+01 0. -1.
         -5    1    3    3    0  502  0.14943307269E+02  0.37920071997E+02 -0.23126867087E+03  0.23486997428E+03  0.41800000000E+01 0. -1.
        -11    1    1    2    0    0  0.60406229106E+02  0.57418546214E+02 -0.49830131482E+03  0.50522272546E+03  0.00000000000E+00 0.  1.
         11    1    1    2    0    0 -0.17110873019E+02 -0.20596789975E+02 -0.14885358199E+03  0.15124284646E+03  0.00000000000E+00 0. -1.
</event>
<event>
 7    1  0.2842702E-009  0.1284527E+03  0.7561462E-02  0.1229770E+00
         -1   -1    0    0    0  501 -0.00000000000E+00  0.00000000000E+00  0.41264065770E+02  0.41264065770E+02  0.00000000000E+00 0.  1.
          1   -1    0    0  501    0  0.00000000000E+00 -0.00000000000E+00 -0.78959685089E+03  0.78959685089E+03  0.00000000000E+00 0. -1.
         25    2    1    2    0    0 -0.10256231047E+03  0.35738620702E+02 -0.18394082489E+03  0.24754262623E+03  0.12508736228E+03 0.  0.
          5    1    3    3  502    0 -0.27333896747E+02  0.20991923576E+02 -0.16480195664E+03  0.16841900154E+03  0.41800000000E+01 0. -1.
         -5    1    3    3    0  502 -0.75228413721E+02  0.14746697127E+02 -0.19138868250E+02  0.79123624695E+02  0.41800000000E+01 0. -1.
        -11    1    1    2    0    0 -0.17184861665E+02 -0.17067656709E+02 -0.63217083330E+02  0.67698035428E+02  0.00000000000E+00 0.  1.
         11    1    1    2    0    0  0.11974717213E+03 -0.18670963993E+02 -0.50117487690E+03  0.51562025500E+03  0.00000000000E+00 0. -1.
</event>
<event>
 7    1  0.2842702E-009  0.9758963E+02  0.7561462E-02  0.1285448E+00
          1   -1    0    0  501    0  0.00000000000E+00  0.00000000000E+00  0.27271783601E+03  0.27271783601E+03  0.00000000000E+00 0. -1.
         -1   -1    0    0    0  501 -0.00000000000E+00 -0.00000000000E+00 -0.84973084994E+02  0.84973084994E+02  0.00000000000E+00 0.  1.
         25    2    1    2    0    0  0.32030212074E+02 -0.14467471987E+02  0.22045289593E+03  0.25588825553E+03  0.12507628778E+03 0.  0.
          5    1    3    3  502    0  0.54713712063E+02 -0.38253058969E+02  0.21112433760E+03  0.22146748099E+03  0.41800000000E+01 0. -1.
         -5    1    3    3    0  502 -0.22683499989E+02  0.23785586982E+02  0.93285583301E+01  0.34420774546E+02  0.41800000000E+01 0. -1.
        -11    1    1    2    0    0 -0.41911550016E+02  0.45929988383E+02 -0.29027273178E+02  0.68620146064E+02  0.00000000000E+00 0.  1.
         11    1    1    2    0    0  0.98813379417E+01 -0.31462516396E+02 -0.36808717349E+01  0.33182519408E+02  0.00000000000E+00 0. -1.
</event>
<event>
 7    1  0.2842702E-009  0.1446679E+03  0.7561462E-02  0.1207182E+00
          2   -1    0    0  501    0  0.00000000000E+00  0.00000000000E+00  0.50827859587E+03  0.50827859587E+03  0.00000000000E+00 0. -1.
         -2   -1    0    0    0  501 -0.00000000000E+00 -0.00000000000E+00 -0.57507090971E+02  0.57507090971E+02  0.00000000000E+00 0.  1.
         25    2    1    2    0    0  0.49342957805E+00  0.12988238779E+03  0.20305290310E+03  0.27156572768E+03  0.12509110625E+03 0.  0.
          5    1    3    3  502    0  0.10300583991E+02  0.96122562870E+02  0.21370819257E+03  0.23459393235E+03  0.41800000000E+01 0.  1.
         -5    1    3    3    0  502 -0.98071544129E+01  0.33759824924E+02 -0.10655289468E+02  0.36971795334E+02  0.41800000000E+01 0.  1.
        -11    1    1    2    0    0  0.43841219348E+02 -0.71332316217E+02  0.11115541998E+03  0.13916134248E+03  0.00000000000E+00 0. -1.
         11    1    1    2    0    0 -0.44334648927E+02 -0.58550071577E+02  0.13656318182E+03  0.15505861667E+03  0.00000000000E+00 0.  1.
</event>
<event>
 7    1  0.2842702E-009  0.1290116E+03  0.7561462E-02  0.1228930E+00
         -3   -1    0    0    0  501 -0.00000000000E+00  0.00000000000E+00  0.95640752280E+02  0.95640752280E+02  0.00000000000E+00 0.  1.
          3   -1    0    0  501    0  0.00000000000E+00 -0.00000000000E+00 -0.20172988917E+03  0.20172988917E+03  0.00000000000E+00 0. -1.
         25    2    1    2    0    0  0.54682003438E+02  0.64863998723E+02 -0.45800089241E+02  0.15793413551E+03  0.12509229855E+03 0.  0.
          5    1    3    3  502    0  0.81292428860E+02  0.69708642392E+02 -0.30978240338E+01  0.10721391107E+03  0.41800000000E+01 0.  1.
         -5    1    3    3    0  502 -0.26610425422E+02 -0.48446436687E+01 -0.42702265208E+02  0.50720224440E+02  0.41800000000E+01 0.  1.
        -11    1    1    2    0    0 -0.71203721393E+02 -0.75544294119E+02 -0.59701165989E+02  0.11975449693E+03  0.00000000000E+00 0. -1.
         11    1    1    2    0    0  0.16521717955E+02  0.10680295396E+02 -0.58788166440E+00  0.19682009012E+02  0.00000000000E+00 0.  1.
</event>
<event>
 7    1  0.2842702E-009  0.7912783E+02  0.7561462E-02  0.1331545E+00
         -1   -1    0    0    0  501 -0.00000000000E+00  0.00000000000E+00  0.16570055465E+03  0.16570055465E+03  0.00000000000E+00 0.  1.
          1   -1    0    0  501    0  0.00000000000E+00 -0.00000000000E+00 -0.97331943327E+02  0.97331943327E+02  0.00000000000E+00 0. -1.
         25    2    1    2    0    0  0.55458127082E+01  0.56220777015E+02  0.27943994232E+01  0.13727968305E+03  0.12508545441E+03 0.  0.
          5    1    3    3  502    0  0.14956372205E+02  0.73477178436E+02  0.47087439747E+02  0.88641345896E+02  0.41800000000E+01 0. -1.
         -5    1    3    3    0  502 -0.94105594963E+01 -0.17256401421E+02 -0.44293040324E+02  0.48638337155E+02  0.41800000000E+01 0. -1.
        -11    1    1    2    0    0 -0.16491436788E+02 -0.41949869590E+02  0.86876339376E+02  0.97873680780E+02  0.00000000000E+00 0.  1.
         11    1    1    2    0    0  0.10945624080E+02 -0.14270907425E+02 -0.21302127482E+02  0.27879134141E+02  0.00000000000E+00 0. -1.
</event>
<event>
 7    1  0.2842702E-009  0.1245190E+03  0.7561462E-02  0.1235823E+00
          2   -1    0    0  501    0  0.00000000000E+00  0.00000000000E+00  0.52086115769E+03  0.52086115769E+03  0.00000000000E+00 0. -1.
         -2   -1    0    0    0  501 -0.00000000000E+00 -0.00000000000E+00 -0.36568808441E+02  0.36568808441E+02  0.00000000000E+00 0.  1.
         25    2    1    2    0    0  0.11639563779E+02  0.74189933533E+02  0.34761381171E+03  0.37699404111E+03  0.12509803861E+03 0.  0.
          5    1    3    3  502    0  0.46805053986E+02 -0.21996564366E+01  0.54345516279E+02  0.71878085024E+02  0.41800000000E+01 0. -1.
         -5    1    3    3    0  502 -0.35165490207E+02  0.76389589969E+02  0.29326829543E+03  0.30511595609E+03  0.41800000000E+01 0. -1.
        -11    1    1    2    0    0 -0.51288792971E+02 -0.35333566044E+02  0.72543320810E+02  0.95611372587E+02  0.00000000000E+00 0. -1.
         11    1    1    2    0    0  0.39649229192E+02 -0.38856367489E+02  0.64135216732E+02  0.84824552432E+02  0.00000000000E+00 0.  1.
</event>
<event>
 7    1  0.2842702E-009  0.1843983E+03  0.7561462E-02  0.1163613E+00
         -1   -1    0    0    0  501 -0.00000000000E+00  0.00000000000E+00  0.63940045837E+02  0.63940045837E+02  0.00000000000E+00 0.  1.
          1   -1    0    0  501    0  0.00000000000E+00 -0.00000000000E+00 -0.76590825239E+03  0.76590825239E+03  0.00000000000E+00 0. -1.
         25    2    1    2    0    0 -0.11730825868E+03  0.12792819962E+03 -0.51911946620E+03  0.56147783074E+03  0.12508190282E+03 0.  0.
          5    1    3    3  502    0 -0.58401259731E+02  0.18379260489E+02 -0.32603690053E+03  0.33176201902E+03  0.41800000000E+01 0.  1.
         -5    1    3    3    0  502 -0.58906998945E+02  0.10954893913E+03 -0.19308256567E+03  0.22971581172E+03  0.41800000000E+01 0.  1.
        -11    1    1    2    0    0  0.37097852758E+02 -0.68272592578E+01 -0.85666223435E+02  0.93603226365E+02  0.00000000000E+00 0. -1.
         11    1    1    2    0    0  0.80210405918E+02 -0.12110094037E+03 -0.97182516917E+02  0.17476724112E+03  0.00000000000E+00 0.  1.
</event>
<event>
 7    1  0.2842702E-009  0.1790300E+03  0.7561462E-02  0.1168745E+00
          2   -1    0    0  501    0  0.00000000000E+00  0.00000000000E+00  0.76866339875E+02  0.76866339875E+02  0.00000000000E+00 0. -1.
         -2   -1    0    0    0  501 -0.00000000000E+00 -0.00000000000E+00 -0.42004353544E+03  0.42004353544E+03  0.00000000000E+00 0.  1.
         25    2    1    2    0    0  0.12425909262E+03 -0.66887078712E+02 -0.16163876358E+03  0.24837248902E+03  0.12509036740E+03 0.  0.
          5    1    3    3  502    0 -0.19723147311E+02  0.12646154944E+02 -0.24726396145E+02  0.34319015735E+02  0.41800000000E+01 0.  1.
         -5    1    3    3    0  502  0.14398223993E+03 -0.79533233656E+02 -0.13691236743E+03  0.21405347329E+03  0.41800000000E+01 0.  1.
        -11    1    1    2    0    0 -0.52657319085E+02 -0.20708686178E+02 -0.58356166065E+02  0.81283977845E+02  0.00000000000E+00 0. -1.
         11    1    1    2    0    0 -0.71601773532E+02  0.87595764889E+02 -0.12318226592E+03  0.16725340845E+03  0.00000000000E+00 0.  1.
</event>
<event>
 7    1  0.2842702E-009  0.8345238E+02  0.7561462E-02  0.1319530E+00
         -2   -1    0    0    0  501 -0.00000000000E+00  0.00000000000E+00  0.24411378622E+02  0.24411378622E+02  0.00000000000E+00 0.  1.
          2   -1    0    0  501    0  0.00000000000E+00 -0.00000000000E+00 -0.44358569355E+03  0.44358569355E+03  0.00000000000E+00 0. -1.
         25    2    1    2    0    0  0.31343768529E+01 -0.29152797014E+02 -0.30547438109E+03  0.33139347405E+03  0.12508927710E+03 0.  0.
          5    1    3    3  502    0  0.51865026249E+02 -0.46054626613E+00 -0.59844753654E+02  0.79303593806E+02  0.41800000000E+01 0.  1.
         -5    1    3    3    0  502 -0.48730649396E+02 -0.28692250748E+02 -0.24562962744E+03  0.25208988024E+03  0.41800000000E+01 0.  1.
        -11    1    1    2    0    0 -0.21275472507E+02  0.33337238855E+02 -0.11094567846E+03  0.11778353363E+03  0.00000000000E+00 0. -1.
         11    1    1    2    0    0  0.18141095655E+02 -0.41844418406E+01 -0.27542553764E+01  0.18820064499E+02  0.00000000000E+00 0.  1.
</event>
<event>
 7    1  0.2842702E-009  0.1934493E+03  0.7561462E-02  0.1155387E+00
         -2   -1    0    0    0  501 -0.00000000000E+00  0.00000000000E+00  0.30992324131E+02  0.30992324131E+02  0.00000000000E+00 0.  1.
          2   -1    0    0  501    0  0.00000000000E+00 -0.00000000000E+00 -0.15049530230E+04  0.15049530230E+04  0.00000000000E+00 0. -1.
         25    2    1    2    0    0  0.16034520257E+03  0.74042193765E+02 -0.98421688034E+03  0.10077305485E+04  0.12508061540E+03 0.  0.
          5    1    3    3  502    0  0.13818218752E+03  0.91271933361E+02 -0.94448541266E+03  0.95890304510E+03  0.41800000000E+01 0.  1.
         -5    1    3    3    0  502  0.22163015052E+02 -0.17229739595E+02 -0.39731467678E+02  0.48827503382E+02  0.41800000000E+01 0.  1.
        -11    1    1    2    0    0 -0.25976924697E+01 -0.28571045721E+02 -0.12463900590E+03  0.12789814092E+03  0.00000000000E+00 0. -1.
         11    1    1    2    0    0 -0.15774751010E+03 -0.45471148045E+02 -0.36510481260E+03  0.40031665770E+03  0.00000000000E+00 0.  1.
</event>
<event>
 7    1  0.2873052E-009  0.1119140E+03  0.7561462E-02  0.1257066E+00
          1   -1    0    0  501    0  0.00000000000E+00  0.00000000000E+00  0.65932262714E+03  0.65932262714E+03  0.00000000000E+00 0. -1.
         -1   -1    0    0    0  501 -0.00000000000E+00 -0.00000000000E+00 -0.25275445730E+02  0.25275445730E+02  0.00000000000E+00 0.  1.
         25    2    1    2    0    0 -0.45375357355E+02  0.94309885810E+00  0.21139556170E+03  0.24978895244E+03  0.12508646916E+03 0.  0.
          5    1    3    3  502    0 -0.49604957985E+01  0.54416053854E+02  0.46965644723E+02  0.72173108703E+02  0.41800000000E+01 0. -1.
         -5    1    3    3    0  502 -0.40414861556E+02 -0.53472954996E+02  0.16442991698E+03  0.17761584374E+03  0.41800000000E+01 0. -1.
        -11    1    1    2    0    0  0.23534524058E+01  0.41422205967E+02  0.18671499204E+03  0.19126898896E+03  0.00000000000E+00 0.  1.
         11    1    1    2    0    0  0.43021904949E+02 -0.42365304825E+02  0.23593662767E+03  0.24354013146E+03  0.00000000000E+00 0. -1.
</event>
<event>
 7    1  0.2842702E-009  0.1178260E+03  0.7561462E-02  0.1246727E+00
          1   -1    0    0  501    0  0.00000000000E+00  0.00000000000E+00  0.25436947631E+02  0.25436947631E+02  0.00000000000E+00 0. -1.
         -1   -1    0    0    0  501 -0.00000000000E+00 -0.00000000000E+00 -0.69915484892E+03  0.69915484892E+03  0.00000000000E+00 0.  1.
         25    2    1    2    0    0 -0.29723246548E+02 -0.48569009152E+02 -0.51412782705E+03  0.53218167145E+03  0.12508992300E+03 0.  0.
          5    1    3    3  502    0 -0.24115746330E+02  0.40788499848E+02 -0.16352049486E+03  0.17029884199E+03  0.41800000000E+01 0. -1.
         -5    1    3    3    0  502 -0.56075002179E+01 -0.89357509001E+02 -0.35060733219E+03  0.36188282946E+03  0.41800000000E+01 0. -1.
        -11    1    1    2    0    0  0.15469118137E+01  0.65541400130E+02 -0.13878206286E+03  0.15348787913E+03  0.00000000000E+00 0. -1.
         11    1    1    2    0    0  0.28176334735E+02 -0.16972390978E+02 -0.20808011375E+02  0.38922245978E+02  0.00000000000E+00 0.  1.
</event>
<event>
 7    1  0.2842702E-009  0.1816776E+03  0.7561462E-02  0.1166189E+00
         -1   -1    0    0    0  501 -0.00000000000E+00  0.00000000000E+00  0.88140458690E+03  0.88140458690E+03  0.00000000000E+00 0.  1.
          1   -1    0    0  501    0  0.00000000000E+00 -0.00000000000E+00 -0.42724098846E+02  0.42724098846E+02  0.00000000000E+00 0. -1.
         25    2    1    2    0    0  0.14528756752E+03 -0.60432580363E+02  0.50833944184E+03  0.54663998212E+03  0.12508280410E+03 0.  0.
          5    1    3    3  502    0  0.47113650726E+02  0.38540396812E+02  0.17354182298E+03  0.18395460036E+03  0.41800000000E+01 0. -1.
         -5    1    3    3    0  502  0.98173916796E+02 -0.98972977175E+02  0.33479761886E+03  0.36268538176E+03  0.41800000000E+01 0. -1.
        -11    1    1    2    0    0 -0.11068873038E+03  0.64382929757E+02  0.31383024006E+03  0.33894922371E+03  0.00000000000E+00 0.  1.
         11    1    1    2    0    0 -0.34598837142E+02 -0.39503493943E+01  0.16510806152E+02  0.38539479909E+02  0.00000000000E+00 0. -1.
</event>
<event>
 7    1  0.2842702E-009  0.1080042E+03  0.7561462E-02  0.1264311E+00
         -1   -1    0    0    0  501 -0.00000000000E+00  0.00000000000E+00  0.31496434023E+02  0.31496434023E+02  0.00000000000E+00 0.  1.
          1   -1    0    0  501    0  0.00000000000E+00 -0.00000000000E+00 -0.44309603097E+03  0.44309603097E+03  0.00000000000E+00 0. -1.
         25    2    1    2    0    0  0.23171147833E+02  0.35629774247E+02 -0.27235695794E+03  0.30271003468E+03  0.12509464278E+03 0.  0.
          5    1    3    3  502    0 -0.10382238350E+02  0.68002289683E+02 -0.22812225886E+03  0.23830513981E+03  0.41800000000E+01 0. -1.
         -5    1    3    3    0  502  0.33553386183E+02 -0.32372515436E+02 -0.44234699084E+02  0.64404894869E+02  0.41800000000E+01 0. -1.
        -11    1    1    2    0    0  0.15703351449E+02  0.24248606336E+02 -0.32708951696E+02  0.43640184200E+02  0.00000000000E+00 0. -1.
         11    1    1    2    0    0 -0.38874499282E+02 -0.59878380583E+02 -0.10653368731E+03  0.12824224611E+03  0.00000000000E+00 0.  1.
</event>
<event>
 7    1  0.2842702E-009  0.1313400E+03  0.7561462E-02  0.1225481E+00
         -1   -1    0    0    0  501 -0.00000000000E+00  0.00000000000E+00  0.22121810936E+03  0.22121810936E+03  0.00000000000E+00 0.  1.
          1   -1    0    0  501    0  0.00000000000E+00 -0.00000000000E+00 -0.81438738240E+02  0.81438738240E+02  0.00000000000E+00 0. -1.
         25    2    1    2    0    0 -0.24343792842E+02 -0.73031709607E+02  0.69227470517E+02  0.16237677442E+03  0.12509006091E+03 0.  0.
          5    1    3    3  502    0  0.35763312460E+02 -0.74624151504E+02  0.57811746102E+02  0.10103192017E+03  0.41800000000E+01 0. -1.
         -5    1    3    3    0  502 -0.60107105302E+02  0.15924418964E+01  0.11415724415E+02  0.61344854250E+02  0.41800000000E+01 0. -1.
        -11    1    1    2    0    0 -0.20903698023E+02 -0.11361717746E+02  0.52183456827E+01  0.24357429110E+02  0.00000000000E+00 0. -1.
         11    1    1    2    0    0  0.45247490865E+02  0.84393427354E+02  0.65333554921E+02  0.11592264407E+03  0.00000000000E+00 0.  1.
</event>
<event>
 7    1  0.2842702E-009  0.1059380E+03  0.7561462E-02  0.1268282E+00
          1   -1    0    0  501    0  0.00000000000E+00  0.00000000000E+00  0.53009507201E+03  0.53009507201E+03  0.00000000000E+00 0. -1.
         -1   -1    0    0    0  501 -0.00000000000E+00 -0.00000000000E+00 -0.44650616988E+02  0.44650616988E+02  0.00000000000E+00 0.  1.
         25    2    1    2    0    0 -0.51239495399E+02 -0.79223515261E+02  0.34235831554E+03  0.37650786424E+03  0.12508838617E+03 0.  0.
          5    1    3    3  502    0  0.47282180005E+01  0.64374793967E+01  0.20488245550E+03  0.20508069182E+03  0.41800000000E+01 0.  1.
         -5    1    3    3    0  502 -0.55967713399E+02 -0.85660994658E+02  0.13747586004E+03  0.17142717242E+03  0.41800000000E+01 0.  1.
        -11    1    1    2    0    0  0.30299094088E+02  0.72307112454E+02  0.31494901264E+02  0.84488356710E+02  0.00000000000E+00 0.  1.
         11    1    1    2    0    0  0.20940401311E+02  0.69164028077E+01  0.11159123822E+03  0.11374946805E+03  0.00000000000E+00 0. -1.
</event>
<event>
 7    1  0.2842702E-009  0.1225617E+03  0.7561462E-02  0.1238930E+00
          1   -1    0    0  501    0  0.00000000000E+00  0.00000000000E+00  0.29421004371E+03  0.29421004371E+03  0.00000000000E+00 0. -1.
         -1   -1    0    0    0  501 -0.00000000000E+00 -0.00000000000E+00 -0.82378565977E+02  0.82378565977E+02  0.00000000000E+00 0.  1.
         25    2    1    2    0    0 -0.15561164034E+02  0.10257453579E+03  0.16330042953E+03  0.23038716523E+03  0.12509008914E+03 0.  0.
          5    1    3    3  502    0 -0.52199253511E+01  0.98519497779E+02  0.40037638709E+02  0.10655432406E+03  0.41800000000E+01 0. -1.
         -5    1    3    3    0  502 -0.10341238683E+02  0.40550380114E+01  0.12326279082E+03  0.12383284117E+03  0.41800000000E+01 0. -1.
        -11    1    1    2    0    0  0.50066342783E+02 -0.75763935569E+02  0.47518108159E+02  0.10249284470E+03  0.00000000000E+00 0. -1.
         11    1    1    2    0    0 -0.34505178749E+02 -0.26810600221E+02  0.10129400438E+01  0.43708599751E+02  0.00000000000E+00 0.  1.
</event>
<event>
 7    1  0.2842702E-009  0.1168538E+03  0.7561462E-02  0.1248379E+00
          2   -1    0    0  501    0  0.00000000000E+00  0.00000000000E+00  0.18246203739E+03  0.18246203739E+03  0.00000000000E+00 0. -1.
         -2   -1    0    0    0  501 -0.00000000000E+00 -0.00000000000E+00 -0.12141975537E+03  0.12141975537E+03  0.00000000000E+00 0.  1.
         25    2    1    2    0    0 -0.78179884506E+02 -0.32895482765E+02 -0.24674865852E+02  0.15313498085E+03  0.12508903321E+03 0.  0.
          5    1    3    3  502    0  0.11998986357E+02 -0.22659184188E+02  0.35625019077E+02  0.44091140674E+02  0.41800000000E+01 0. -1.
         -5    1    3    3    0  502 -0.90178870864E+02 -0.10236298577E+02 -0.60299884930E+02  0.10904384018E+03  0.41800000000E+01 0. -1.
        -11    1    1    2    0    0  0.11360440455E+02  0.47194416647E+02  0.61279011152E+02  0.78176017920E+02  0.00000000000E+00 0. -1.
         11    1    1    2    0    0  0.66819444051E+02 -0.14298933882E+02  0.24438136720E+02  0.72570793986E+02  0.00000000000E+00 0.  1.
</event>
<event>
 7    1  0.2842702E-009  0.1112319E+03  0.7561462E-02  0.1258305E+00
         -1   -1    0    0    0  501 -0.00000000000E+00  0.00000000000E+00  0.68560881673E+03  0.68560881673E+03  0.00000000000E+00 0.  1.
          1   -1    0    0  501    0  0.00000000000E+00 -0.00000000000E+00 -0.20498107070E+02  0.20498107070E+02  0.00000000000E+00 0. -1.
         25    2    1    2    0    0  0.37285627445E+02  0.47857010018E+02  0.31513306440E+03  0.34443745321E+03  0.12509116464E+03 0.  0.
          5    1    3    3  502    0  0.58564810640E+01 -0.39095979087E+02  0.14955166689E+03  0.15474484619E+03  0.41800000000E+01 0.  1.
         -5    1    3    3    0  502  0.31429146381E+02  0.86952989105E+02  0.16558139751E+03  0.18969260702E+03  0.41800000000E+01 0.  1.
        -11    1    1    2    0    0 -0.21283593499E+02  0.14517694823E+02  0.12662234618E+03  0.12921676891E+03  0.00000000000E+00 0.  1.
         11    1    1    2    0    0 -0.16002033946E+02 -0.62374704841E+02  0.22335529909E+03  0.23245270169E+03  0.00000000000E+00 0. -1.
</event>
<event>
 7    1  0.2842702E-009  0.5644377E+02  0.7561462E-02  0.1413392E+00
          2   -1    0    0  501    0  0.00000000000E+00  0.00000000000E+00  0.26242112840E+03  0.26242112840E+03  0.00000000000E+00 0.  1.
         -2   -1    0    0    0  501 -0.00000000000E+00 -0.00000000000E+00 -0.47451513153E+02  0.47451513153E+02  0.00000000000E+00 0. -1.
         25    2    1    2    0    0 -0.82994865307E+01  0.12384277833E+02  0.15438832532E+03  0.19926281830E+03  0.12509062294E+03 0.  0.
          5    1    3    3  502    0  0.27112987023E+02 -0.19095330489E+02 -0.42066841776E+01  0.33688489185E+02  0.41800000000E+01 0.  1.
         -5    1    3    3    0  502 -0.35412473554E+02  0.31479608322E+02  0.15859500950E+03  0.16557432912E+03  0.41800000000E+01 0.  1.
        -11    1    1    2    0    0 -0.41634937490E+01 -0.17820333007E+02 -0.21027721580E+02  0.27875868121E+02  0.00000000000E+00 0. -1.
         11    1    1    2    0    0  0.12462980280E+02  0.54360551744E+01  0.81609011504E+02  0.82733955133E+02  0.00000000000E+00 0.  1.
</event>
<event>
 7    1  0.2842702E-009  0.1425491E+03  0.7561462E-02  0.1209940E+00
          2   -1    0    0  501    0  0.00000000000E+00  0.00000000000E+00  0.37093352810E+03  0.37093352810E+03  0.00000000000E+00 0. -1.
         -2   -1    0    0    0  501 -0.00000000000E+00 -0.00000000000E+00 -0.65452299582E+02  0.65452299582E+02  0.00000000000E+00 0.  1.
         25    2    1    2    0    0 -0.25449891370E+02  0.99624309972E+02  0.22352102387E+03  0.27601044798E+03  0.12508964454E+03 0.  0.
          5    1    3    3  502    0 -0.63915466550E+02  0.22597311132E+02  0.14181560570E+03  0.15724173668E+03  0.41800000000E+01 0. -1.
         -5    1    3    3    0  502  0.38465575180E+02  0.77026998840E+02  0.81705418169E+02  0.11876871129E+03  0.41800000000E+01 0. -1.
        -11    1    1    2    0    0 -0.16233514299E+02  0.60933765777E+01  0.31670272436E+02  0.36106265119E+02  0.00000000000E+00 0. -1.
         11    1    1    2    0    0  0.41683405670E+02 -0.10571768655E+03  0.50289932208E+02  0.12426911458E+03  0.00000000000E+00 0.  1.
</event>
<event>
 7    1  0.2842702E-009  0.1126880E+03  0.7561462E-02  0.1255672E+00
         -1   -1    0    0    0  501 -0.00000000000E+00  0.00000000000E+00  0.55565239483E+03  0.55565239483E+03  0.00000000000E+00 0.  1.
          1   -1    0    0  501    0  0.00000000000E+00 -0.00000000000E+00 -0.32309942522E+02  0.32309942522E+02  0.00000000000E+00 0. -1.
         25    2    1    2    0    0 -0.46849815290E+02  0.55737664649E+02  0.22525475489E+03  0.26774811474E+03  0.12509099045E+03 0.  0.
          5    1    3    3  502    0  0.16552069957E+02 -0.28581908759E+02  0.91344802913E+02  0.97222641126E+02  0.41800000000E+01 0. -1.
         -5    1    3    3    0  502 -0.63401885247E+02  0.84319573408E+02  0.13390995198E+03  0.17052547362E+03  0.41800000000E+01 0. -1.
        -11    1    1    2    0    0  0.59949006980E+00 -0.36349626533E+02  0.29030934846E+02  0.46523648991E+02  0.00000000000E+00 0. -1.
         11    1    1    2    0    0  0.46250325220E+02 -0.19388038116E+02  0.26905676257E+03  0.27369057362E+03  0.00000000000E+00 0.  1.
</event>
<event>
 7    1  0.2842702E-009  0.1348511E+03  0.7561462E-02  0.1220430E+00
          1   -1    0    0  501    0  0.00000000000E+00  0.00000000000E+00  0.12377220467E+03  0.12377220467E+03  0.00000000000E+00 0. -1.
         -1   -1    0    0    0  501 -0.00000000000E+00 -0.00000000000E+00 -0.18191725607E+03  0.18191725607E+03  0.00000000000E+00 0.  1.
         25    2    1    2    0    0  0.74235440875E+02  0.51683922062E+02  0.18752825870E+02  0.15550416145E+03  0.12509095599E+03 0.  0.
          5    1    3    3  502    0  0.81310853297E+02  0.80701157380E+02 -0.83718003069E+01  0.11494212068E+03  0.41800000000E+01 0. -1.
         -5    1    3    3    0  502 -0.70754124221E+01 -0.29017235318E+02  0.27124626177E+02  0.40562040773E+02  0.41800000000E+01 0. -1.
        -11    1    1    2    0    0 -0.38461639386E+02  0.21054468404E+02 -0.45689879318E+02  0.63325772132E+02  0.00000000000E+00 0.  1.
         11    1    1    2    0    0 -0.35773801489E+02 -0.72738390466E+02 -0.31207997957E+02  0.86859527152E+02  0.00000000000E+00 0. -1.
</event>
<event>
 7    1  0.2842702E-009  0.1169073E+03  0.7561462E-02  0.1248288E+00
          1   -1    0    0  501    0  0.00000000000E+00  0.00000000000E+00  0.95506842350E+02  0.95506842350E+02  0.00000000000E+00 0. -1.
         -1   -1    0    0    0  501 -0.00000000000E+00 -0.00000000000E+00 -0.19781485883E+03  0.19781485883E+03  0.00000000000E+00 0.  1.
         25    2    1    2    0    0 -0.83329977051E+02  0.90931366846E+01 -0.45139232216E+02  0.15719940452E+03  0.12509009668E+03 0.  0.
          5    1    3    3  502    0  0.24412420693E+02 -0.26110548017E+02 -0.19423811459E+02  0.40896012684E+02  0.41800000000E+01 0. -1.
         -5    1    3    3    0  502 -0.10774239774E+03  0.35203684702E+02 -0.25715420757E+02  0.11630339184E+03  0.41800000000E+01 0. -1.
        -11    1    1    2    0    0  0.23911516872E+02  0.18507281455E+01 -0.70313404186E+02  0.74291053580E+02  0.00000000000E+00 0.  1.
         11    1    1    2    0    0  0.59418460179E+02 -0.10943864830E+02  0.13144619924E+02  0.61831243077E+02  0.00000000000E+00 0. -1.
</event>
<event>
 7    1  0.2842702E-009  0.2070130E+03  0.7561462E-02  0.1143953E+00
         -1   -1    0    0    0  501 -0.00000000000E+00  0.00000000000E+00  0.27343853734E+03  0.27343853734E+03  0.00000000000E+00 0.  1.
          1   -1    0    0  501    0  0.00000000000E+00 -0.00000000000E+00 -0.20843659598E+03  0.20843659598E+03  0.00000000000E+00 0. -1.
         25    2    1    2    0    0  0.60025750046E+02  0.17927038165E+03  0.13086349251E+03  0.26175262208E+03  0.12509284987E+03 0.  0.
          5    1    3    3  502    0 -0.31924120852E+02  0.13098000516E+02  0.84716950505E+01  0.35776376657E+02  0.41800000000E+01 0.  1.
         -5    1    3    3    0  502  0.91949870897E+02  0.16617238113E+03  0.12239179746E+03  0.22597624542E+03  0.41800000000E+01 0.  1.
        -11    1    1    2    0    0 -0.10999271862E+02 -0.46186159023E+02 -0.62197876675E+02  0.78247818689E+02  0.00000000000E+00 0. -1.
         11    1    1    2    0    0 -0.49026478184E+02 -0.13308422263E+03 -0.36636744733E+01  0.14187469255E+03  0.00000000000E+00 0.  1.
</event>
<event>
 7    1  0.2842702E-009  0.1330219E+03  0.7561462E-02  0.1223039E+00
          1   -1    0    0  501    0  0.00000000000E+00  0.00000000000E+00  0.12525501588E+03  0.12525501588E+03  0.00000000000E+00 0. -1.
         -1   -1    0    0    0  501 -0.00000000000E+00 -0.00000000000E+00 -0.14851463696E+03  0.14851463696E+03  0.00000000000E+00 0.  1.
         25    2    1    2    0    0 -0.80854626088E+02 -0.11935852734E+02 -0.30081109358E+02  0.15242159469E+03  0.12509010452E+03 0.  0.
          5    1    3    3  502    0 -0.67616083247E+02 -0.62679145727E+02 -0.36853446084E+02  0.99379368638E+02  0.41800000000E+01 0. -1.
         -5    1    3    3    0  502 -0.13238542840E+02  0.50743292993E+02  0.67723367254E+01  0.53042226057E+02  0.41800000000E+01 0. -1.
        -11    1    1    2    0    0 -0.63225875635E+01  0.31223162125E+02  0.98266070033E+00  0.31872034586E+02  0.00000000000E+00 0.  1.
         11    1    1    2    0    0  0.87177213651E+02 -0.19287309392E+02  0.58388275780E+01  0.89476023554E+02  0.00000000000E+00 0. -1.
</event>
<event>
 7    1  0.2842702E-009  0.7215994E+02  0.7561462E-02  0.1352898E+00
         -1   -1    0    0    0  501 -0.00000000000E+00  0.00000000000E+00  0.13741349947E+03  0.13741349947E+03  0.00000000000E+00 0.  1.
          1   -1    0    0  501    0  0.00000000000E+00 -0.00000000000E+00 -0.13196344113E+03  0.13196344113E+03  0.00000000000E+00 0. -1.
         25    2    1    2    0    0 -0.29677814367E+02  0.45012435718E+02  0.60419036709E+02  0.14901510706E+03  0.12509256613E+03 0.  0.
          5    1    3    3  502    0  0.25469366201E+01 -0.36269910921E+01 -0.35852061876E+02  0.36365982611E+02  0.41800000000E+01 0.  1.
         -5    1    3    3    0  502 -0.32224750987E+02  0.48639426810E+02  0.96271098585E+02  0.11264912445E+03  0.41800000000E+01 0.  1.
        -11    1    1    2    0    0  0.32448849435E+02 -0.57995976546E+02 -0.27841439820E+01  0.66514754625E+02  0.00000000000E+00 0.  1.
         11    1    1    2    0    0 -0.27710350676E+01  0.12983540828E+02 -0.52184834388E+02  0.53847078917E+02  0.00000000000E+00 0. -1.
</event>
<event>
 7    1  0.2842702E-009  0.1232492E+03  0.7561462E-02  0.1237831E+00
         -1   -1    0    0    0  501 -0.00000000000E+00  0.00000000000E+00  0.58343391627E+02  0.58343391627E+02  0.00000000000E+00 0. -1.
          1   -1    0    0  501    0  0.00000000000E+00 -0.00000000000E+00 -0.32009584151E+03  0.32009584151E+03  0.00000000000E+00 0.  1.
         25    2    1    2    0    0  0.59368945762E+02  0.54552560109E+02 -0.12940116231E+03  0.19721016709E+03  0.12508611299E+03 0.  0.
          5    1    3    3  502    0 -0.24609830511E+02  0.19182456960E+02  0.78177688465E+01  0.32437637438E+02  0.41800000000E+01 0.  1.
         -5    1    3    3    0  502  0.83978776273E+02  0.35370103149E+02 -0.13721893115E+03  0.16477252965E+03  0.41800000000E+01 0.  1.
        -11    1    1    2    0    0 -0.67102479820E+02 -0.75771732941E+02 -0.10883509651E+03  0.14862427979E+03  0.00000000000E+00 0. -1.
         11    1    1    2    0    0  0.77335340585E+01  0.21219172831E+02 -0.23516191072E+02  0.32604786262E+02  0.00000000000E+00 0.  1.
</event>
<event>
 7    1  0.2842702E-009  0.1239080E+03  0.7561462E-02  0.1236786E+00
          1   -1    0    0  501    0  0.00000000000E+00  0.00000000000E+00  0.72592422230E+03  0.72592422230E+03  0.00000000000E+00 0. -1.
         -1   -1    0    0    0  501 -0.00000000000E+00 -0.00000000000E+00 -0.42739841448E+02  0.42739841448E+02  0.00000000000E+00 0.  1.
         25    2    1    2    0    0 -0.45986161564E+02  0.10006382501E+03  0.54403836660E+03  0.56899321534E+03  0.12509212064E+03 0.  0.
          5    1    3    3  502    0 -0.66266378217E+02  0.95133463000E+02  0.53207567999E+03  0.54457654219E+03  0.41800000000E+01 0. -1.
         -5    1    3    3    0  502  0.20280216654E+02  0.49303620120E+01  0.11962686606E+02  0.24416673154E+02  0.41800000000E+01 0. -1.
        -11    1    1    2    0    0  0.20099827941E+02 -0.54858653341E+02  0.85224862579E+01  0.59043269741E+02  0.00000000000E+00 0.  1.
         11    1    1    2    0    0  0.25886333622E+02 -0.45205171671E+02  0.13062352799E+03  0.14062757866E+03  0.00000000000E+00 0. -1.
</event>
<event>
 7    1  0.4122990E-009  0.1805479E+03  0.7561462E-02  0.1167274E+00
         -2   -1    0    0    0  501 -0.00000000000E+00  0.00000000000E+00  0.70063881945E+02  0.70063881945E+02  0.00000000000E+00 0.  1.
          2   -1    0    0  501    0  0.00000000000E+00 -0.00000000000E+00 -0.64227229185E+03  0.64227229185E+03  0.00000000000E+00 0. -1.
         25    2    1    2    0    0 -0.43047600898E+02  0.17161662943E+03 -0.22638525471E+03  0.31336694229E+03  0.12507275297E+03 0.  0.
          5    1    3    3  502    0 -0.25369146611E+01  0.35887161355E+02 -0.14604555406E+03  0.15046960008E+03  0.41800000000E+01 0. -1.
         -5    1    3    3    0  502 -0.40510686237E+02  0.13572946807E+03 -0.80339700648E+02  0.16289734222E+03  0.41800000000E+01 0. -1.
        -11    1    1    2    0    0  0.44432433875E+02 -0.79750820791E+02 -0.94573791374E+02  0.13144822788E+03  0.00000000000E+00 0. -1.
         11    1    1    2    0    0 -0.13848329771E+01 -0.91865808634E+02 -0.25124936382E+03  0.26752100362E+03  0.00000000000E+00 0.  1.
</event>
<event>
 7    1  0.2842702E-009  0.9352876E+02  0.7561462E-02  0.1294524E+00
         -2   -1    0    0    0  501 -0.00000000000E+00  0.00000000000E+00  0.10072714449E+03  0.10072714449E+03  0.00000000000E+00 0. -1.
          2   -1    0    0  501    0  0.00000000000E+00 -0.00000000000E+00 -0.20287236035E+03  0.20287236035E+03  0.00000000000E+00 0.  1.
         25    2    1    2    0    0  0.47440213781E+02  0.69341520096E+00  0.29563150927E+02  0.13701477653E+03  0.12509202368E+03 0.  0.
          5    1    3    3  502    0  0.76697554152E+02  0.37712141191E+02  0.26357194014E+02  0.89537112319E+02  0.41800000000E+01 0.  1.
         -5    1    3    3    0  502 -0.29257340371E+02 -0.37018725990E+02  0.32059569129E+01  0.47477664214E+02  0.41800000000E+01 0.  1.
        -11    1    1    2    0    0 -0.35263679850E+02 -0.12250019901E+02 -0.14204599396E+03  0.14686951524E+03  0.00000000000E+00 0.  1.
         11    1    1    2    0    0 -0.12176533931E+02  0.11556604700E+02  0.10337627178E+02  0.19715213071E+02  0.00000000000E+00 0. -1.
</event>
<event>
 6    1  0.2842702E-009  0.1103918E+03  0.7561462E-02  0.1259846E+00
          2   -1    0    0  501    0  0.00000000000E+00  0.00000000000E+00  0.66540764553E+02  0.66540764553E+02  0.00000000000E+00 0. -1.
         -2   -1    0    0    0  501 -0.00000000000E+00 -0.00000000000E+00 -0.25101160842E+03  0.25101160842E+03  0.00000000000E+00 0.  1.
          5    1    1    2  502    0 -0.79069074028E+02  0.34424719762E+02 -0.48030920732E+02  0.98799906603E+02  0.41800000000E+01 0.  1.
         -5    1    1    2    0  502  0.38183135961E+02  0.15991825103E+02 -0.86938276164E+02  0.96381671516E+02  0.41800000000E+01 0.  1.
        -11    1    1    2    0    0 -0.20827515827E+01 -0.49820766893E+02  0.80871774254E+01  0.50515830258E+02  0.00000000000E+00 0. -1.
         11    1    1    2    0    0  0.42968689650E+02 -0.59577797216E+00 -0.57588824394E+02  0.71854964593E+02  0.00000000000E+00 0.  1.
</event>
<event>
 7    1  0.2842702E-009  0.8644936E+02  0.7561462E-02  0.1311685E+00
          1   -1    0    0  501    0  0.00000000000E+00  0.00000000000E+00  0.28230871675E+03  0.28230871675E+03  0.00000000000E+00 0. -1.
         -1   -1    0    0    0  501 -0.00000000000E+00 -0.00000000000E+00 -0.51154722730E+02  0.51154722730E+02  0.00000000000E+00 0.  1.
         25    2    1    2    0    0 -0.14455953536E+02 -0.46572291043E+02  0.15337590585E+03  0.20383690720E+03  0.12508942144E+03 0.  0.
          5    1    3    3  502    0 -0.32262860597E+02 -0.43280695074E+02  0.17030059406E+03  0.17870051896E+03  0.41800000000E+01 0. -1.
         -5    1    3    3    0  502  0.17806907061E+02 -0.32915959688E+01 -0.16924688203E+02  0.25136388242E+02  0.41800000000E+01 0. -1.
        -11    1    1    2    0    0  0.46371522877E+02  0.49853725667E+02  0.36207649046E+02  0.77114887967E+02  0.00000000000E+00 0.  1.
         11    1    1    2    0    0 -0.31915569341E+02 -0.32814346241E+01  0.41570439118E+02  0.52511644309E+02  0.00000000000E+00 0. -1.
</event>
<event>
 7    1  0.2842702E-009  0.1031210E+03  0.7561462E-02  0.1273866E+00
         -1   -1    0    0    0  501 -0.00000000000E+00  0.00000000000E+00  0.16976640812E+03  0.16976640812E+03  0.00000000000E+00 0.  1.
          1   -1    0    0  501    0  0.00000000000E+00 -0.00000000000E+00 -0.98892276184E+02  0.98892276184E+02  0.00000000000E+00 0. -1.
         25    2    1    2    0    0 -0.36301876078E+02 -0.67155144561E+01 -0.21899195565E+02  0.13224839254E+03  0.12508852154E+03 0.  0.
          5    1    3    3  502    0  0.45078704777E+02 -0.85974622549E+00  0.65228745883E+01  0.45747667491E+02  0.41800000000E+01 0. -1.
         -5    1    3    3    0  502 -0.81380580855E+02 -0.58557682306E+01 -0.28422070153E+02  0.86500725047E+02  0.41800000000E+01 0. -1.
        -11    1    1    2    0    0  0.12524616519E+02  0.37976065384E+02  0.50623655731E+01  0.40307258729E+02  0.00000000000E+00 0. -1.
         11    1    1    2    0    0  0.23777259559E+02 -0.31260550928E+02  0.87710961926E+02  0.96103033035E+02  0.00000000000E+00 0.  1.
</event>
<event>
 7    1  0.2842702E-009  0.1201002E+03  0.7561462E-02  0.1242932E+00
          2   -1    0    0  501    0  0.00000000000E+00  0.00000000000E+00  0.70978801340E+02  0.70978801340E+02  0.00000000000E+00 0. -1.
         -2   -1    0    0    0  501 -0.00000000000E+00 -0.00000000000E+00 -0.28259484831E+03  0.28259484831E+03  0.00000000000E+00 0.  1.
         25    2    1    2    0    0 -0.80628246341E+02  0.33588803485E+02 -0.13518417847E+03  0.20384053715E+03  0.12508829141E+03 0.  0.
          5    1    3    3  502    0 -0.81479878536E+02 -0.14993090019E+01 -0.14567269867E+03  0.16697073417E+03  0.41800000000E+01 0. -1.
         -5    1    3    3    0  502  0.85163219432E+00  0.35088112487E+02  0.10488520201E+02  0.36869802973E+02  0.41800000000E+01 0. -1.
        -11    1    1    2    0    0 -0.18353604107E+02 -0.12047510756E+02  0.13811529491E+01  0.21997838135E+02  0.00000000000E+00 0.  1.
         11    1    1    2    0    0  0.98981850448E+02 -0.21541292729E+02 -0.77813021456E+02  0.12773527437E+03  0.00000000000E+00 0. -1.
</event>
<event>
 7    1  0.4151057E-009  0.9210694E+02  0.7561462E-02  0.1297828E+00
          2   -1    0    0  501    0  0.00000000000E+00  0.00000000000E+00  0.55705532404E+03  0.55705532404E+03  0.00000000000E+00 0. -1.
         -2   -1    0    0    0  501 -0.00000000000E+00 -0.00000000000E+00 -0.32940512978E+02  0.32940512978E+02  0.00000000000E+00 0.  1.
         25    2    1    2    0    0  0.15795331865E+02  0.67983321565E+02  0.37898031012E+03  0.40514702333E+03  0.12508721174E+03 0.  0.
          5    1    3    3  502    0  0.11103656781E+02  0.44744201257E+02  0.37823990862E+03  0.38106198395E+03  0.41800000000E+01 0.  1.
         -5    1    3    3    0  502  0.46916750839E+01  0.23239120308E+02  0.74040149878E+00  0.24085039385E+02  0.41800000000E+01 0.  1.
        -11    1    1    2    0    0  0.35839522967E+02 -0.12253755197E+02  0.39436391605E+02  0.54679565706E+02  0.00000000000E+00 0.  1.
         11    1    1    2    0    0 -0.51634854833E+02 -0.55729566368E+02  0.10569810934E+03  0.13016924798E+03  0.00000000000E+00 0. -1.
</event>
<event>
 7    1  0.2842702E-009  0.1538529E+03  0.7561462E-02  0.1195817E+00
          2   -1    0    0  501    0  0.00000000000E+00  0.00000000000E+00  0.30310641826E+03  0.30310641826E+03  0.00000000000E+00 0. -1.
         -2   -1    0    0    0  501 -0.00000000000E+00 -0.00000000000E+00 -0.10195152176E+03  0.10195152176E+03  0.00000000000E+00 0.  1.
         25    2    1    2    0    0 -0.13656966425E+03 -0.16084617003E+02  0.12085193694E+03  0.22172668987E+03  0.12509015246E+03 0.  0.
          5    1    3    3  502    0 -0.65277437732E+02  0.42258611062E+02  0.10076052227E+03  0.12734633617E+03  0.41800000000E+01 0. -1.
         -5    1    3    3    0  502 -0.71292226516E+02 -0.58343228065E+02  0.20091414665E+02  0.94380353707E+02  0.41800000000E+01 0. -1.
        -11    1    1    2    0    0  0.10708610418E+03  0.10422783993E+02  0.11427953277E+02  0.10819734863E+03  0.00000000000E+00 0.  1.
         11    1    1    2    0    0  0.29483560067E+02  0.56618330100E+01  0.68875006282E+02  0.75133901520E+02  0.00000000000E+00 0. -1.
</event>
<event>
 7    1  0.2842702E-009  0.1057842E+03  0.7561462E-02  0.1268582E+00
          2   -1    0    0  501    0  0.00000000000E+00  0.00000000000E+00  0.15800198545E+03  0.15800198545E+03  0.00000000000E+00 0. -1.
         -2   -1    0    0    0  501 -0.00000000000E+00 -0.00000000000E+00 -0.10430178692E+03  0.10430178692E+03  0.00000000000E+00 0.  1.
         25    2    1    2    0    0  0.13453195648E+02  0.58944684432E+02 -0.52307564704E+01  0.13903305434E+03  0.12508942837E+03 0.  0.
          5    1    3    3  502    0  0.52678122165E+02 -0.45267241870E+01 -0.29210545806E+02  0.60549188046E+02  0.41800000000E+01 0.  1.
         -5    1    3    3    0  502 -0.39224926517E+02  0.63471408619E+02  0.23979789336E+02  0.78483866297E+02  0.41800000000E+01 0.  1.
        -11    1    1    2    0    0  0.14361711885E+02  0.40637613428E+01 -0.15736143984E+02  0.21688687189E+02  0.00000000000E+00 0.  1.
         11    1    1    2    0    0 -0.27814907533E+02 -0.63008445775E+02  0.74667098983E+02  0.10158203084E+03  0.00000000000E+00 0. -1.
</event>
<event>
 7    1  0.2842702E-009  0.1077029E+03  0.7561462E-02  0.1264884E+00
          1   -1    0    0  501    0  0.00000000000E+00  0.00000000000E+00  0.25497688811E+03  0.25497688811E+03  0.00000000000E+00 0. -1.
         -1   -1    0    0    0  501 -0.00000000000E+00 -0.00000000000E+00 -0.89776551341E+02  0.89776551341E+02  0.00000000000E+00 0.  1.
         25    2    1    2    0    0 -0.39088667743E+02 -0.46575397446E+02  0.19490812338E+03  0.23944540615E+03  0.12509090444E+03 0.  0.
          5    1    3    3  502    0 -0.53949520668E+02  0.28477082609E+02  0.70388894800E+02  0.93239283167E+02  0.41800000000E+01 0. -1.
         -5    1    3    3    0  502  0.14860852925E+02 -0.75052480055E+02  0.12451922858E+03  0.14620612298E+03  0.41800000000E+01 0. -1.
        -11    1    1    2    0    0  0.30349893857E+02  0.10492408134E+00 -0.46159016814E+02  0.55242935290E+02  0.00000000000E+00 0.  1.
         11    1    1    2    0    0  0.87387738857E+01  0.46470473365E+02  0.16451230206E+02  0.50065098013E+02  0.00000000000E+00 0. -1.
</event>
<event>
 7    1  0.2842702E-009  0.2121566E+03  0.7561462E-02  0.1139869E+00
          2   -1    0    0  501    0  0.00000000000E+00  0.00000000000E+00  0.58063049995E+02  0.58063049995E+02  0.00000000000E+00 0. -1.
         -2   -1    0    0    0  501 -0.00000000000E+00 -0.00000000000E+00 -0.84077945918E+03  0.84077945918E+03  0.00000000000E+00 0.  1.
         25    2    1    2    0    0  0.46586038247E+02 -0.18041138828E+03 -0.50086995963E+03  0.54885043528E+03  0.12509019094E+03 0.  0.
          5    1    3    3  502    0  0.78197808690E+02 -0.79009087695E+02 -0.32321514987E+03  0.34182281774E+03  0.41800000000E+01 0. -1.
         -5    1    3    3    0  502 -0.31611770443E+02 -0.10140230058E+03 -0.17765480976E+03  0.20702761754E+03  0.41800000000E+01 0. -1.
        -11    1    1    2    0    0 -0.41995389569E+02  0.20385397854E+02 -0.76440247141E+02  0.89567229352E+02  0.00000000000E+00 0. -1.
         11    1    1    2    0    0 -0.45906486777E+01  0.16002599042E+03 -0.20540620242E+03  0.26042484455E+03  0.00000000000E+00 0.  1.
</event>
<event>
 7    1  0.2842702E-009  0.1174456E+03  0.7561462E-02  0.1247371E+00
         -1   -1    0    0    0  501 -0.00000000000E+00  0.00000000000E+00  0.72836932326E+02  0.72836932326E+02  0.00000000000E+00 0.  1.
          1   -1    0    0  501    0  0.00000000000E+00 -0.00000000000E+00 -0.30572377170E+03  0.30572377170E+03  0.00000000000E+00 0. -1.
         25    2    1    2    0    0 -0.84109326007E+02 -0.47320788380E+02 -0.91440582524E+02  0.18254468869E+03  0.12509015749E+03 0.  0.
          5    1    3    3  502    0 -0.98372618856E+02 -0.48850161672E+02 -0.22744082252E+02  0.11224204254E+03  0.41800000000E+01 0. -1.
         -5    1    3    3    0  502  0.14263292850E+02  0.15293732915E+01 -0.68696500272E+02  0.70302646146E+02  0.41800000000E+01 0. -1.
        -11    1    1    2    0    0  0.68772946484E+00  0.23182124877E+02  0.68323426877E+01  0.24177774758E+02  0.00000000000E+00 0.  1.
         11    1    1    2    0    0  0.83421596542E+02  0.24138663503E+02 -0.14827859954E+03  0.17183824058E+03  0.00000000000E+00 0. -1.
</event>
<event>
 7    1  0.2842702E-009  0.1649750E+03  0.7561462E-02  0.1183192E+00
          2   -1    0    0  501    0  0.00000000000E+00  0.00000000000E+00  0.21073109134E+03  0.21073109134E+03  0.00000000000E+00 0. -1.
         -2   -1    0    0    0  501 -0.00000000000E+00 -0.00000000000E+00 -0.17670484327E+03  0.17670484327E+03  0.00000000000E+00 0.  1.
         25    2    1    2    0    0  0.91833241724E+02 -0.10917247534E+03  0.51011266346E+02  0.19646733525E+03  0.12508113714E+03 0.  0.
          5    1    3    3  502    0  0.98377501795E+02 -0.12886414429E+03  0.60730019286E+02  0.17317536830E+03  0.41800000000E+01 0.  1.
         -5    1    3    3    0  502 -0.65442600708E+01  0.19691668946E+02 -0.97187529404E+01  0.23291966952E+02  0.41800000000E+01 0.  1.
        -11    1    1    2    0    0 -0.30779941797E+02  0.14672393644E+02  0.49633518937E+02  0.60217689713E+02  0.00000000000E+00 0. -1.
         11    1    1    2    0    0 -0.61053299927E+02  0.94500081700E+02 -0.66618537216E+02  0.13075090965E+03  0.00000000000E+00 0.  1.
</event>
<event>
 7    1  0.2842702E-009  0.1085112E+03  0.7561462E-02  0.1263352E+00
         -4   -1    0    0    0  501 -0.00000000000E+00  0.00000000000E+00  0.66913282034E+02  0.66913282034E+02  0.00000000000E+00 0.  1.
          4   -1    0    0  501    0  0.00000000000E+00 -0.00000000000E+00 -0.20611960124E+03  0.20611960124E+03  0.00000000000E+00 0. -1.
         25    2    1    2    0    0  0.25429186509E+01 -0.17095599061E+02 -0.86210487471E+02  0.15289910399E+03  0.12508861622E+03 0.  0.
          5    1    3    3  502    0 -0.59811258272E+02 -0.21256925746E+02 -0.41754337746E+02  0.76092973584E+02  0.41800000000E+01 0.  1.
         -5    1    3    3    0  502  0.62354176923E+02  0.41613266853E+01 -0.44456149725E+02  0.76806130405E+02  0.41800000000E+01 0.  1.
        -11    1    1    2    0    0  0.37104695366E+02  0.31419513919E+02 -0.60183946924E+02  0.77369578908E+02  0.00000000000E+00 0. -1.
         11    1    1    2    0    0 -0.39647614017E+02 -0.14323914858E+02  0.71881151860E+01  0.42764200378E+02  0.00000000000E+00 0.  1.
</event>
<event>
 7    1  0.2842702E-009  0.1413559E+03  0.7561462E-02  0.1211516E+00
          1   -1    0    0  501    0  0.00000000000E+00  0.00000000000E+00  0.49180427556E+03  0.49180427556E+03  0.00000000000E+00 0. -1.
         -1   -1    0    0    0  501 -0.00000000000E+00 -0.00000000000E+00 -0.64959013909E+02  0.64959013909E+02  0.00000000000E+00 0.  1.
         25    2    1    2    0    0 -0.10757759565E+03  0.50374916488E+02  0.11152260525E+03  0.20541471522E+03  0.12508933788E+03 0.  0.
          5    1    3    3  502    0 -0.13019421735E+03  0.36165844656E+02  0.61427322316E+02  0.14849003629E+03  0.41800000000E+01 0.  1.
         -5    1    3    3    0  502  0.22616621696E+02  0.14209071831E+02  0.50095282931E+02  0.56924678929E+02  0.41800000000E+01 0.  1.
        -11    1    1    2    0    0  0.78989644552E+02 -0.46442565762E+02  0.30832807793E+03  0.32165584015E+03  0.00000000000E+00 0. -1.
         11    1    1    2    0    0  0.28587951101E+02 -0.39323507253E+01  0.69945784757E+01  0.29692734102E+02  0.00000000000E+00 0.  1.
</event>
<event>
 7    1  0.2842702E-009  0.1094253E+03  0.7561462E-02  0.1261638E+00
         -2   -1    0    0    0  501 -0.00000000000E+00  0.00000000000E+00  0.25220723324E+03  0.25220723324E+03  0.00000000000E+00 0. -1.
          2   -1    0    0  501    0  0.00000000000E+00 -0.00000000000E+00 -0.57153589122E+02  0.57153589122E+02  0.00000000000E+00 0.  1.
         25    2    1    2    0    0 -0.30854472717E+02 -0.35301038986E+02  0.80480363153E+02  0.15597280444E+03  0.12510901259E+03 0.  0.
          5    1    3    3  502    0 -0.96112259623E+01 -0.80489521419E+02  0.63533437037E+02  0.10307719799E+03  0.41800000000E+01 0.  1.
         -5    1    3    3    0  502 -0.21243246755E+02  0.45188482433E+02  0.16946926116E+02  0.52895606454E+02  0.41800000000E+01 0.  1.
        -11    1    1    2    0    0 -0.81567167683E+01  0.46323247394E+02  0.99644677911E+02  0.11018818954E+03  0.00000000000E+00 0. -1.
         11    1    1    2    0    0  0.39011189486E+02 -0.11022208408E+02  0.14928603052E+02  0.43199828384E+02  0.00000000000E+00 0.  1.
</event>
<event>
 7    1  0.2842702E-009  0.2610120E+03  0.7561462E-02  0.1106537E+00
          2   -1    0    0  501    0  0.00000000000E+00  0.00000000000E+00  0.68304665894E+03  0.68304665894E+03  0.00000000000E+00 0. -1.
         -2   -1    0    0    0  501 -0.00000000000E+00 -0.00000000000E+00 -0.10915236477E+03  0.10915236477E+03  0.00000000000E+00 0.  1.
         25    2    1    2    0    0  0.21961707736E+03 -0.10963675283E+03  0.34852765820E+03  0.44426719048E+03  0.12509967936E+03 0.  0.
          5    1    3    3  502    0  0.13051706861E+03 -0.10531842468E+03  0.14398133199E+03  0.22107639435E+03  0.41800000000E+01 0. -1.
         -5    1    3    3    0  502  0.89100008749E+02 -0.43183281448E+01  0.20454632620E+03  0.22319079614E+03  0.41800000000E+01 0. -1.
        -11    1    1    2    0    0 -0.11384135036E+03  0.17285287295E+01  0.10201176698E+03  0.15287001494E+03  0.00000000000E+00 0.  1.
         11    1    1    2    0    0 -0.10577572699E+03  0.10790822410E+03  0.12335486900E+03  0.19506181829E+03  0.00000000000E+00 0. -1.
</event>
<event>
 7    1  0.2842702E-009  0.7943906E+02  0.7561462E-02  0.1330651E+00
          2   -1    0    0  501    0  0.00000000000E+00  0.00000000000E+00  0.43328302139E+03  0.43328302139E+03  0.00000000000E+00 0. -1.
         -2   -1    0    0    0  501 -0.00000000000E+00 -0.00000000000E+00 -0.52079640925E+02  0.52079640925E+02  0.00000000000E+00 0.  1.
         25    2    1    2    0    0  0.53852339333E+02 -0.26236241615E+02  0.71348282194E+02  0.15596309960E+03  0.12508195809E+03 0.  0.
          5    1    3    3  502    0  0.34566864388E+02  0.11286418314E+02 -0.29212813319E+02  0.46830675993E+02  0.41800000000E+01 0. -1.
         -5    1    3    3    0  502  0.19285474945E+02 -0.37522659929E+02  0.10056109551E+03  0.10913242361E+03  0.41800000000E+01 0. -1.
        -11    1    1    2    0    0 -0.53009875929E+02  0.39801812243E+02  0.30872433635E+03  0.31576090172E+03  0.00000000000E+00 0. -1.
         11    1    1    2    0    0 -0.84246340476E+00 -0.13565570628E+02  0.11307619213E+01  0.13638660989E+02  0.00000000000E+00 0.  1.
</event>
<event>
 7    1  0.2842702E-009  0.1462606E+03  0.7561462E-02  0.1205145E+00
         -1   -1    0    0    0  501 -0.00000000000E+00  0.00000000000E+00  0.28187443925E+03  0.28187443925E+03  0.00000000000E+00 0.  1.
          1   -1    0    0  501    0  0.00000000000E+00 -0.00000000000E+00 -0.10156936762E+03  0.10156936762E+03  0.00000000000E+00 0. -1.
         25    2    1    2    0    0  0.19411375177E+02  0.11719690523E+03  0.42085668133E+02  0.17756280674E+03  0.12508169648E+03 0.  0.
          5    1    3    3  502    0 -0.47473281328E+02  0.20092809821E+02 -0.16172289961E+01  0.51744770520E+02  0.41800000000E+01 0.  1.
         -5    1    3    3    0  502  0.66884656505E+02  0.97104095413E+02  0.43702897129E+02  0.12581803622E+03  0.41800000000E+01 0.  1.
        -11    1    1    2    0    0 -0.23833234090E+02 -0.49112807535E+02  0.32979416965E+01  0.54689736977E+02  0.00000000000E+00 0. -1.
         11    1    1    2    0    0  0.44218589134E+01 -0.68084097699E+02  0.13492146181E+03  0.15119126315E+03  0.00000000000E+00 0.  1.
</event>
<event>
 7    1  0.2842702E-009  0.1068252E+03  0.7561462E-02  0.1266565E+00
          2   -1    0    0  501    0  0.00000000000E+00  0.00000000000E+00  0.33174468289E+03  0.33174468289E+03  0.00000000000E+00 0. -1.
         -2   -1    0    0    0  501 -0.00000000000E+00 -0.00000000000E+00 -0.43046152302E+02  0.43046152302E+02  0.00000000000E+00 0.  1.
         25    2    1    2    0    0 -0.57251099977E+01 -0.47407462003E+02  0.15029076437E+03  0.20128383955E+03  0.12509047075E+03 0.  0.
          5    1    3    3  502    0  0.45834865455E+02 -0.27615624366E+02  0.13274378032E+03  0.14318464029E+03  0.41800000000E+01 0.  1.
         -5    1    3    3    0  502 -0.51559975453E+02 -0.19791837637E+02  0.17546984047E+02  0.58099199262E+02  0.41800000000E+01 0.  1.
        -11    1    1    2    0    0 -0.19361604611E+02 -0.22872400928E+02  0.41916600697E+02  0.51526884937E+02  0.00000000000E+00 0. -1.
         11    1    1    2    0    0  0.25086714609E+02  0.70279862931E+02  0.96491165517E+02  0.12198011070E+03  0.00000000000E+00 0.  1.
</event>
<event>
 7    1  0.2842702E-009  0.3414721E+03  0.7561462E-02  0.1066171E+00
         -2   -1    0    0    0  501 -0.00000000000E+00  0.00000000000E+00  0.29952065661E+03  0.29952065661E+03  0.00000000000E+00 0.  1.
          2   -1    0    0  501    0  0.00000000000E+00 -0.00000000000E+00 -0.52951795165E+03  0.52951795165E+03  0.00000000000E+00 0. -1.
         25    2    1    2    0    0  0.28766905982E+03  0.17393740147E+03 -0.30769062962E+03  0.47257622421E+03  0.12508819501E+03 0.  0.
          5    1    3    3  502    0  0.58739005849E+02  0.40694224929E+02 -0.14496552718E+03  0.16167488123E+03  0.41800000000E+01 0.  1.
         -5    1    3    3    0  502  0.22893005397E+03  0.13324317655E+03 -0.16272510244E+03  0.31090134298E+03  0.41800000000E+01 0.  1.
        -11    1    1    2    0    0 -0.12120936248E+03 -0.12223807727E+03  0.54830044428E+02  0.18066596486E+03  0.00000000000E+00 0. -1.
         11    1    1    2    0    0 -0.16645969734E+03 -0.51699324203E+02  0.22863290152E+02  0.17579641918E+03  0.00000000000E+00 0.  1.
</event>
<event>
 7    1  0.2842702E-009  0.1965328E+03  0.7561462E-02  0.1152698E+00
         -1   -1    0    0    0  501 -0.00000000000E+00  0.00000000000E+00  0.70261237643E+02  0.70261237643E+02  0.00000000000E+00 0.  1.
          1   -1    0    0  501    0  0.00000000000E+00 -0.00000000000E+00 -0.62746660776E+03  0.62746660776E+03  0.00000000000E+00 0. -1.
         25    2    1    2    0    0  0.15921807784E+03 -0.62215737403E+02 -0.38063545392E+03  0.43560638138E+03  0.12509347077E+03 0.  0.
          5    1    3    3  502    0 -0.39823013881E+01  0.17676230680E+02 -0.96762658860E+02  0.98533204581E+02  0.41800000000E+01 0. -1.
         -5    1    3    3    0  502  0.16320037923E+03 -0.79891968083E+02 -0.28387279506E+03  0.33707317680E+03  0.41800000000E+01 0. -1.
        -11    1    1    2    0    0 -0.11582502674E+03 -0.12530083113E+01 -0.11904725387E+03  0.16610013698E+03  0.00000000000E+00 0.  1.
         11    1    1    2    0    0 -0.43393051106E+02  0.63468745715E+02 -0.57522662330E+02  0.96021327050E+02  0.00000000000E+00 0. -1.
</event>
<event>
 7    1  0.2842702E-009  0.1804650E+03  0.7561462E-02  0.1167354E+00
          2   -1    0    0  501    0  0.00000000000E+00  0.00000000000E+00  0.76854302412E+03  0.76854302412E+03  0.00000000000E+00 0. -1.
         -2   -1    0    0    0  501 -0.00000000000E+00 -0.00000000000E+00 -0.52797202992E+02  0.52797202992E+02  0.00000000000E+00 0.  1.
         25    2    1    2    0    0 -0.13244247382E+03 -0.10333775584E+03  0.42242321092E+03  0.47149583744E+03  0.12508898810E+03 0.  0.
          5    1    3    3  502    0 -0.71437191952E+02 -0.73600101496E+02  0.10488959331E+03  0.14676357354E+03  0.41800000000E+01 0. -1.
         -5    1    3    3    0  502 -0.61005281865E+02 -0.29737654347E+02  0.31753361762E+03  0.32473226390E+03  0.41800000000E+01 0. -1.
        -11    1    1    2    0    0  0.91124817406E+02  0.14455411955E+02  0.13115729222E+03  0.16035874340E+03  0.00000000000E+00 0. -1.
         11    1    1    2    0    0  0.41317656412E+02  0.88882343887E+02  0.16216531798E+03  0.18948564627E+03  0.00000000000E+00 0.  1.
</event>
<event>
 7    1  0.2842702E-009  0.1103931E+03  0.7561462E-02  0.1259844E+00
         -1   -1    0    0    0  501 -0.00000000000E+00  0.00000000000E+00  0.76560584590E+02  0.76560584590E+02  0.00000000000E+00 0.  1.
          1   -1    0    0  501    0  0.00000000000E+00 -0.00000000000E+00 -0.24039519434E+03  0.24039519434E+03  0.00000000000E+00 0. -1.
         25    2    1    2    0    0  0.61621919689E+02 -0.47799627751E+02 -0.12264980979E+03  0.19176679228E+03  0.12509780726E+03 0.  0.
          5    1    3    3  502    0  0.42718907861E+02 -0.68326253272E+02 -0.13784079279E+03  0.15972144042E+03  0.41800000000E+01 0.  1.
         -5    1    3    3    0  502  0.18903011828E+02  0.20526625521E+02  0.15190982997E+02  0.32045351860E+02  0.41800000000E+01 0.  1.
        -11    1    1    2    0    0 -0.75066165416E+02  0.58116387985E+02 -0.18249397514E+02  0.96672044834E+02  0.00000000000E+00 0.  1.
         11    1    1    2    0    0  0.13444245727E+02 -0.10316760234E+02 -0.22935402445E+02  0.28516941810E+02  0.00000000000E+00 0. -1.
</event>
<event>
 7    1  0.2842702E-009  0.1323710E+03  0.7561462E-02  0.1223979E+00
         -1   -1    0    0    0  501 -0.00000000000E+00  0.00000000000E+00  0.11307899605E+04  0.11307899605E+04  0.00000000000E+00 0.  1.
          1   -1    0    0  501    0  0.00000000000E+00 -0.00000000000E+00 -0.16583379422E+02  0.16583379422E+02  0.00000000000E+00 0. -1.
         25    2    1    2    0    0 -0.71710730875E+02  0.32079862043E+02  0.73012710183E+03  0.74491915996E+03  0.12508966219E+03 0.  0.
          5    1    3    3  502    0 -0.10707131175E+03  0.29967169523E+02  0.51809560170E+03  0.52990831467E+03  0.41800000000E+01 0.  1.
         -5    1    3    3    0  502  0.35360580879E+02  0.21126925206E+01  0.21203150013E+03  0.21501084530E+03  0.41800000000E+01 0.  1.
        -11    1    1    2    0    0  0.87927831127E+02 -0.73491420241E+01  0.24887665691E+03  0.26405473624E+03  0.00000000000E+00 0. -1.
         11    1    1    2    0    0 -0.16217100253E+02 -0.24730720019E+02  0.13520282237E+03  0.13839944375E+03  0.00000000000E+00 0.  1.
</event>
<event>
 7    1  0.2842702E-009  0.1097000E+03  0.7561462E-02  0.1261126E+00
         -1   -1    0    0    0  501 -0.00000000000E+00  0.00000000000E+00  0.21146855154E+03  0.21146855154E+03  0.00000000000E+00 0.  1.
          1   -1    0    0  501    0  0.00000000000E+00 -0.00000000000E+00 -0.72415924347E+02  0.72415924347E+02  0.00000000000E+00 0. -1.
         25    2    1    2    0    0 -0.53667521752E+02 -0.13201401774E+02  0.52608603524E+02  0.14652576026E+03  0.12509058060E+03 0.  0.
          5    1    3    3  502    0 -0.43978711569E+02 -0.63170955075E+02  0.58915751624E+01  0.77310281944E+02  0.41800000000E+01 0.  1.
         -5    1    3    3    0  502 -0.96888101832E+01  0.49969553301E+02  0.46717028361E+02  0.69215478318E+02  0.41800000000E+01 0.  1.
        -11    1    1    2    0    0 -0.10596711723E+02 -0.17159591120E+02  0.56934482658E+02  0.60400970044E+02  0.00000000000E+00 0.  1.
         11    1    1    2    0    0  0.64264233475E+02  0.30360992894E+02  0.29509541008E+02  0.76957745577E+02  0.00000000000E+00 0. -1.
</event>
<event>
 7    1  0.2842702E-009  0.1010036E+03  0.7561462E-02  0.1278200E+00
          2   -1    0    0  501    0  0.00000000000E+00  0.00000000000E+00  0.72021545535E+03  0.72021545535E+03  0.00000000000E+00 0. -1.
         -2   -1    0    0    0  501 -0.00000000000E+00 -0.00000000000E+00 -0.40170115124E+02  0.40170115124E+02  0.00000000000E+00 0.  1.
         25    2    1    2    0    0  0.45185891953E+02 -0.41382418465E+02  0.61821209982E+03  0.63371017389E+03  0.12509242479E+03 0.  0.
          5    1    3    3  502    0  0.18045400809E+02  0.27789357659E+02  0.43034214163E+03  0.43163609228E+03  0.41800000000E+01 0. -1.
         -5    1    3    3    0  502  0.27140491144E+02 -0.69171776125E+02  0.18786995819E+03  0.20207408162E+03  0.41800000000E+01 0. -1.
        -11    1    1    2    0    0 -0.63045742863E+02  0.19606927485E+02  0.71099302968E+02  0.97027357900E+02  0.00000000000E+00 0. -1.
         11    1    1    2    0    0  0.17859850910E+02  0.21775490981E+02 -0.92660625659E+01  0.29648038678E+02  0.00000000000E+00 0.  1.
</event>
<event>
 7    1  0.2842702E-009  0.1042871E+03  0.7561462E-02  0.1271531E+00
          2   -1    0    0  501    0  0.00000000000E+00  0.00000000000E+00  0.24778288823E+03  0.24778288823E+03  0.00000000000E+00 0. -1.
         -2   -1    0    0    0  501 -0.00000000000E+00 -0.00000000000E+00 -0.77946355956E+02  0.77946355956E+02  0.00000000000E+00 0.  1.
         25    2    1    2    0    0 -0.56094945183E+02  0.25134517614E+02  0.20981234421E+02  0.14094618029E+03  0.12508887517E+03 0.  0.
          5    1    3    3  502    0  0.31508483023E+02 -0.23032485013E+02  0.78363492110E+01  0.40026998854E+02  0.41800000000E+01 0.  1.
         -5    1    3    3    0  502 -0.87603428207E+02  0.48167002627E+02  0.13144885210E+02  0.10091918144E+03  0.41800000000E+01 0.  1.
        -11    1    1    2    0    0  0.10721096112E+02 -0.21152197781E+02  0.13515402643E+03  0.13721868763E+03  0.00000000000E+00 0. -1.
         11    1    1    2    0    0  0.45373849072E+02 -0.39823198330E+01  0.13701271419E+02  0.47564376263E+02  0.00000000000E+00 0.  1.
</event>
<event>
 7    1  0.2842702E-009  0.2302316E+03  0.7561462E-02  0.1126477E+00
          4   -1    0    0  501    0  0.00000000000E+00  0.00000000000E+00  0.10302085400E+04  0.10302085400E+04  0.00000000000E+00 0. -1.
         -4   -1    0    0    0  501 -0.00000000000E+00 -0.00000000000E+00 -0.58396682966E+02  0.58396682966E+02  0.00000000000E+00 0.  1.
         25    2    1    2    0    0  0.12308922945E+03  0.16976958474E+03  0.64076862953E+03  0.68571586332E+03  0.12509651594E+03 0.  0.
          5    1    3    3  502    0  0.75396800329E+02  0.17431251989E+03  0.43979293991E+03  0.47906662844E+03  0.41800000000E+01 0. -1.
         -5    1    3    3    0  502  0.47692429125E+02 -0.45429351493E+01  0.20097568962E+03  0.20664923488E+03  0.41800000000E+01 0. -1.
        -11    1    1    2    0    0 -0.64348118901E+02 -0.30407122716E+02  0.62641251386E+02  0.94811391157E+02  0.00000000000E+00 0.  1.
         11    1    1    2    0    0 -0.58741110554E+02 -0.13936246203E+03  0.26840197616E+03  0.30807796854E+03  0.00000000000E+00 0. -1.
</event>
<event>
 7    1  0.2842702E-009  0.2349808E+03  0.7561462E-02  0.1123182E+00
          3   -1    0    0  501    0  0.00000000000E+00  0.00000000000E+00  0.10099585679E+04  0.10099585679E+04  0.00000000000E+00 0. -1.
         -3   -1    0    0    0  501 -0.00000000000E+00 -0.00000000000E+00 -0.97854332374E+02  0.97854332374E+02  0.00000000000E+00 0.  1.
         25    2    1    2    0    0 -0.17335911394E+03  0.15468881894E+03  0.78990701358E+03  0.83281593144E+03  0.12508905810E+03 0.  0.
          5    1    3    3  502    0 -0.10954570464E+03  0.76821807734E+02  0.62805178160E+03  0.64215914252E+03  0.41800000000E+01 0.  1.
         -5    1    3    3    0  502 -0.63813409301E+02  0.77867011207E+02  0.16185523198E+03  0.19065678892E+03  0.41800000000E+01 0.  1.
        -11    1    1    2    0    0  0.33415821997E+02 -0.12076656619E+02 -0.81229101611E+01  0.36447832093E+02  0.00000000000E+00 0. -1.
         11    1    1    2    0    0  0.13994329195E+03 -0.14261216232E+03  0.13032013207E+03  0.23854913671E+03  0.00000000000E+00 0.  1.
</event>
<event>
 7    1  0.2842702E-009  0.1052512E+03  0.7561462E-02  0.1269625E+00
          2   -1    0    0  501    0  0.00000000000E+00  0.00000000000E+00  0.10219332519E+04  0.10219332519E+04  0.00000000000E+00 0. -1.
         -2   -1    0    0    0  501 -0.00000000000E+00 -0.00000000000E+00 -0.19609719196E+02  0.19609719196E+02  0.00000000000E+00 0.  1.
         25    2    1    2    0    0  0.14886971797E+02  0.77005880478E+02  0.69957297967E+03  0.71498330752E+03  0.12508896271E+03 0.  0.
          5    1    3    3  502    0  0.19704757514E+02  0.79538547587E+02  0.70267704454E+03  0.70745117100E+03  0.41800000000E+01 0.  1.
         -5    1    3    3    0  502 -0.48177857174E+01 -0.25326671087E+01 -0.31040648700E+01  0.75321365242E+01  0.41800000000E+01 0.  1.
        -11    1    1    2    0    0 -0.54276787218E+02 -0.50301659348E+02  0.20220270488E+03  0.21531874146E+03  0.00000000000E+00 0.  1.
         11    1    1    2    0    0  0.39389815421E+02 -0.26704221130E+02  0.10054784820E+03  0.11124092216E+03  0.00000000000E+00 0. -1.
</event>
<event>
 7    1  0.2842702E-009  0.1037957E+03  0.7561462E-02  0.1272511E+00
         -1   -1    0    0    0  501 -0.00000000000E+00  0.00000000000E+00  0.18364247826E+03  0.18364247826E+03  0.00000000000E+00 0.  1.
          1   -1    0    0  501    0  0.00000000000E+00 -0.00000000000E+00 -0.68552329269E+02  0.68552329269E+02  0.00000000000E+00 0. -1.
         25    2    1    2    0    0 -0.26094334259E+02 -0.34543946071E+01  0.67537498213E+02  0.14456901450E+03  0.12508412836E+03 0.  0.
          5    1    3    3  502    0  0.45014034486E+02  0.11718921831E+02  0.52384988929E+02  0.70180167389E+02  0.41800000000E+01 0. -1.
         -5    1    3    3    0  502 -0.71108368745E+02 -0.15173316438E+02  0.15152509284E+02  0.74388847114E+02  0.41800000000E+01 0. -1.
        -11    1    1    2    0    0 -0.12796948629E+02  0.35456341746E+02 -0.94479038473E+00  0.37706852071E+02  0.00000000000E+00 0.  1.
         11    1    1    2    0    0  0.38891282888E+02 -0.32001947139E+02  0.48497441167E+02  0.69918940961E+02  0.00000000000E+00 0. -1.
</event>
<event>
 7    1  0.2842702E-009  0.8515990E+02  0.7561462E-02  0.1315015E+00
         -2   -1    0    0    0  501 -0.00000000000E+00  0.00000000000E+00  0.22169891374E+03  0.22169891374E+03  0.00000000000E+00 0.  1.
          2   -1    0    0  501    0  0.00000000000E+00 -0.00000000000E+00 -0.74546096287E+02  0.74546096287E+02  0.00000000000E+00 0. -1.
         25    2    1    2    0    0  0.24430344165E+02 -0.33744300624E+02  0.14489054749E+03  0.19589599315E+03  0.12508576992E+03 0.  0.
          5    1    3    3  502    0  0.11860541585E+01  0.16110128587E+02 -0.17626360815E+02  0.24271463968E+02  0.41800000000E+01 0.  1.
         -5    1    3    3    0  502  0.23244290007E+02 -0.49854429211E+02  0.16251690831E+03  0.17162452918E+03  0.41800000000E+01 0.  1.
        -11    1    1    2    0    0 -0.18120696381E+02 -0.29656570081E+02 -0.83845005646E+01  0.35751526345E+02  0.00000000000E+00 0. -1.
         11    1    1    2    0    0 -0.63096477843E+01  0.63400870704E+02  0.10646770528E+02  0.64597490538E+02  0.00000000000E+00 0.  1.
</event>
<event>
 7    1  0.2842702E-009  0.1111806E+03  0.7561462E-02  0.1258399E+00
          2   -1    0    0  501    0  0.00000000000E+00  0.00000000000E+00  0.55096779970E+03  0.55096779970E+03  0.00000000000E+00 0.  1.
         -2   -1    0    0    0  501 -0.00000000000E+00 -0.00000000000E+00 -0.25543317412E+02  0.25543317412E+02  0.00000000000E+00 0. -1.
         25    2    1    2    0    0  0.23575041028E+02  0.37849606012E+02  0.24147905074E+03  0.27558362035E+03  0.12508327076E+03 0.  0.
          5    1    3    3  502    0  0.22201413156E+02 -0.40392056931E+02  0.47241849188E+02  0.66133847037E+02  0.41800000000E+01 0. -1.
         -5    1    3    3    0  502  0.13736278721E+01  0.78241662944E+02  0.19423720155E+03  0.20944977331E+03  0.41800000000E+01 0. -1.
        -11    1    1    2    0    0  0.25539965740E+02 -0.41213350155E+02  0.11134657453E+03  0.12144500707E+03  0.00000000000E+00 0. -1.
         11    1    1    2    0    0 -0.49115006768E+02  0.33637441421E+01  0.17259885702E+03  0.17948248970E+03  0.00000000000E+00 0.  1.
</event>
<event>
 7    1  0.2842702E-009  0.8958060E+02  0.7561462E-02  0.1303871E+00
          2   -1    0    0  501    0  0.00000000000E+00  0.00000000000E+00  0.20388107547E+03  0.20388107547E+03  0.00000000000E+00 0. -1.
         -2   -1    0    0    0  501 -0.00000000000E+00 -0.00000000000E+00 -0.65302458032E+02  0.65302458032E+02  0.00000000000E+00 0.  1.
         25    2    1    2    0    0  0.41482871639E+02  0.49158392988E+00  0.71145733524E+02  0.14976809869E+03  0.12509075782E+03 0.  0.
          5    1    3    3  502    0  0.78025110348E+02 -0.15609626423E+02  0.15540264922E+02  0.81182205659E+02  0.41800000000E+01 0. -1.
         -5    1    3    3    0  502 -0.36542238709E+02  0.16101210353E+02  0.55605468603E+02  0.68585893033E+02  0.41800000000E+01 0. -1.
        -11    1    1    2    0    0 -0.45301192630E+02 -0.12281949677E+02 -0.38209319573E+01  0.47091866204E+02  0.00000000000E+00 0.  1.
         11    1    1    2    0    0  0.38183209906E+01  0.11790365747E+02  0.71253815870E+02  0.72323568605E+02  0.00000000000E+00 0. -1.
</event>
<event>
 7    1  0.2842702E-009  0.1045769E+03  0.7561462E-02  0.1270956E+00
         -2   -1    0    0    0  501 -0.00000000000E+00  0.00000000000E+00  0.67646878079E+02  0.67646878079E+02  0.00000000000E+00 0.  1.
          2   -1    0    0  501    0  0.00000000000E+00 -0.00000000000E+00 -0.33350338180E+03  0.33350338180E+03  0.00000000000E+00 0. -1.
         25    2    1    2    0    0 -0.61817729226E+02  0.78120692847E+02 -0.18394530750E+03  0.24373261671E+03  0.12508172528E+03 0.  0.
          5    1    3    3  502    0 -0.52944556558E+02  0.56206312175E+02 -0.20028232147E+03  0.21469223622E+03  0.41800000000E+01 0. -1.
         -5    1    3    3    0  502 -0.88731726680E+01  0.21914380672E+02  0.16337013974E+02  0.29040380490E+02  0.41800000000E+01 0. -1.
        -11    1    1    2    0    0  0.12472552647E+02  0.30341993904E+01  0.16329693637E+02  0.20770888998E+02  0.00000000000E+00 0.  1.
         11    1    1    2    0    0  0.49345176579E+02 -0.81154892237E+02 -0.98240889862E+02  0.13664675417E+03  0.00000000000E+00 0. -1.
</event>
<event>
 7    1  0.2842702E-009  0.9269760E+02  0.7561462E-02  0.1296448E+00
          1   -1    0    0  501    0  0.00000000000E+00  0.00000000000E+00  0.26670326044E+03  0.26670326044E+03  0.00000000000E+00 0.  1.
         -1   -1    0    0    0  501 -0.00000000000E+00 -0.00000000000E+00 -0.72900179956E+02  0.72900179956E+02  0.00000000000E+00 0. -1.
         25    2    1    2    0    0  0.43306388677E+02  0.50684618358E+02  0.17914356014E+03  0.22844108786E+03  0.12509413115E+03 0.  0.
          5    1    3    3  502    0  0.17587719887E+02 -0.15564409945E+00  0.16955203369E+03  0.17051309816E+03  0.41800000000E+01 0.  1.
         -5    1    3    3    0  502  0.25718668790E+02  0.50840262458E+02  0.95915264423E+01  0.57927989699E+02  0.41800000000E+01 0.  1.
        -11    1    1    2    0    0 -0.69159883976E+02 -0.48023828845E+02  0.10853144813E+02  0.84895043676E+02  0.00000000000E+00 0.  1.
         11    1    1    2    0    0  0.25853495299E+02 -0.26607895131E+01  0.38063755385E+01  0.26267308860E+02  0.00000000000E+00 0. -1.
</event>
<event>
 7    1  0.2842702E-009  0.1468848E+03  0.7561462E-02  0.1204354E+00
         -3   -1    0    0    0  501 -0.00000000000E+00  0.00000000000E+00  0.28549260162E+03  0.28549260162E+03  0.00000000000E+00 0.  1.
          3   -1    0    0  501    0  0.00000000000E+00 -0.00000000000E+00 -0.76742085270E+02  0.76742085270E+02  0.00000000000E+00 0. -1.
         25    2    1    2    0    0 -0.45786265994E+02 -0.87729947982E+02  0.10227717244E+03  0.18947517604E+03  0.12508915383E+03 0.  0.
          5    1    3    3  502    0  0.37543562778E+02 -0.57862079625E+02  0.58954276232E+02  0.90832915017E+02  0.41800000000E+01 0.  1.
         -5    1    3    3    0  502 -0.83329828772E+02 -0.29867868358E+02  0.43322896209E+02  0.98642261021E+02  0.41800000000E+01 0.  1.
        -11    1    1    2    0    0 -0.25154220793E+02  0.49351125809E+02  0.43188191000E+02  0.70238794723E+02  0.00000000000E+00 0.  1.
         11    1    1    2    0    0  0.70940486787E+02  0.38378822173E+02  0.63285152914E+02  0.10252071613E+03  0.00000000000E+00 0. -1.
</event>
<event>
 7    1  0.2842702E-009  0.1277249E+03  0.7561462E-02  0.1230871E+00
         -2   -1    0    0    0  501 -0.00000000000E+00  0.00000000000E+00  0.44045749993E+02  0.44045749993E+02  0.00000000000E+00 0.  1.
          2   -1    0    0  501    0  0.00000000000E+00 -0.00000000000E+00 -0.54919665954E+03  0.54919665954E+03  0.00000000000E+00 0. -1.
         25    2    1    2    0    0 -0.45376974624E+02  0.10106933144E+03 -0.29523615326E+03  0.33924379144E+03  0.12509150351E+03 0.  0.
          5    1    3    3  502    0 -0.45482839000E+02  0.99169019256E+02 -0.30741488814E+03  0.32622778679E+03  0.41800000000E+01 0.  1.
         -5    1    3    3    0  502  0.10586437690E+00  0.19003121866E+01  0.12178734879E+02  0.13016004645E+02  0.41800000000E+01 0.  1.
        -11    1    1    2    0    0  0.91764358778E-01  0.16078707069E+02 -0.14207018790E+02  0.21456295687E+02  0.00000000000E+00 0.  1.
         11    1    1    2    0    0  0.45285210265E+02 -0.11714803851E+03 -0.19570773749E+03  0.23254232240E+03  0.00000000000E+00 0. -1.
</event>
<event>
 7    1  0.2842702E-009  0.6854596E+02  0.7561462E-02  0.1365109E+00
          1   -1    0    0  501    0  0.00000000000E+00  0.00000000000E+00  0.77405918498E+03  0.77405918498E+03  0.00000000000E+00 0. -1.
         -1   -1    0    0    0  501 -0.00000000000E+00 -0.00000000000E+00 -0.16020084734E+02  0.16020084734E+02  0.00000000000E+00 0.  1.
         25    2    1    2    0    0  0.24763646991E+02 -0.69910122086E+01  0.50283646540E+03  0.51880055855E+03  0.12508955253E+03 0.  0.
          5    1    3    3  502    0 -0.13695520300E+02 -0.92631711023E+01  0.46268209406E+03  0.46299629176E+03  0.41800000000E+01 0. -1.
         -5    1    3    3    0  502  0.38459167291E+02  0.22721588937E+01  0.40154371336E+02  0.55804266792E+02  0.41800000000E+01 0. -1.
        -11    1    1    2    0    0 -0.26390839185E+02  0.40171618212E+02  0.83100202502E+02  0.95999369574E+02  0.00000000000E+00 0.  1.
         11    1    1    2    0    0  0.16271921940E+01 -0.33180606004E+02  0.17210243235E+03  0.17527934159E+03  0.00000000000E+00 0. -1.
</event>
<event>
 7    1  0.3478377E-009  0.9850024E+02  0.7561462E-02  0.1283482E+00
         -2   -1    0    0    0  501 -0.00000000000E+00  0.00000000000E+00  0.35247599228E+02  0.35247599228E+02  0.00000000000E+00 0.  1.
          2   -1    0    0  501    0  0.00000000000E+00 -0.00000000000E+00 -0.37403353003E+03  0.37403353003E+03  0.00000000000E+00 0. -1.
         25    2    1    2    0    0  0.26958462649E+02  0.16362790334E+02 -0.23248141093E+03  0.26587574203E+03  0.12509118337E+03 0.  0.
          5    1    3    3  502    0  0.34672999772E+02 -0.44041771994E+02 -0.16769654098E+03  0.17686575940E+03  0.41800000000E+01 0. -1.
         -5    1    3    3    0  502 -0.77145371221E+01  0.60404562328E+02 -0.64784869953E+02  0.89009982630E+02  0.41800000000E+01 0. -1.
        -11    1    1    2    0    0 -0.41996310049E+02  0.15303871070E+02 -0.17623128886E+02  0.48046573230E+02  0.00000000000E+00 0.  1.
         11    1    1    2    0    0  0.15037847399E+02 -0.31666661405E+02 -0.88681390983E+02  0.95358813990E+02  0.00000000000E+00 0. -1.
</event>
<event>
 7    1  0.2842702E-009  0.3079269E+03  0.7561462E-02  0.1081344E+00
          1   -1    0    0  501    0  0.00000000000E+00  0.00000000000E+00  0.98399861821E+03  0.98399861821E+03  0.00000000000E+00 0. -1.
         -1   -1    0    0    0  501 -0.00000000000E+00 -0.00000000000E+00 -0.12829647033E+03  0.12829647033E+03  0.00000000000E+00 0.  1.
         25    2    1    2    0    0  0.29477208726E+03 -0.11473401260E+02  0.17588152968E+03  0.36551906311E+03  0.12509056977E+03 0.  0.
          5    1    3    3  502    0  0.26692159025E+03  0.28941884119E+02  0.13053830699E+03  0.29856739606E+03  0.41800000000E+01 0.  1.
         -5    1    3    3    0  502  0.27850497006E+02 -0.40415285379E+02  0.45343222691E+02  0.66951667042E+02  0.41800000000E+01 0.  1.
        -11    1    1    2    0    0 -0.18516347646E+03  0.27863348116E+02  0.32537149195E+03  0.37540443119E+03  0.00000000000E+00 0.  1.
         11    1    1    2    0    0 -0.10960861080E+03 -0.16389946856E+02  0.35444912624E+03  0.37137159424E+03  0.00000000000E+00 0. -1.
</event>
<event>
 7    1  0.2842702E-009  0.1930038E+03  0.7561462E-02  0.1155780E+00
          3   -1    0    0  501    0  0.00000000000E+00  0.00000000000E+00  0.45115314846E+03  0.45115314846E+03  0.00000000000E+00 0. -1.
         -3   -1    0    0    0  501 -0.00000000000E+00 -0.00000000000E+00 -0.10008495360E+03  0.10008495360E+03  0.00000000000E+00 0.  1.
         25    2    1    2    0    0  0.16052360865E+03  0.55462767780E+02  0.26926748929E+03  0.34204306365E+03  0.12507809184E+03 0.  0.
          5    1    3    3  502    0  0.92189566949E+02 -0.23815796537E+02  0.18305152531E+03  0.20637694090E+03  0.41800000000E+01 0.  1.
         -5    1    3    3    0  502  0.68334041706E+02  0.79278564317E+02  0.86215963983E+02  0.13566612275E+03  0.41800000000E+01 0.  1.
        -11    1    1    2    0    0 -0.14154908131E+03 -0.73741347895E+02  0.48661305135E+02  0.16685877689E+03  0.00000000000E+00 0.  1.
         11    1    1    2    0    0 -0.18974527350E+02  0.18278580115E+02  0.33139400435E+02  0.42336261530E+02  0.00000000000E+00 0. -1.
</event>
<event>
 6    1  0.2842702E-009  0.1036582E+03  0.7561462E-02  0.1272786E+00
          2   -1    0    0  501    0  0.00000000000E+00  0.00000000000E+00  0.24529923695E+03  0.24529923695E+03  0.00000000000E+00 0.  1.
         -2   -1    0    0    0  501 -0.00000000000E+00 -0.00000000000E+00 -0.76696924294E+02  0.76696924294E+02  0.00000000000E+00 0. -1.
          5    1    1    2  502    0  0.59515764514E+02 -0.45914634255E+02 -0.15817833792E+01  0.75301090982E+02  0.41800000000E+01 0.  1.
         -5    1    1    2    0  502  0.13788919756E+02  0.52677576807E+01  0.10732967060E+03  0.10842054312E+03  0.41800000000E+01 0.  1.
        -11    1    1    2    0    0 -0.71698672183E+02 -0.41938204754E+01  0.59524680969E+02  0.93281698995E+02  0.00000000000E+00 0.  1.
         11    1    1    2    0    0 -0.16060120871E+01  0.44840697050E+02  0.33297444687E+01  0.44992828150E+02  0.00000000000E+00 0. -1.
</event>
<event>
 7    1  0.2842702E-009  0.1379160E+03  0.7561462E-02  0.1216161E+00
         -1   -1    0    0    0  501 -0.00000000000E+00  0.00000000000E+00  0.32644221956E+03  0.32644221956E+03  0.00000000000E+00 0.  1.
          1   -1    0    0  501    0  0.00000000000E+00 -0.00000000000E+00 -0.76600767350E+02  0.76600767350E+02  0.00000000000E+00 0. -1.
         25    2    1    2    0    0 -0.69417822342E+02  0.84053231620E+02  0.89468228010E+02  0.18851379271E+03  0.12509638849E+03 0.  0.
          5    1    3    3  502    0  0.79795144984E+01 -0.19272646097E+02 -0.11849369308E+02  0.24351334505E+02  0.41800000000E+01 0.  1.
         -5    1    3    3    0  502 -0.77397336840E+02  0.10332587772E+03  0.10131759732E+03  0.16416245820E+03  0.41800000000E+01 0.  1.
        -11    1    1    2    0    0  0.29723038824E+02 -0.80175352662E+02  0.54516158435E+02  0.10140787811E+03  0.00000000000E+00 0. -1.
         11    1    1    2    0    0  0.39694783518E+02 -0.38778789578E+01  0.10585706576E+03  0.11312131610E+03  0.00000000000E+00 0.  1.
</event>
<event>
 7    1  0.2842702E-009  0.8344924E+02  0.7561462E-02  0.1319538E+00
          2   -1    0    0  501    0  0.00000000000E+00  0.00000000000E+00  0.63476627106E+02  0.63476627106E+02  0.00000000000E+00 0. -1.
         -2   -1    0    0    0  501 -0.00000000000E+00 -0.00000000000E+00 -0.25680693348E+03  0.25680693348E+03  0.00000000000E+00 0.  1.
         25    2    1    2    0    0 -0.67815765615E+01 -0.46785737620E+02 -0.16732700056E+03  0.21420053986E+03  0.12509456877E+03 0.  0.
          5    1    3    3  502    0  0.48726614054E+01 -0.54615082638E+02 -0.96340550112E+01  0.55828644052E+02  0.41800000000E+01 0. -1.
         -5    1    3    3    0  502 -0.11654237967E+02  0.78293450183E+01 -0.15769294555E+03  0.15837189581E+03  0.41800000000E+01 0. -1.
        -11    1    1    2    0    0 -0.53832873034E+01  0.70447402854E+02 -0.33851894555E+02  0.78343902865E+02  0.00000000000E+00 0.  1.
         11    1    1    2    0    0  0.12164863865E+02 -0.23661665234E+02  0.78485887408E+01  0.27739117862E+02  0.00000000000E+00 0. -1.
</event>
<event>
 6    1  0.2842702E-009  0.7560200E+02  0.7561462E-02  0.1342017E+00
          1   -1    0    0  501    0  0.00000000000E+00  0.00000000000E+00  0.94957985099E+02  0.94957985099E+02  0.00000000000E+00 0. -1.
         -1   -1    0    0    0  501 -0.00000000000E+00 -0.00000000000E+00 -0.15951733824E+03  0.15951733824E+03  0.00000000000E+00 0.  1.
          5    1    1    2  502    0 -0.25079946273E+02 -0.54159074655E+01  0.66884565883E+02  0.71758994642E+02  0.41800000000E+01 0. -1.
         -5    1    1    2    0  502  0.27511918957E+02 -0.16554447242E+02 -0.46542759294E+02  0.56697938683E+02  0.41800000000E+01 0. -1.
        -11    1    1    2    0    0  0.18499270264E+02 -0.30872588345E+02 -0.28072553604E+02  0.45644364135E+02  0.00000000000E+00 0.  1.
         11    1    1    2    0    0 -0.20931242949E+02  0.52842943053E+02 -0.56828606128E+02  0.80374025881E+02  0.00000000000E+00 0. -1.
</event>
<event>
 7    1  0.2842702E-009  0.1121055E+03  0.7561462E-02  0.1256720E+00
         -1   -1    0    0    0  501 -0.00000000000E+00  0.00000000000E+00  0.37772852953E+03  0.37772852953E+03  0.00000000000E+00 0.  1.
          1   -1    0    0  501    0  0.00000000000E+00 -0.00000000000E+00 -0.38791135910E+02  0.38791135910E+02  0.00000000000E+00 0. -1.
         25    2    1    2    0    0 -0.42416326301E+02 -0.31838583620E+02  0.13852157159E+03  0.19401625035E+03  0.12506494097E+03 0.  0.
          5    1    3    3  502    0 -0.58984895786E+02  0.27933923018E+02  0.10414850017E+03  0.12297928474E+03  0.41800000000E+01 0.  1.
         -5    1    3    3    0  502  0.16568569484E+02 -0.59772506638E+02  0.34373071412E+02  0.71036965608E+02  0.41800000000E+01 0.  1.
        -11    1    1    2    0    0 -0.16109932245E+01  0.49267393237E+02  0.10334959461E+03  0.11450331891E+03  0.00000000000E+00 0.  1.
         11    1    1    2    0    0  0.44027319526E+02 -0.17428809617E+02  0.97066227421E+02  0.10800009618E+03  0.00000000000E+00 0. -1.
</event>
<event>
 6    1  0.2842702E-009  0.2162961E+03  0.7561462E-02  0.1136675E+00
         -2   -1    0    0    0  501 -0.00000000000E+00  0.00000000000E+00  0.13630373611E+03  0.13630373611E+03  0.00000000000E+00 0.  1.
          2   -1    0    0  501    0  0.00000000000E+00 -0.00000000000E+00 -0.53219804679E+03  0.53219804679E+03  0.00000000000E+00 0. -1.
          5    1    1    2  502    0 -0.17200466462E+03  0.75363489977E+01 -0.28219833258E+03  0.33059911149E+03  0.41800000000E+01 0. -1.
         -5    1    1    2    0  502 -0.95814571142E+01  0.55659052251E+02 -0.11189187295E+03  0.12540732853E+03  0.41800000000E+01 0. -1.
        -11    1    1    2    0    0  0.16139943237E+03 -0.28932384383E+02  0.23073283563E+02  0.16558754799E+03  0.00000000000E+00 0.  1.
         11    1    1    2    0    0  0.20186689364E+02 -0.34263016866E+02 -0.24877388713E+02  0.46907794890E+02  0.00000000000E+00 0. -1.
</event>
<event>
 6    1  0.3138087E-009  0.2153476E+03  0.7561462E-02  0.1137400E+00
          2   -1    0    0  501    0  0.00000000000E+00  0.00000000000E+00  0.29793632026E+03  0.29793632026E+03  0.00000000000E+00 0. -1.
         -2   -1    0    0    0  501 -0.00000000000E+00 -0.00000000000E+00 -0.21215408615E+03  0.21215408615E+03  0.00000000000E+00 0.  1.
          5    1    1    2  502    0 -0.16976665563E+03 -0.97150898794E+02  0.16422463236E+03  0.25543339009E+03  0.41800000000E+01 0.  1.
         -5    1    1    2    0  502 -0.10629509468E+02  0.78109650073E+00 -0.20800167373E+02  0.23742703006E+02  0.41800000000E+01 0.  1.
        -11    1    1    2    0    0  0.92032352646E+02  0.99039038766E+02 -0.34468598652E+02  0.13952336516E+03  0.00000000000E+00 0.  1.
         11    1    1    2    0    0  0.88363812448E+02 -0.26692364728E+01 -0.23173632216E+02  0.91390948150E+02  0.00000000000E+00 0. -1.
</event>
<event>
 7    1  0.2842702E-009  0.1137803E+03  0.7561462E-02  0.1253725E+00
          3   -1    0    0  501    0  0.00000000000E+00  0.00000000000E+00  0.90749988903E+02  0.90749988903E+02  0.00000000000E+00 0. -1.
         -3   -1    0    0    0  501 -0.00000000000E+00 -0.00000000000E+00 -0.22290793805E+03  0.22290793805E+03  0.00000000000E+00 0.  1.
         25    2    1    2    0    0 -0.20928369842E+02 -0.79360073500E+02 -0.11805281607E+03  0.19057686471E+03  0.12508819308E+03 0.  0.
          5    1    3    3  502    0  0.11935207661E+02 -0.10336550114E+03 -0.10437433724E+03  0.14743931186E+03  0.41800000000E+01 0. -1.
         -5    1    3    3    0  502 -0.32863577503E+02  0.24005427638E+02 -0.13678478828E+02  0.43137552844E+02  0.41800000000E+01 0. -1.
        -11    1    1    2    0    0  0.11182362360E+02  0.26512263739E+02 -0.50538698674E+02  0.58155871760E+02  0.00000000000E+00 0.  1.
         11    1    1    2    0    0  0.97460074816E+01  0.52847809762E+02  0.36433565593E+02  0.64925190491E+02  0.00000000000E+00 0. -1.
</event>
<event>
 7    1  0.2842702E-009  0.1768156E+03  0.7561462E-02  0.1170921E+00
          2   -1    0    0  501    0  0.00000000000E+00  0.00000000000E+00  0.24814937338E+04  0.24814937338E+04  0.00000000000E+00 0. -1.
         -2   -1    0    0    0  501 -0.00000000000E+00 -0.00000000000E+00 -0.16051831309E+02  0.16051831309E+02  0.00000000000E+00 0.  1.
         25    2    1    2    0    0  0.77832172454E+02  0.14144955840E+03  0.15652534454E+04  0.15785217495E+04  0.12508693155E+03 0.  0.
          5    1    3    3  502    0  0.65185414658E+02  0.14477194824E+03  0.15495315873E+04  0.15576500466E+04  0.41800000000E+01 0. -1.
         -5    1    3    3    0  502  0.12646757796E+02 -0.33223898407E+01  0.15721858178E+02  0.20871702891E+02  0.41800000000E+01 0. -1.
        -11    1    1    2    0    0 -0.90278426882E+02 -0.87544259769E+02  0.70582280635E+03  0.71693795111E+03  0.00000000000E+00 0.  1.
         11    1    1    2    0    0  0.12446254428E+02 -0.53905298633E+02  0.19436565070E+03  0.20208586453E+03  0.00000000000E+00 0. -1.
</event>
<event>
 7    1  0.2842702E-009  0.1633144E+03  0.7561462E-02  0.1185005E+00
          1   -1    0    0  501    0  0.00000000000E+00  0.00000000000E+00  0.27783956774E+03  0.27783956774E+03  0.00000000000E+00 0. -1.
         -1   -1    0    0    0  501 -0.00000000000E+00 -0.00000000000E+00 -0.12059246873E+03  0.12059246873E+03  0.00000000000E+00 0.  1.
         25    2    1    2    0    0 -0.65643142042E+02  0.11547650284E+03  0.10313575590E+02  0.18274968824E+03  0.12508890400E+03 0.  0.
          5    1    3    3  502    0 -0.10603305204E+02  0.12550775633E+03  0.12216984900E+02  0.12661498371E+03  0.41800000000E+01 0. -1.
         -5    1    3    3    0  502 -0.55039836838E+02 -0.10031253489E+02 -0.19034093098E+01  0.56134704530E+02  0.41800000000E+01 0. -1.
        -11    1    1    2    0    0  0.70594896122E+02 -0.72323491178E+02  0.57547657709E+02  0.11630158917E+03  0.00000000000E+00 0.  1.
         11    1    1    2    0    0 -0.49517540801E+01 -0.43153011659E+02  0.89385865713E+02  0.99380759068E+02  0.00000000000E+00 0. -1.
</event>
<event>
 7    1  0.2842702E-009  0.2205066E+03  0.7561462E-02  0.1133506E+00
         -2   -1    0    0    0  501 -0.00000000000E+00  0.00000000000E+00  0.24604628347E+02  0.24604628347E+02  0.00000000000E+00 0.  1.
          2   -1    0    0  501    0  0.00000000000E+00 -0.00000000000E+00 -0.21485662901E+04  0.21485662901E+04  0.00000000000E+00 0. -1.
         25    2    1    2    0    0  0.28983185850E+02  0.19986321978E+03 -0.12093881810E+04  0.12324978316E+04  0.12508317557E+03 0.  0.
          5    1    3    3  502    0 -0.48856742889E+02  0.72306202395E+02 -0.49255443967E+03  0.50024245788E+03  0.41800000000E+01 0.  1.
         -5    1    3    3    0  502  0.77839928739E+02  0.12755701739E+03 -0.71683374135E+03  0.73225537371E+03  0.41800000000E+01 0.  1.
        -11    1    1    2    0    0 -0.21073861328E+01 -0.11754004268E+03 -0.69071945162E+03  0.70065217017E+03  0.00000000000E+00 0. -1.
         11    1    1    2    0    0 -0.26875799717E+02 -0.82323177105E+02 -0.22385402915E+03  0.24002091673E+03  0.00000000000E+00 0.  1.
</event>
<event>
 7    1  0.2842702E-009  0.1048904E+03  0.7561462E-02  0.1270336E+00
         -1   -1    0    0    0  501 -0.00000000000E+00  0.00000000000E+00  0.31131144466E+03  0.31131144466E+03  0.00000000000E+00 0.  1.
          1   -1    0    0  501    0  0.00000000000E+00 -0.00000000000E+00 -0.42857269684E+02  0.42857269684E+02  0.00000000000E+00 0. -1.
         25    2    1    2    0    0  0.34412420119E+02  0.81388580824E+01  0.18347415420E+03  0.22485831184E+03  0.12509212394E+03 0.  0.
          5    1    3    3  502    0  0.21816316568E+02  0.64533695812E+02  0.71870724276E+02  0.99113182633E+02  0.41800000000E+01 0.  1.
         -5    1    3    3    0  502  0.12596103551E+02 -0.56394837729E+02  0.11160342993E+03  0.12574512920E+03  0.41800000000E+01 0.  1.
        -11    1    1    2    0    0 -0.56416474848E+02 -0.18366587592E+02  0.86618709711E+02  0.10499024262E+03  0.00000000000E+00 0.  1.
         11    1    1    2    0    0  0.22004054729E+02  0.10227729510E+02 -0.16386889353E+01  0.24320159886E+02  0.00000000000E+00 0. -1.
</event>
<event>
 7    1  0.2842702E-009  0.2213334E+03  0.7561462E-02  0.1132893E+00
         -2   -1    0    0    0  501 -0.00000000000E+00  0.00000000000E+00  0.39740524499E+03  0.39740524499E+03  0.00000000000E+00 0.  1.
          2   -1    0    0  501    0  0.00000000000E+00 -0.00000000000E+00 -0.15240075683E+03  0.15240075683E+03  0.00000000000E+00 0. -1.
         25    2    1    2    0    0  0.12153817082E+02  0.20097489466E+03  0.22626580202E+03  0.32769298654E+03  0.12509139341E+03 0.  0.
          5    1    3    3  502    0  0.49336844960E+02  0.28013682631E+02  0.79677285590E+02  0.97902159956E+02  0.41800000000E+01 0.  1.
         -5    1    3    3    0  502 -0.37183027878E+02  0.17296121203E+03  0.14658851643E+03  0.22979082658E+03  0.41800000000E+01 0.  1.
        -11    1    1    2    0    0 -0.33687831348E+02 -0.14448899501E+03 -0.20893693779E+02  0.14982818860E+03  0.00000000000E+00 0. -1.
         11    1    1    2    0    0  0.21534014266E+02 -0.56485899658E+02  0.39632379921E+02  0.72284826684E+02  0.00000000000E+00 0.  1.
</event>
<event>
 7    1  0.2842702E-009  0.1195247E+03  0.7561462E-02  0.1243883E+00
         -2   -1    0    0    0  501 -0.00000000000E+00  0.00000000000E+00  0.12733365560E+03  0.12733365560E+03  0.00000000000E+00 0.  1.
          2   -1    0    0  501    0  0.00000000000E+00 -0.00000000000E+00 -0.14550630255E+03  0.14550630255E+03  0.00000000000E+00 0. -1.
         25    2    1    2    0    0  0.57676840936E+02  0.53832480540E+02 -0.37096177855E+02  0.15247438935E+03  0.12509100309E+03 0.  0.
          5    1    3    3  502    0 -0.22271065314E+02  0.61510447998E+02 -0.28879723579E+02  0.71631322737E+02  0.41800000000E+01 0.  1.
         -5    1    3    3    0  502  0.79947906249E+02 -0.76779674576E+01 -0.82164542762E+01  0.80843066609E+02  0.41800000000E+01 0.  1.
        -11    1    1    2    0    0 -0.31384210688E+01 -0.35349022826E+02  0.44867487615E+02  0.57205721274E+02  0.00000000000E+00 0.  1.
         11    1    1    2    0    0 -0.54538419867E+02 -0.18483457714E+02 -0.25943956713E+02  0.63159847534E+02  0.00000000000E+00 0. -1.
</event>
<event>
 7    1  0.2842702E-009  0.2045014E+03  0.7561462E-02  0.1145996E+00
          1   -1    0    0  501    0  0.00000000000E+00  0.00000000000E+00  0.55874869966E+02  0.55874869966E+02  0.00000000000E+00 0. -1.
         -1   -1    0    0    0  501 -0.00000000000E+00 -0.00000000000E+00 -0.91969223153E+03  0.91969223153E+03  0.00000000000E+00 0.  1.
         25    2    1    2    0    0 -0.13230041480E+03  0.14665154496E+03 -0.49114696242E+03  0.54395103070E+03  0.12508920701E+03 0.  0.
          5    1    3    3  502    0 -0.47292929824E+02  0.13068641534E+02 -0.25428668198E+03  0.25901080988E+03  0.41800000000E+01 0.  1.
         -5    1    3    3    0  502 -0.85007484979E+02  0.13358290343E+03 -0.23686028044E+03  0.28494022083E+03  0.41800000000E+01 0.  1.
        -11    1    1    2    0    0  0.96180592663E+02 -0.78155758124E+02 -0.30333418860E+03  0.32767462353E+03  0.00000000000E+00 0.  1.
         11    1    1    2    0    0  0.36119822140E+02 -0.68495786841E+02 -0.69336210543E+02  0.10394144726E+03  0.00000000000E+00 0. -1.
</event>
<event>
 7    1  0.2842702E-009  0.1840795E+03  0.7561462E-02  0.1163912E+00
         -2   -1    0    0    0  501 -0.00000000000E+00  0.00000000000E+00  0.29076365437E+02  0.29076365437E+02  0.00000000000E+00 0.  1.
          2   -1    0    0  501    0  0.00000000000E+00 -0.00000000000E+00 -0.11842696090E+04  0.11842696090E+04  0.00000000000E+00 0. -1.
         25    2    1    2    0    0 -0.14092482025E+03 -0.44612125192E+02 -0.67491281144E+03  0.70214578947E+03  0.12510539531E+03 0.  0.
          5    1    3    3  502    0  0.17894453925E+02  0.14651777274E+02 -0.65823065539E+02  0.69893021221E+02  0.41800000000E+01 0.  1.
         -5    1    3    3    0  502 -0.15881927418E+03 -0.59263902466E+02 -0.60908974591E+03  0.63225276824E+03  0.41800000000E+01 0.  1.
        -11    1    1    2    0    0  0.13163635939E+02 -0.25978485291E+02 -0.80417071136E+02  0.85528172781E+02  0.00000000000E+00 0. -1.
         11    1    1    2    0    0  0.12776118431E+03  0.70590610484E+02 -0.39986336098E+03  0.42567201219E+03  0.00000000000E+00 0.  1.
</event>
<event>
 7    1  0.2842702E-009  0.1282773E+03  0.7561462E-02  0.1230035E+00
          2   -1    0    0  501    0  0.00000000000E+00  0.00000000000E+00  0.18281393108E+04  0.18281393108E+04  0.00000000000E+00 0. -1.
         -2   -1    0    0    0  501 -0.00000000000E+00 -0.00000000000E+00 -0.12147486297E+02  0.12147486297E+02  0.00000000000E+00 0.  1.
         25    2    1    2    0    0  0.20930044015E+02 -0.79856623160E+02  0.13445141800E+04  0.13528417937E+04  0.12508953395E+03 0.  0.
          5    1    3    3  502    0 -0.21015199758E+02 -0.92392596545E+02  0.64377993314E+03  0.65072890302E+03  0.41800000000E+01 0.  1.
         -5    1    3    3    0  502  0.41945243773E+02  0.12535973385E+02  0.70073424684E+03  0.70211289064E+03  0.41800000000E+01 0.  1.
        -11    1    1    2    0    0  0.18026889166E+02  0.76540329891E+02  0.23632072543E+03  0.24905998495E+03  0.00000000000E+00 0.  1.
         11    1    1    2    0    0 -0.38956933181E+02  0.33162932698E+01  0.23515691909E+03  0.23838501849E+03  0.00000000000E+00 0. -1.
</event>
<event>
 7    1  0.2842702E-009  0.6960392E+02  0.7561462E-02  0.1361445E+00
          1   -1    0    0  501    0  0.00000000000E+00  0.00000000000E+00  0.22211541742E+03  0.22211541742E+03  0.00000000000E+00 0. -1.
         -1   -1    0    0    0  501 -0.00000000000E+00 -0.00000000000E+00 -0.11965021400E+03  0.11965021400E+03  0.00000000000E+00 0.  1.
         25    2    1    2    0    0 -0.19982151156E+02 -0.25085953610E+01 -0.70865066783E+02  0.14516748722E+03  0.12508462032E+03 0.  0.
          5    1    3    3  502    0 -0.24337721908E+01 -0.20994510795E+02 -0.10226461926E+03  0.10450941337E+03  0.41800000000E+01 0.  1.
         -5    1    3    3    0  502 -0.17548378965E+02  0.18485915434E+02  0.31399552476E+02  0.40658073853E+02  0.41800000000E+01 0.  1.
        -11    1    1    2    0    0 -0.20213460196E+01 -0.42071263184E+02  0.65716217330E+02  0.78055738071E+02  0.00000000000E+00 0.  1.
         11    1    1    2    0    0  0.22003497176E+02  0.44579858545E+02  0.10761405287E+03  0.11854240613E+03  0.00000000000E+00 0. -1.
</event>
<event>
 7    1  0.2842702E-009  0.1507808E+03  0.7561462E-02  0.1199517E+00
          2   -1    0    0  501    0  0.00000000000E+00  0.00000000000E+00  0.12807415470E+03  0.12807415470E+03  0.00000000000E+00 0. -1.
         -2   -1    0    0    0  501 -0.00000000000E+00 -0.00000000000E+00 -0.18985607112E+03  0.18985607112E+03  0.00000000000E+00 0.  1.
         25    2    1    2    0    0  0.10304307413E+03 -0.30794059525E+02 -0.63051096973E+02  0.17661007839E+03  0.12509808045E+03 0.  0.
          5    1    3    3  502    0  0.12918366479E+03 -0.14669265332E+02 -0.34764271290E+02  0.13464632766E+03  0.41800000000E+01 0. -1.
         -5    1    3    3    0  502 -0.26140590661E+02 -0.16124794193E+02 -0.28286825683E+02  0.41963750727E+02  0.41800000000E+01 0. -1.
        -11    1    1    2    0    0 -0.19444912805E+02  0.50911868510E+02  0.79527148149E+01  0.55076026202E+02  0.00000000000E+00 0.  1.
         11    1    1    2    0    0 -0.83598161328E+02 -0.20117808986E+02 -0.66835342645E+01  0.86244121227E+02  0.00000000000E+00 0. -1.
</event>
<event>
 7    1  0.2842702E-009  0.8295511E+02  0.7561462E-02  0.1320868E+00
         -2   -1    0    0    0  501 -0.00000000000E+00  0.00000000000E+00  0.14404667962E+03  0.14404667962E+03  0.00000000000E+00 0.  1.
          2   -1    0    0  501    0  0.00000000000E+00 -0.00000000000E+00 -0.83039372053E+02  0.83039372053E+02  0.00000000000E+00 0. -1.
         25    2    1    2    0    0  0.91927271518E+01 -0.28317842309E+01  0.23244032171E+02  0.12759751878E+03  0.12509323136E+03 0.  0.
          5    1    3    3  502    0 -0.12047249959E+02  0.42087364450E+02 -0.31085789133E+02  0.53854258550E+02  0.41800000000E+01 0. -1.
         -5    1    3    3    0  502  0.21239977111E+02 -0.44919148681E+02  0.54329821304E+02  0.73743260226E+02  0.41800000000E+01 0. -1.
        -11    1    1    2    0    0 -0.38696448998E+02  0.13064648683E+02  0.51198276006E+02  0.65493233821E+02  0.00000000000E+00 0.  1.
         11    1    1    2    0    0  0.29503721847E+02 -0.10232864452E+02 -0.13435000611E+02  0.33995299074E+02  0.00000000000E+00 0. -1.
</event>
<event>
 7    1  0.2842702E-009  0.2329669E+03  0.7561462E-02  0.1124569E+00
         -2   -1    0    0    0  501 -0.00000000000E+00  0.00000000000E+00  0.19614221668E+03  0.19614221668E+03  0.00000000000E+00 0.  1.
          2   -1    0    0  501    0  0.00000000000E+00 -0.00000000000E+00 -0.34165312818E+03  0.34165312818E+03  0.00000000000E+00 0. -1.
         25    2    1    2    0    0  0.96675421569E+02 -0.19167723647E+03  0.23083806848E+02  0.24953268948E+03  0.12508957137E+03 0.  0.
          5    1    3    3  502    0  0.10686886641E+03 -0.19436815263E+03  0.43597040564E+02  0.22609313946E+03  0.41800000000E+01 0.  1.
         -5    1    3    3    0  502 -0.10193444840E+02  0.26909161685E+01 -0.20513233716E+02  0.23439550017E+02  0.41800000000E+01 0.  1.
        -11    1    1    2    0    0 -0.66520676764E+01  0.11296552346E+03 -0.95799379405E+02  0.14826658622E+03  0.00000000000E+00 0. -1.
         11    1    1    2    0    0 -0.90023353892E+02  0.78711713002E+02 -0.72795338943E+02  0.13999606916E+03  0.00000000000E+00 0.  1.
</event>
<event>
 7    1  0.2842702E-009  0.1255130E+03  0.7561462E-02  0.1234270E+00
         -1   -1    0    0    0  501 -0.00000000000E+00  0.00000000000E+00  0.30941926532E+03  0.30941926532E+03  0.00000000000E+00 0.  1.
          1   -1    0    0  501    0  0.00000000000E+00 -0.00000000000E+00 -0.71365245430E+02  0.71365245430E+02  0.00000000000E+00 0. -1.
         25    2    1    2    0    0 -0.64019575485E+02  0.55120419356E+02  0.19937436268E+03  0.25009884656E+03  0.12515002949E+03 0.  0.
          5    1    3    3  502    0 -0.33866210375E+02  0.87844168890E+02  0.83521693946E+02  0.12592404049E+03  0.41800000000E+01 0.  1.
         -5    1    3    3    0  502 -0.30153365110E+02 -0.32723749533E+02  0.11585266873E+03  0.12417480607E+03  0.41800000000E+01 0.  1.
        -11    1    1    2    0    0 -0.15078916789E+02  0.99414736837E+00  0.29657258065E+02  0.33285357388E+02  0.00000000000E+00 0.  1.
         11    1    1    2    0    0  0.79098492275E+02 -0.56114566725E+02  0.90223991501E+01  0.97400306803E+02  0.00000000000E+00 0. -1.
</event>
<event>
 7    1  0.2842702E-009  0.7076452E+02  0.7561462E-02  0.1357512E+00
          2   -1    0    0  501    0  0.00000000000E+00  0.00000000000E+00  0.68761498200E+02  0.68761498200E+02  0.00000000000E+00 0. -1.
         -2   -1    0    0    0  501 -0.00000000000E+00 -0.00000000000E+00 -0.17780078033E+03  0.17780078033E+03  0.00000000000E+00 0.  1.
         25    2    1    2    0    0 -0.12805596945E+02  0.10926098187E+01 -0.86084517576E+02  0.15239210660E+03  0.12509049876E+03 0.  0.
          5    1    3    3  502    0  0.25214261734E+02  0.26629678733E+02  0.16150385106E+02  0.40289032295E+02  0.41800000000E+01 0.  1.
         -5    1    3    3    0  502 -0.38019858679E+02 -0.25537068914E+02 -0.10223490268E+03  0.11210307431E+03  0.41800000000E+01 0.  1.
        -11    1    1    2    0    0 -0.22747561316E+02  0.25449959890E+01  0.25302780052E+02  0.34119777678E+02  0.00000000000E+00 0. -1.
         11    1    1    2    0    0  0.35553158261E+02 -0.36376058077E+01 -0.48257544605E+02  0.60050394251E+02  0.00000000000E+00 0.  1.
</event>
<event>
 7    1  0.2842702E-009  0.2975202E+03  0.7561462E-02  0.1086487E+00
         -2   -1    0    0    0  501 -0.00000000000E+00  0.00000000000E+00  0.42195511350E+02  0.42195511350E+02  0.00000000000E+00 0.  1.
          2   -1    0    0  501    0  0.00000000000E+00 -0.00000000000E+00 -0.24200250567E+04  0.24200250567E+04  0.00000000000E+00 0. -1.
         25    2    1    2    0    0 -0.17931361805E+03 -0.22218353761E+03 -0.15630776178E+04  0.15938564945E+04  0.12509191649E+03 0.  0.
          5    1    3    3  502    0 -0.73764702849E+01 -0.77734962994E+02 -0.59208000924E+03  0.59722135471E+03  0.41800000000E+01 0. -1.
         -5    1    3    3    0  502 -0.17193714776E+03 -0.14444857462E+03 -0.97099760860E+03  0.99663513976E+03  0.41800000000E+01 0. -1.
        -11    1    1    2    0    0  0.10366679881E+03  0.79112045525E+02 -0.26601640329E+03  0.29626043904E+03  0.00000000000E+00 0.  1.
         11    1    1    2    0    0  0.75646819242E+02  0.14307149208E+03 -0.54873552421E+03  0.57210363453E+03  0.00000000000E+00 0. -1.
</event>
<event>
 7    1  0.2842702E-009  0.1076517E+03  0.7561462E-02  0.1264981E+00
          1   -1    0    0  501    0  0.00000000000E+00  0.00000000000E+00  0.13276414809E+03  0.13276414809E+03  0.00000000000E+00 0. -1.
         -1   -1    0    0    0  501 -0.00000000000E+00 -0.00000000000E+00 -0.11757644762E+03  0.11757644762E+03  0.00000000000E+00 0.  1.
         25    2    1    2    0    0 -0.13527866458E+02 -0.17815188101E+02 -0.42724562896E+02  0.13406836926E+03  0.12509418557E+03 0.  0.
          5    1    3    3  502    0 -0.21013947035E+02 -0.64206396765E+02 -0.52778896019E+02  0.85831996485E+02  0.41800000000E+01 0.  1.
         -5    1    3    3    0  502  0.74860805769E+01  0.46391208664E+02  0.10054333123E+02  0.48236372773E+02  0.41800000000E+01 0.  1.
        -11    1    1    2    0    0 -0.19224572204E+02  0.50580981229E+02  0.36237070124E+02  0.65124074578E+02  0.00000000000E+00 0. -1.
         11    1    1    2    0    0  0.32752438662E+02 -0.32765793128E+02  0.21675193238E+02  0.51148151868E+02  0.00000000000E+00 0.  1.
</event>
<event>
 7    1  0.2842702E-009  0.1301483E+03  0.7561462E-02  0.1227236E+00
         -2   -1    0    0    0  501 -0.00000000000E+00  0.00000000000E+00  0.17527824606E+02  0.17527824606E+02  0.00000000000E+00 0.  1.
          2   -1    0    0  501    0  0.00000000000E+00 -0.00000000000E+00 -0.14238159331E+04  0.14238159331E+04  0.00000000000E+00 0. -1.
         25    2    1    2    0    0 -0.10548361407E+03 -0.42862862275E+02 -0.67963429623E+03  0.70036863715E+03  0.12509769576E+03 0.  0.
          5    1    3    3  502    0 -0.19708641474E+02 -0.19879292900E+01 -0.75791814766E+01  0.21617095168E+02  0.41800000000E+01 0. -1.
         -5    1    3    3    0  502 -0.85774972594E+02 -0.40874932985E+02 -0.67205511475E+03  0.67875154198E+03  0.41800000000E+01 0. -1.
        -11    1    1    2    0    0  0.39643862870E+02  0.64440144206E+02 -0.37132637978E+03  0.37895573405E+03  0.00000000000E+00 0.  1.
         11    1    1    2    0    0  0.65839751199E+02 -0.21577281931E+02 -0.35532743244E+03  0.36201938646E+03  0.00000000000E+00 0. -1.
</event>
<event>
 7    1  0.2842702E-009  0.1392399E+03  0.7561462E-02  0.1214355E+00
         -1   -1    0    0    0  501 -0.00000000000E+00  0.00000000000E+00  0.20716068709E+03  0.20716068709E+03  0.00000000000E+00 0. -1.
          1   -1    0    0  501    0  0.00000000000E+00 -0.00000000000E+00 -0.10744848467E+03  0.10744848467E+03  0.00000000000E+00 0.  1.
         25    2    1    2    0    0  0.48787074776E+02 -0.81701826907E+02  0.94463686209E+02  0.18337369815E+03  0.12508860050E+03 0.  0.
          5    1    3    3  502    0  0.57201893468E+02 -0.10666739546E+03  0.98864187207E+02  0.15633806249E+03  0.41800000000E+01 0.  1.
         -5    1    3    3    0  502 -0.84148186921E+01  0.24965568551E+02 -0.44005009974E+01  0.27035635663E+02  0.41800000000E+01 0.  1.
        -11    1    1    2    0    0  0.18522386162E+02  0.55426048156E+02  0.76595893892E+01  0.58938908311E+02  0.00000000000E+00 0.  1.
         11    1    1    2    0    0 -0.67309460937E+02  0.26275778752E+02 -0.24110731804E+01  0.72296565303E+02  0.00000000000E+00 0. -1.
</event>
<event>
 7    1  0.2842702E-009  0.1141672E+03  0.7561462E-02  0.1253042E+00
         -2   -1    0    0    0  501 -0.00000000000E+00  0.00000000000E+00  0.28549807344E+03  0.28549807344E+03  0.00000000000E+00 0. -1.
          2   -1    0    0  501    0  0.00000000000E+00 -0.00000000000E+00 -0.75759162255E+02  0.75759162255E+02  0.00000000000E+00 0.  1.
         25    2    1    2    0    0 -0.44456826949E+02  0.89666891352E+02  0.12707084875E+03  0.20447598368E+03  0.12508743515E+03 0.  0.
          5    1    3    3  502    0 -0.55210678541E+02  0.53839549799E+02  0.57416859855E+01  0.77442594904E+02  0.41800000000E+01 0.  1.
         -5    1    3    3    0  502  0.10753851592E+02  0.35827341553E+02  0.12132916277E+03  0.12703338878E+03  0.41800000000E+01 0.  1.
        -11    1    1    2    0    0 -0.63017994824E+01 -0.46232759022E+02 -0.45907547196E+01  0.46885559743E+02  0.00000000000E+00 0.  1.
         11    1    1    2    0    0  0.50758626431E+02 -0.43434132330E+02  0.87258817148E+02  0.10989569227E+03  0.00000000000E+00 0. -1.
</event>
<event>
 7    1  0.2842702E-009  0.7509982E+02  0.7561462E-02  0.1343562E+00
         -2   -1    0    0    0  501 -0.00000000000E+00  0.00000000000E+00  0.16911809901E+03  0.16911809901E+03  0.00000000000E+00 0.  1.
          2   -1    0    0  501    0  0.00000000000E+00 -0.00000000000E+00 -0.84284852470E+02  0.84284852470E+02  0.00000000000E+00 0. -1.
         25    2    1    2    0    0  0.82642949995E+01  0.42483824058E+02  0.35507742063E+02  0.13704329312E+03  0.12508753161E+03 0.  0.
          5    1    3    3  502    0 -0.10242551481E+02 -0.19111144286E+02  0.63161421870E+02  0.66910263110E+02  0.41800000000E+01 0. -1.
         -5    1    3    3    0  502  0.18506846481E+02  0.61594968344E+02 -0.27653679807E+02  0.70133030014E+02  0.41800000000E+01 0. -1.
        -11    1    1    2    0    0 -0.25856111625E+02 -0.12076745645E+02  0.70003231442E+02  0.75596552210E+02  0.00000000000E+00 0.  1.
         11    1    1    2    0    0  0.17591816625E+02 -0.30407078413E+02 -0.20677726969E+02  0.40763106143E+02  0.00000000000E+00 0. -1.
</event>
<event>
 7    1  0.2842702E-009  0.1400886E+03  0.7561462E-02  0.1213210E+00
         -2   -1    0    0    0  501 -0.00000000000E+00  0.00000000000E+00  0.12583910075E+03  0.12583910075E+03  0.00000000000E+00 0.  1.
          2   -1    0    0  501    0  0.00000000000E+00 -0.00000000000E+00 -0.19307734229E+03  0.19307734229E+03  0.00000000000E+00 0. -1.
         25    2    1    2    0    0  0.98715761306E+02  0.43325929811E+02 -0.67752174360E+02  0.17849297964E+03  0.12508976348E+03 0.  0.
          5    1    3    3  502    0  0.28073512371E+02 -0.37224672211E+02  0.76256317662E+01  0.47428061082E+02  0.41800000000E+01 0. -1.
         -5    1    3    3    0  502  0.70642248934E+02  0.80550602022E+02 -0.75377806126E+02  0.13106491856E+03  0.41800000000E+01 0. -1.
        -11    1    1    2    0    0 -0.24076510104E+02  0.17578867349E+02 -0.27016823229E+02  0.40231873601E+02  0.00000000000E+00 0.  1.
         11    1    1    2    0    0 -0.74639251201E+02 -0.60904797160E+02  0.27530756047E+02  0.10019158979E+03  0.00000000000E+00 0. -1.
</event>
<event>
 7    1  0.2842702E-009  0.1274016E+03  0.7561462E-02  0.1231363E+00
          2   -1    0    0  501    0  0.00000000000E+00  0.00000000000E+00  0.41113973901E+03  0.41113973901E+03  0.00000000000E+00 0. -1.
         -2   -1    0    0    0  501 -0.00000000000E+00 -0.00000000000E+00 -0.75617025016E+02  0.75617025016E+02  0.00000000000E+00 0.  1.
         25    2    1    2    0    0 -0.87341153650E+00  0.99010816197E+02  0.44067382512E+02  0.16550873834E+03  0.12508918296E+03 0.  0.
          5    1    3    3  502    0 -0.25644197928E+02  0.10969916956E+03  0.65872961404E+02  0.13056895547E+03  0.41800000000E+01 0.  1.
         -5    1    3    3    0  502  0.24770786392E+02 -0.10688353362E+02 -0.21805578892E+02  0.34939782868E+02  0.41800000000E+01 0.  1.
        -11    1    1    2    0    0  0.13648452771E+02  0.12424058505E+01  0.10333125474E+01  0.13743782964E+02  0.00000000000E+00 0.  1.
         11    1    1    2    0    0 -0.12775041235E+02 -0.10025322205E+03  0.29042201894E+03  0.30750424272E+03  0.00000000000E+00 0. -1.
</event>
<event>
 7    1  0.2842702E-009  0.7902375E+02  0.7561462E-02  0.1331845E+00
          1   -1    0    0  501    0  0.00000000000E+00  0.00000000000E+00  0.20245576264E+03  0.20245576264E+03  0.00000000000E+00 0.  1.
         -1   -1    0    0    0  501 -0.00000000000E+00 -0.00000000000E+00 -0.77682414215E+02  0.77682414215E+02  0.00000000000E+00 0. -1.
         25    2    1    2    0    0 -0.56371686628E+00  0.52185418136E+02  0.31497502082E+02  0.13915548728E+03  0.12509405006E+03 0.  0.
          5    1    3    3  502    0  0.86516948867E+01 -0.16661446436E+02 -0.36881518293E+02  0.41595365287E+02  0.41800000000E+01 0.  1.
         -5    1    3    3    0  502 -0.92154117530E+01  0.68846864572E+02  0.68379020375E+02  0.97560121990E+02  0.41800000000E+01 0.  1.
        -11    1    1    2    0    0 -0.22455791599E+02 -0.24964813201E+02 -0.72246997730E+01  0.34346772211E+02  0.00000000000E+00 0. -1.
         11    1    1    2    0    0  0.23019508465E+02 -0.27220604935E+02  0.10050054612E+03  0.10663591737E+03  0.00000000000E+00 0.  1.
</event>
<event>
 7    1  0.2842702E-009  0.1390659E+03  0.7561462E-02  0.1214591E+00
          2   -1    0    0  501    0  0.00000000000E+00  0.00000000000E+00  0.55509831793E+03  0.55509831793E+03  0.00000000000E+00 0. -1.
         -2   -1    0    0    0  501 -0.00000000000E+00 -0.00000000000E+00 -0.56418874670E+02  0.56418874670E+02  0.00000000000E+00 0.  1.
         25    2    1    2    0    0  0.83402943781E+02  0.74683317838E+02  0.40572564532E+03  0.43908268409E+03  0.12508659079E+03 0.  0.
          5    1    3    3  502    0 -0.15278821303E+02  0.43290016764E+01  0.85706971227E+00  0.16443527736E+02  0.41800000000E+01 0.  1.
         -5    1    3    3    0  502  0.98681765084E+02  0.70354316161E+02  0.40486857561E+03  0.42263915635E+03  0.41800000000E+01 0.  1.
        -11    1    1    2    0    0 -0.68583715349E+02 -0.93836625134E+02  0.91940976825E+02  0.14819642859E+03  0.00000000000E+00 0. -1.
         11    1    1    2    0    0 -0.14819228432E+02  0.19153307296E+02  0.10128211111E+01  0.24238079922E+02  0.00000000000E+00 0.  1.
</event>
<event>
 7    1  0.2842702E-009  0.9613416E+02  0.7561462E-02  0.1288642E+00
          1   -1    0    0  501    0  0.00000000000E+00  0.00000000000E+00  0.10361769539E+04  0.10361769539E+04  0.00000000000E+00 0. -1.
         -1   -1    0    0    0  501 -0.00000000000E+00 -0.00000000000E+00 -0.14091908366E+02  0.14091908366E+02  0.00000000000E+00 0.  1.
         25    2    1    2    0    0  0.28688566276E+01 -0.19250883420E+02  0.78811620550E+03  0.79821879666E+03  0.12508903675E+03 0.  0.
          5    1    3    3  502    0  0.42671801228E+02 -0.46991350002E+02  0.61814768683E+03  0.62141218585E+03  0.41800000000E+01 0. -1.
         -5    1    3    3    0  502 -0.39802944601E+02  0.27740466582E+02  0.16996851867E+03  0.17680661080E+03  0.41800000000E+01 0. -1.
        -11    1    1    2    0    0  0.33913884777E+02  0.25783026069E+02  0.56888432633E+02  0.71071863501E+02  0.00000000000E+00 0.  1.
         11    1    1    2    0    0 -0.36782741405E+02 -0.65321426491E+01  0.17708040745E+03  0.18097820216E+03  0.00000000000E+00 0. -1.
</event>
<event>
 7    1  0.2842702E-009  0.1023839E+03  0.7561462E-02  0.1275361E+00
          2   -1    0    0  501    0  0.00000000000E+00  0.00000000000E+00  0.48331477806E+03  0.48331477806E+03  0.00000000000E+00 0. -1.
         -2   -1    0    0    0  501 -0.00000000000E+00 -0.00000000000E+00 -0.39996250470E+02  0.39996250470E+02  0.00000000000E+00 0.  1.
         25    2    1    2    0    0 -0.63710129206E+02 -0.17099879872E+02  0.34984453947E+03  0.37734767787E+03  0.12509469111E+03 0.  0.
          5    1    3    3  502    0  0.32504511681E+02  0.12869614446E+02  0.51252416351E+02  0.62180807629E+02  0.41800000000E+01 0.  1.
         -5    1    3    3    0  502 -0.96214640887E+02 -0.29969494318E+02  0.29859212312E+03  0.31516687024E+03  0.41800000000E+01 0.  1.
        -11    1    1    2    0    0  0.24820798206E+02 -0.28616190863E+01 -0.14910238642E+02  0.29095980887E+02  0.00000000000E+00 0.  1.
         11    1    1    2    0    0  0.38889330999E+02  0.19961498958E+02  0.10838422677E+03  0.11686736978E+03  0.00000000000E+00 0. -1.
</event>
<event>
 7    1  0.2842702E-009  0.1172202E+03  0.7561462E-02  0.1247755E+00
          4   -1    0    0  501    0  0.00000000000E+00  0.00000000000E+00  0.24961290444E+02  0.24961290444E+02  0.00000000000E+00 0. -1.
         -4   -1    0    0    0  501 -0.00000000000E+00 -0.00000000000E+00 -0.14634419979E+04  0.14634419979E+04  0.00000000000E+00 0.  1.
         25    2    1    2    0    0  0.38842411774E+02  0.75907740419E+02 -0.12648698457E+04  0.12738971008E+04  0.12508948301E+03 0.  0.
          5    1    3    3  502    0 -0.28272825150E+02 -0.25021505605E+01 -0.63216110147E+03  0.63281177613E+03  0.41800000000E+01 0. -1.
         -5    1    3    3    0  502  0.67115236925E+02  0.78409890980E+02 -0.63270874426E+03  0.64108532466E+03  0.41800000000E+01 0. -1.
        -11    1    1    2    0    0  0.11165907390E+02 -0.38270099590E+02 -0.13546367065E+03  0.14120794622E+03  0.00000000000E+00 0.  1.
         11    1    1    2    0    0 -0.50008319165E+02 -0.37637640829E+02 -0.38147191044E+02  0.73298241298E+02  0.00000000000E+00 0. -1.
</event>
<event>
 7    1  0.2842702E-009  0.1498629E+03  0.7561462E-02  0.1200642E+00
         -1   -1    0    0    0  501 -0.00000000000E+00  0.00000000000E+00  0.37921258601E+02  0.37921258601E+02  0.00000000000E+00 0.  1.
          1   -1    0    0  501    0  0.00000000000E+00 -0.00000000000E+00 -0.18017105911E+04  0.18017105911E+04  0.00000000000E+00 0. -1.
         25    2    1    2    0    0  0.89854916983E+02 -0.64927327595E+02 -0.16441465798E+04  0.16526207485E+04  0.12509156065E+03 0.  0.
          5    1    3    3  502    0  0.87332513064E+02  0.59274034315E+01 -0.64092068374E+03  0.64688399052E+03  0.41800000000E+01 0. -1.
         -5    1    3    3    0  502  0.25224039195E+01 -0.70854731027E+02 -0.10032258961E+04  0.10057367580E+04  0.41800000000E+01 0. -1.
        -11    1    1    2    0    0 -0.79861329389E+02  0.46789205014E+01 -0.49797208125E+02  0.94231025495E+02  0.00000000000E+00 0. -1.
         11    1    1    2    0    0 -0.99935875946E+01  0.60248407094E+02 -0.69845544576E+02  0.92780075703E+02  0.00000000000E+00 0.  1.
</event>
<event>
 7    1  0.2842702E-009  0.1024865E+03  0.7561462E-02  0.1275152E+00
         -2   -1    0    0    0  501 -0.00000000000E+00  0.00000000000E+00  0.68134359463E+02  0.68134359463E+02  0.00000000000E+00 0. -1.
          2   -1    0    0  501    0  0.00000000000E+00 -0.00000000000E+00 -0.24136022740E+03  0.24136022740E+03  0.00000000000E+00 0.  1.
         25    2    1    2    0    0  0.69763314415E+02 -0.20642347059E+00 -0.11206913051E+03  0.18186223255E+03  0.12508964373E+03 0.  0.
          5    1    3    3  502    0 -0.25820098290E+02  0.20552497046E+02 -0.28268278269E+00  0.33266122709E+02  0.41800000000E+01 0. -1.
         -5    1    3    3    0  502  0.95583412705E+02 -0.20758920517E+02 -0.11178644773E+03  0.14859610984E+03  0.41800000000E+01 0. -1.
        -11    1    1    2    0    0 -0.44534680718E+02 -0.11499098218E+02  0.13522901467E+02  0.47942005700E+02  0.00000000000E+00 0. -1.
         11    1    1    2    0    0 -0.25228633697E+02  0.11705521689E+02 -0.74679638893E+02  0.79690348609E+02  0.00000000000E+00 0.  1.
</event>
<event>
 7    1  0.2842702E-009  0.1002374E+03  0.7561462E-02  0.1279798E+00
          1   -1    0    0  501    0  0.00000000000E+00  0.00000000000E+00  0.20203144430E+02  0.20203144430E+02  0.00000000000E+00 0. -1.
         -1   -1    0    0    0  501 -0.00000000000E+00 -0.00000000000E+00 -0.78260850138E+03  0.78260850138E+03  0.00000000000E+00 0.  1.
         25    2    1    2    0    0 -0.94668000606E+01  0.40412896819E+02 -0.58142971058E+03  0.59617961428E+03  0.12508717602E+03 0.  0.
          5    1    3    3  502    0 -0.50008852621E+02  0.34771474995E+02 -0.51082663036E+03  0.51446210696E+03  0.41800000000E+01 0.  1.
         -5    1    3    3    0  502  0.40542052561E+02  0.56414218234E+01 -0.70603080225E+02  0.81717507324E+02  0.41800000000E+01 0.  1.
        -11    1    1    2    0    0 -0.25538632482E+01  0.28353146688E+02 -0.37566476702E+02  0.47134523615E+02  0.00000000000E+00 0. -1.
         11    1    1    2    0    0  0.12020663309E+02 -0.68766043507E+02 -0.14340916966E+03  0.15949750791E+03  0.00000000000E+00 0.  1.
</event>
<event>
 7    1  0.2842702E-009  0.9899688E+02  0.7561462E-02  0.1282420E+00
          2   -1    0    0  501    0  0.00000000000E+00  0.00000000000E+00  0.15500053399E+03  0.15500053399E+03  0.00000000000E+00 0.  1.
         -2   -1    0    0    0  501 -0.00000000000E+00 -0.00000000000E+00 -0.11978300215E+03  0.11978300215E+03  0.00000000000E+00 0. -1.
         25    2    1    2    0    0  0.51951449945E+02 -0.34188731350E+01  0.84811132946E+02  0.15984793733E+03  0.12509113858E+03 0.  0.
          5    1    3    3  502    0  0.84119575220E+02 -0.20405202807E+02  0.25834801124E+02  0.90428892429E+02  0.41800000000E+01 0. -1.
         -5    1    3    3    0  502 -0.32168125275E+02  0.16986329672E+02  0.58976331823E+02  0.69419044900E+02  0.41800000000E+01 0. -1.
        -11    1    1    2    0    0 -0.61902281170E+02  0.10114482240E+02 -0.68289352105E+02  0.92723410075E+02  0.00000000000E+00 0. -1.
         11    1    1    2    0    0  0.99508312250E+01 -0.66956091050E+01  0.18695750992E+02  0.22212188737E+02  0.00000000000E+00 0.  1.
</event>
<event>
 7    1  0.2842702E-009  0.1595435E+03  0.7561462E-02  0.1189213E+00
         -2   -1    0    0    0  501 -0.00000000000E+00  0.00000000000E+00  0.41646246669E+02  0.41646246669E+02  0.00000000000E+00 0.  1.
          2   -1    0    0  501    0  0.00000000000E+00 -0.00000000000E+00 -0.67999471134E+03  0.67999471134E+03  0.00000000000E+00 0. -1.
         25    2    1    2    0    0  0.12078540631E+03  0.32166865153E+02 -0.29489611583E+03  0.34385309724E+03  0.12508961492E+03 0.  0.
          5    1    3    3  502    0  0.25539441551E+02 -0.37407236973E+02 -0.15123541703E+03  0.15792779432E+03  0.41800000000E+01 0. -1.
         -5    1    3    3    0  502  0.95245964761E+02  0.69574102125E+02 -0.14366069880E+03  0.18592530293E+03  0.41800000000E+01 0. -1.
        -11    1    1    2    0    0 -0.15459761174E+02 -0.46754910315E+02 -0.13661841203E+03  0.14522264410E+03  0.00000000000E+00 0.  1.
         11    1    1    2    0    0 -0.10532564514E+03  0.14588045162E+02 -0.20683393681E+03  0.23256521667E+03  0.00000000000E+00 0. -1.
</event>
<event>
 7    1  0.2842702E-009  0.1223533E+03  0.7561462E-02  0.1239265E+00
         -1   -1    0    0    0  501 -0.00000000000E+00  0.00000000000E+00  0.18599189165E+03  0.18599189165E+03  0.00000000000E+00 0.  1.
          1   -1    0    0  501    0  0.00000000000E+00 -0.00000000000E+00 -0.18303009058E+03  0.18303009058E+03  0.00000000000E+00 0. -1.
         25    2    1    2    0    0 -0.33738688502E+02 -0.52806175999E+02  0.13627427937E+03  0.19531160097E+03  0.12509656643E+03 0.  0.
          5    1    3    3  502    0  0.27362127054E+02  0.22957746245E+02  0.66094637737E+02  0.75244386151E+02  0.41800000000E+01 0. -1.
         -5    1    3    3    0  502 -0.61100815555E+02 -0.75763922245E+02  0.70179641629E+02  0.12006721482E+03  0.41800000000E+01 0. -1.
        -11    1    1    2    0    0 -0.17696323650E+02 -0.17050478936E+02 -0.31516866980E+02  0.39964879668E+02  0.00000000000E+00 0.  1.
         11    1    1    2    0    0  0.51435012151E+02  0.69856654935E+02 -0.10179561131E+03  0.13374550159E+03  0.00000000000E+00 0. -1.
</event>
<event>
 7    1  0.2842702E-009  0.9752537E+02  0.7561462E-02  0.1285588E+00
          2   -1    0    0  501    0  0.00000000000E+00  0.00000000000E+00  0.11400365498E+04  0.11400365498E+04  0.00000000000E+00 0. -1.
         -2   -1    0    0    0  501 -0.00000000000E+00 -0.00000000000E+00 -0.24638668104E+02  0.24638668104E+02  0.00000000000E+00 0.  1.
         25    2    1    2    0    0 -0.17259996444E+02 -0.16385058750E+02  0.10106643862E+04  0.10186538950E+04  0.12508748395E+03 0.  0.
          5    1    3    3  502    0  0.20261791385E+02  0.37542709240E+02  0.68847149626E+03  0.68980465987E+03  0.41800000000E+01 0.  1.
         -5    1    3    3    0  502 -0.37521787829E+02 -0.53927767990E+02  0.32219288992E+03  0.32884923512E+03  0.41800000000E+01 0.  1.
        -11    1    1    2    0    0 -0.28893760731E+02 -0.12955002305E+02  0.46975685912E+01  0.32011695434E+02  0.00000000000E+00 0.  1.
         11    1    1    2    0    0  0.46153757174E+02  0.29340061055E+02  0.10003592690E+03  0.11400962747E+03  0.00000000000E+00 0. -1.
</event>
<event>
 7    1  0.2842702E-009  0.1073481E+03  0.7561462E-02  0.1265561E+00
          2   -1    0    0  501    0  0.00000000000E+00  0.00000000000E+00  0.77620998678E+02  0.77620998678E+02  0.00000000000E+00 0. -1.
         -2   -1    0    0    0  501 -0.00000000000E+00 -0.00000000000E+00 -0.18066922518E+03  0.18066922518E+03  0.00000000000E+00 0.  1.
         25    2    1    2    0    0  0.20818913653E+02  0.42734298684E+01 -0.13247198296E+02  0.12757141865E+03  0.12508912512E+03 0.  0.
          5    1    3    3  502    0 -0.51865954909E+02 -0.90974829726E+01 -0.40246973789E+01  0.52976523707E+02  0.41800000000E+01 0.  1.
         -5    1    3    3    0  502  0.72684868562E+02  0.13370912841E+02 -0.92225009174E+01  0.74594894941E+02  0.41800000000E+01 0.  1.
        -11    1    1    2    0    0 -0.52347292882E+02  0.99121718759E+01 -0.77451816480E+02  0.94006776880E+02  0.00000000000E+00 0.  1.
         11    1    1    2    0    0  0.31528379230E+02 -0.14185601744E+02 -0.12349211723E+02  0.36712028327E+02  0.00000000000E+00 0. -1.
</event>
<event>
 7    1  0.2842702E-009  0.1402541E+03  0.7561462E-02  0.1212987E+00
         -1   -1    0    0    0  501 -0.00000000000E+00  0.00000000000E+00  0.40432153307E+03  0.40432153307E+03  0.00000000000E+00 0.  1.
          1   -1    0    0  501    0  0.00000000000E+00 -0.00000000000E+00 -0.53631232527E+02  0.53631232527E+02  0.00000000000E+00 0. -1.
         25    2    1    2    0    0 -0.24761850732E+02 -0.92646360145E+02  0.22415574650E+03  0.27402440057E+03  0.12508827331E+03 0.  0.
          5    1    3    3  502    0 -0.70584701580E+02 -0.72592017114E+02  0.18271003528E+03  0.20893116196E+03  0.41800000000E+01 0.  1.
         -5    1    3    3    0  502  0.45822850848E+02 -0.20054343030E+02  0.41445711221E+02  0.65093238611E+02  0.41800000000E+01 0.  1.
        -11    1    1    2    0    0  0.56511445762E+02  0.70073703292E+02  0.64754785814E+02  0.11089206320E+03  0.00000000000E+00 0. -1.
         11    1    1    2    0    0 -0.31749595029E+02  0.22572656853E+02  0.61779768230E+02  0.73036301827E+02  0.00000000000E+00 0.  1.
</event>
<event>
 7    1  0.2842702E-009  0.1522176E+03  0.7561462E-02  0.1197774E+00
          2   -1    0    0  501    0  0.00000000000E+00  0.00000000000E+00  0.14379765980E+03  0.14379765980E+03  0.00000000000E+00 0.  1.
         -2   -1    0    0    0  501 -0.00000000000E+00 -0.00000000000E+00 -0.21785130505E+03  0.21785130505E+03  0.00000000000E+00 0. -1.
         25    2    1    2    0    0 -0.72524113228E+02 -0.11833817089E+03 -0.55453149583E+02  0.19489959455E+03  0.12508849055E+03 0.  0.
          5    1    3    3  502    0 -0.67440754787E+02 -0.95621798097E+02 -0.93678255742E+02  0.14994956378E+03  0.41800000000E+01 0. -1.
         -5    1    3    3    0  502 -0.50833584406E+01 -0.22716372795E+02  0.38225106159E+02  0.44950030777E+02  0.41800000000E+01 0. -1.
        -11    1    1    2    0    0 -0.17058078213E+02  0.44331823734E+02 -0.17274747243E+02  0.50544094810E+02  0.00000000000E+00 0. -1.
         11    1    1    2    0    0  0.89582191440E+02  0.74006347158E+02 -0.13257484298E+01  0.11620527549E+03  0.00000000000E+00 0.  1.
</event>
<event>
 7    1  0.2842702E-009  0.1040404E+03  0.7561462E-02  0.1272022E+00
          3   -1    0    0  501    0  0.00000000000E+00  0.00000000000E+00  0.11419406849E+03  0.11419406849E+03  0.00000000000E+00 0. -1.
         -3   -1    0    0    0  501 -0.00000000000E+00 -0.00000000000E+00 -0.12331155003E+03  0.12331155003E+03  0.00000000000E+00 0.  1.
         25    2    1    2    0    0 -0.15529155006E+02 -0.27322966782E+02 -0.38899321970E+02  0.13471767713E+03  0.12509195063E+03 0.  0.
          5    1    3    3  502    0 -0.38699207395E+02  0.38014210423E+02 -0.35937171356E+02  0.65204766177E+02  0.41800000000E+01 0. -1.
         -5    1    3    3    0  502  0.23170052389E+02 -0.65337177205E+02 -0.29621506142E+01  0.69512910952E+02  0.41800000000E+01 0. -1.
        -11    1    1    2    0    0  0.23468964814E+02 -0.23247317165E+02 -0.13565300377E+02  0.35710606816E+02  0.00000000000E+00 0.  1.
         11    1    1    2    0    0 -0.79398098079E+01  0.50570283947E+02  0.43347140802E+02  0.67077334578E+02  0.00000000000E+00 0. -1.
</event>
<event>
 7    1  0.2842702E-009  0.1529263E+03  0.7561462E-02  0.1196923E+00
         -1   -1    0    0    0  501 -0.00000000000E+00  0.00000000000E+00  0.13725029304E+03  0.13725029304E+03  0.00000000000E+00 0.  1.
          1   -1    0    0  501    0  0.00000000000E+00 -0.00000000000E+00 -0.23235429718E+03  0.23235429718E+03  0.00000000000E+00 0. -1.
         25    2    1    2    0    0 -0.50856018894E+01 -0.13972217179E+03 -0.74425736165E+02  0.20181983919E+03  0.12507561172E+03 0.  0.
          5    1    3    3  502    0  0.37561367666E+01 -0.48331363224E+02 -0.95805665963E+02  0.10745337252E+03  0.41800000000E+01 0. -1.
         -5    1    3    3    0  502 -0.88417386560E+01 -0.91390808569E+02  0.21379929798E+02  0.94366466669E+02  0.41800000000E+01 0. -1.
        -11    1    1    2    0    0  0.46086595760E+02  0.60225976648E+02 -0.19613843159E+02  0.78331637385E+02  0.00000000000E+00 0.  1.
         11    1    1    2    0    0 -0.41000993871E+02  0.79496195145E+02 -0.10644248092E+01  0.89453113647E+02  0.00000000000E+00 0. -1.
</event>
<event>
 7    1  0.2842702E-009  0.1030101E+03  0.7561462E-02  0.1274091E+00
          2   -1    0    0  501    0  0.00000000000E+00  0.00000000000E+00  0.91307719317E+03  0.91307719317E+03  0.00000000000E+00 0. -1.
         -2   -1    0    0    0  501 -0.00000000000E+00 -0.00000000000E+00 -0.26299777264E+02  0.26299777264E+02  0.00000000000E+00 0.  1.
         25    2    1    2    0    0 -0.45041920594E+02 -0.34920671313E+01  0.78958583163E+03  0.80070870506E+03  0.12509066992E+03 0.  0.
          5    1    3    3  502    0 -0.19658255028E+02  0.57021650193E+02  0.50600753644E+03  0.50960672573E+03  0.41800000000E+01 0. -1.
         -5    1    3    3    0  502 -0.25383665566E+02 -0.60513717325E+02  0.28357829520E+03  0.29110197933E+03  0.41800000000E+01 0. -1.
        -11    1    1    2    0    0  0.38194602381E+02  0.32407274264E+02  0.16594202876E+02  0.52767666666E+02  0.00000000000E+00 0.  1.
         11    1    1    2    0    0  0.68473182129E+01 -0.28915207133E+02  0.80597381397E+02  0.85900598707E+02  0.00000000000E+00 0. -1.
</event>
<event>
 7    1  0.2842702E-009  0.1298052E+03  0.7561462E-02  0.1227745E+00
         -1   -1    0    0    0  501 -0.00000000000E+00  0.00000000000E+00  0.50037230190E+03  0.50037230190E+03  0.00000000000E+00 0.  1.
          1   -1    0    0  501    0  0.00000000000E+00 -0.00000000000E+00 -0.46791129831E+02  0.46791129831E+02  0.00000000000E+00 0. -1.
         25    2    1    2    0    0  0.15290843269E+02  0.89534261639E+02  0.14080677339E+03  0.20910392821E+03  0.12509081288E+03 0.  0.
          5    1    3    3  502    0  0.19702299157E+02 -0.23247443537E+02  0.68250505028E+02  0.74861392317E+02  0.41800000000E+01 0.  1.
         -5    1    3    3    0  502 -0.44114558878E+01  0.11278170518E+03  0.72556268361E+02  0.13424253590E+03  0.41800000000E+01 0.  1.
        -11    1    1    2    0    0  0.20456529453E+02 -0.74271336549E+02  0.26758272112E+03  0.27845145658E+03  0.00000000000E+00 0. -1.
         11    1    1    2    0    0 -0.35747372722E+02 -0.15262925091E+02  0.45191677560E+02  0.59608046936E+02  0.00000000000E+00 0.  1.
</event>
<event>
 7    1  0.2842702E-009  0.1294526E+03  0.7561462E-02  0.1228270E+00
         -1   -1    0    0    0  501 -0.00000000000E+00  0.00000000000E+00  0.64243590886E+02  0.64243590886E+02  0.00000000000E+00 0.  1.
          1   -1    0    0  501    0  0.00000000000E+00 -0.00000000000E+00 -0.34770916878E+03  0.34770916878E+03  0.00000000000E+00 0. -1.
         25    2    1    2    0    0  0.84330821172E+02 -0.53753399665E+02 -0.12447953543E+03  0.20284218542E+03  0.12509469242E+03 0.  0.
          5    1    3    3  502    0  0.26141995487E+01 -0.40688065317E+02  0.12414157736E+02  0.42824483778E+02  0.41800000000E+01 0. -1.
         -5    1    3    3    0  502  0.81716621624E+02 -0.13065334348E+02 -0.13689369317E+03  0.16001770165E+03  0.41800000000E+01 0. -1.
        -11    1    1    2    0    0  0.15589907063E+02  0.27719851546E+02 -0.47392131804E+02  0.57074070548E+02  0.00000000000E+00 0. -1.
         11    1    1    2    0    0 -0.99920728236E+02  0.26033548119E+02 -0.11159391065E+03  0.15203650369E+03  0.00000000000E+00 0.  1.
</event>
<event>
 7    1  0.2842702E-009  0.1408106E+03  0.7561462E-02  0.1212242E+00
          1   -1    0    0  501    0  0.00000000000E+00  0.00000000000E+00  0.17147523230E+03  0.17147523230E+03  0.00000000000E+00 0. -1.
         -1   -1    0    0    0  501 -0.00000000000E+00 -0.00000000000E+00 -0.17939467065E+03  0.17939467065E+03  0.00000000000E+00 0.  1.
         25    2    1    2    0    0 -0.11517652631E+03  0.13975200830E+02 -0.77115293761E+02  0.18722870317E+03  0.12508749061E+03 0.  0.
          5    1    3    3  502    0 -0.10480910612E+02  0.25779119651E+02 -0.76792767295E+02  0.81786392548E+02  0.41800000000E+01 0.  1.
         -5    1    3    3    0  502 -0.10469561569E+03 -0.11803918821E+02 -0.32252646665E+00  0.10544231062E+03  0.41800000000E+01 0.  1.
        -11    1    1    2    0    0  0.50206526148E+02 -0.52388863373E+02  0.38692480170E+02  0.82233790470E+02  0.00000000000E+00 0. -1.
         11    1    1    2    0    0  0.64970000158E+02  0.38413662542E+02  0.30503375235E+02  0.81407409314E+02  0.00000000000E+00 0.  1.
</event>
<event>
 7    1  0.2842702E-009  0.1419368E+03  0.7561462E-02  0.1210746E+00
         -1   -1    0    0    0  501 -0.00000000000E+00  0.00000000000E+00  0.52134292531E+03  0.52134292531E+03  0.00000000000E+00 0. -1.
          1   -1    0    0  501    0  0.00000000000E+00 -0.00000000000E+00 -0.54739172774E+02  0.54739172774E+02  0.00000000000E+00 0.  1.
         25    2    1    2    0    0  0.10265680352E+03 -0.42482450544E+02  0.14031189126E+03  0.21835693120E+03  0.12509654137E+03 0.  0.
          5    1    3    3  502    0 -0.50568005888E+01  0.28991146558E+02  0.57646279783E+02  0.64858490453E+02  0.41800000000E+01 0. -1.
         -5    1    3    3    0  502  0.10771360411E+03 -0.71473597103E+02  0.82665611474E+02  0.15349844075E+03  0.41800000000E+01 0. -1.
        -11    1    1    2    0    0 -0.72300787125E+02 -0.36432958214E+00  0.88871944600E+02  0.11456770527E+03  0.00000000000E+00 0. -1.
         11    1    1    2    0    0 -0.30356016395E+02  0.42846780127E+02  0.23741991667E+03  0.24315746160E+03  0.00000000000E+00 0.  1.
</event>
<event>
 7    1  0.2842702E-009  0.1768872E+03  0.7561462E-02  0.1170850E+00
         -1   -1    0    0    0  501 -0.00000000000E+00  0.00000000000E+00  0.13926384843E+03  0.13926384843E+03  0.00000000000E+00 0.  1.
          1   -1    0    0  501    0  0.00000000000E+00 -0.00000000000E+00 -0.23345876627E+03  0.23345876627E+03  0.00000000000E+00 0. -1.
         25    2    1    2    0    0 -0.10933245314E+03  0.92350503965E+02 -0.66547816720E+02  0.20138847488E+03  0.12508599046E+03 0.  0.
          5    1    3    3  502    0 -0.39104371242E+02 -0.28297097407E+02 -0.30140843400E+02  0.57059796817E+02  0.41800000000E+01 0. -1.
         -5    1    3    3    0  502 -0.70228081897E+02  0.12064760137E+03 -0.36406973320E+02  0.14432867806E+03  0.41800000000E+01 0. -1.
        -11    1    1    2    0    0  0.85710383960E+02 -0.17905573237E+02 -0.31709946100E+02  0.93125722296E+02  0.00000000000E+00 0. -1.
         11    1    1    2    0    0  0.23622069179E+02 -0.74444930728E+02  0.40628449791E+01  0.78208417531E+02  0.00000000000E+00 0.  1.
</event>
<event>
 7    1  0.2842702E-009  0.1208536E+03  0.7561462E-02  0.1241696E+00
          1   -1    0    0  501    0  0.00000000000E+00  0.00000000000E+00  0.12310860050E+03  0.12310860050E+03  0.00000000000E+00 0. -1.
         -1   -1    0    0    0  501 -0.00000000000E+00 -0.00000000000E+00 -0.15552550311E+03  0.15552550311E+03  0.00000000000E+00 0.  1.
         25    2    1    2    0    0  0.60888291870E+02 -0.22696353410E+02  0.37862932503E+02  0.14595267265E+03  0.12508426140E+03 0.  0.
          5    1    3    3  502    0 -0.11007989707E+02  0.35464647195E+02 -0.13927756065E+02  0.39879466234E+02  0.41800000000E+01 0. -1.
         -5    1    3    3    0  502  0.71896281578E+02 -0.58161000606E+02  0.51790688568E+02  0.10607320641E+03  0.41800000000E+01 0. -1.
        -11    1    1    2    0    0 -0.61266493808E+01 -0.33056776705E+02 -0.28449436533E+02  0.44041534463E+02  0.00000000000E+00 0.  1.
         11    1    1    2    0    0 -0.54761642489E+02  0.55753130116E+02 -0.41830398577E+02  0.88639896496E+02  0.00000000000E+00 0. -1.
</event>
<event>
 7    1  0.2842702E-009  0.9550913E+02  0.7561462E-02  0.1290033E+00
         -2   -1    0    0    0  501 -0.00000000000E+00  0.00000000000E+00  0.82522432267E+02  0.82522432267E+02  0.00000000000E+00 0.  1.
          2   -1    0    0  501    0  0.00000000000E+00 -0.00000000000E+00 -0.15828013188E+03  0.15828013188E+03  0.00000000000E+00 0. -1.
         25    2    1    2    0    0 -0.70727791895E+00  0.25329401574E+02 -0.35787592538E+02  0.13255403309E+03  0.12509093126E+03 0.  0.
          5    1    3    3  502    0  0.20307093054E+02 -0.42250398869E+02 -0.39671028559E+02  0.61552718379E+02  0.41800000000E+01 0. -1.
         -5    1    3    3    0  502 -0.21014370973E+02  0.67579800443E+02  0.38834360202E+01  0.71001314711E+02  0.41800000000E+01 0. -1.
        -11    1    1    2    0    0  0.18082827433E+02 -0.43990469852E+02  0.13132293505E+02  0.49341739110E+02  0.00000000000E+00 0.  1.
         11    1    1    2    0    0 -0.17375549514E+02  0.18661068277E+02 -0.53102400582E+02  0.58906791949E+02  0.00000000000E+00 0. -1.
</event>
<event>
 7    1  0.2842702E-009  0.1141588E+03  0.7561462E-02  0.1253057E+00
          1   -1    0    0  501    0  0.00000000000E+00  0.00000000000E+00  0.19645713270E+03  0.19645713270E+03  0.00000000000E+00 0. -1.
         -1   -1    0    0    0  501 -0.00000000000E+00 -0.00000000000E+00 -0.10412315062E+03  0.10412315062E+03  0.00000000000E+00 0.  1.
         25    2    1    2    0    0  0.85433121233E+02  0.31736773412E+02  0.34650872314E+02  0.15860229023E+03  0.12509181637E+03 0.  0.
          5    1    3    3  502    0 -0.84361648600E+01  0.16460764014E+02 -0.35570108846E+02  0.40309188441E+02  0.41800000000E+01 0. -1.
         -5    1    3    3    0  502  0.93869286093E+02  0.15276009399E+02  0.70220981161E+02  0.11829310178E+03  0.41800000000E+01 0. -1.
        -11    1    1    2    0    0 -0.20266596447E+02  0.21840479007E+02 -0.12428936465E+02  0.32283430990E+02  0.00000000000E+00 0.  1.
         11    1    1    2    0    0 -0.65166524786E+02 -0.53577252419E+02  0.70112046230E+02  0.10969456211E+03  0.00000000000E+00 0. -1.
</event>
<event>
 7    1  0.2842702E-009  0.1151746E+03  0.7561462E-02  0.1251277E+00
         -1   -1    0    0    0  501 -0.00000000000E+00  0.00000000000E+00  0.28533725288E+02  0.28533725288E+02  0.00000000000E+00 0.  1.
          1   -1    0    0  501    0  0.00000000000E+00 -0.00000000000E+00 -0.48195680595E+03  0.48195680595E+03  0.00000000000E+00 0. -1.
         25    2    1    2    0    0  0.33328706761E+02 -0.30416209449E+02 -0.24744054029E+03  0.28091072042E+03  0.12509221950E+03 0.  0.
          5    1    3    3  502    0 -0.19630613810E+02  0.37808300438E+02 -0.53121470576E+02  0.68221635987E+02  0.41800000000E+01 0. -1.
         -5    1    3    3    0  502  0.52959320571E+02 -0.68224509887E+02 -0.19431906971E+03  0.21268908443E+03  0.41800000000E+01 0. -1.
        -11    1    1    2    0    0  0.15764397087E+02 -0.23410465139E+02 -0.49798942310E+02  0.57240726312E+02  0.00000000000E+00 0.  1.
         11    1    1    2    0    0 -0.49093103848E+02  0.53826674588E+02 -0.15618359806E+03  0.17233908450E+03  0.00000000000E+00 0. -1.
</event>
<event>
 7    1  0.2842702E-009  0.1160930E+03  0.7561462E-02  0.1249685E+00
         -2   -1    0    0    0  501 -0.00000000000E+00  0.00000000000E+00  0.27886503251E+03  0.27886503251E+03  0.00000000000E+00 0.  1.
          2   -1    0    0  501    0  0.00000000000E+00 -0.00000000000E+00 -0.70150475462E+02  0.70150475462E+02  0.00000000000E+00 0. -1.
         25    2    1    2    0    0  0.55394344909E+02 -0.33611455346E+02  0.19104480450E+03  0.23737622289E+03  0.12510431842E+03 0.  0.
          5    1    3    3  502    0 -0.70931618608E+00 -0.71416850183E+02  0.11567124172E+03  0.13600800778E+03  0.41800000000E+01 0. -1.
         -5    1    3    3    0  502  0.56103661095E+02  0.37805394838E+02  0.75373562781E+02  0.10136821510E+03  0.41800000000E+01 0. -1.
        -11    1    1    2    0    0  0.57156337153E+01 -0.14176532088E+02  0.29443163430E+02  0.33174423938E+02  0.00000000000E+00 0.  1.
         11    1    1    2    0    0 -0.61109978624E+02  0.47787987434E+02 -0.11773410889E+02  0.78464861144E+02  0.00000000000E+00 0. -1.
</event>
<event>
 7    1  0.2842702E-009  0.2103818E+03  0.7561462E-02  0.1141264E+00
          1   -1    0    0  501    0  0.00000000000E+00  0.00000000000E+00  0.64162176994E+03  0.64162176994E+03  0.00000000000E+00 0. -1.
         -1   -1    0    0    0  501 -0.00000000000E+00 -0.00000000000E+00 -0.77917657164E+02  0.77917657164E+02  0.00000000000E+00 0.  1.
         25    2    1    2    0    0  0.50496464472E+02 -0.18666314104E+03  0.24943202048E+03  0.33949731217E+03  0.12509624688E+03 0.  0.
          5    1    3    3  502    0  0.79986297914E+02 -0.17434715833E+03  0.18060002399E+03  0.26349303698E+03  0.41800000000E+01 0. -1.
         -5    1    3    3    0  502 -0.29489833442E+02 -0.12315982714E+02  0.68831996489E+02  0.76004275191E+02  0.41800000000E+01 0. -1.
        -11    1    1    2    0    0 -0.37737551513E+02  0.71937536455E+02  0.60623451795E+02  0.10136239368E+03  0.00000000000E+00 0.  1.
         11    1    1    2    0    0 -0.12758912959E+02  0.11472560459E+03  0.25364864050E+03  0.27867972125E+03  0.00000000000E+00 0. -1.
</event>
<event>
 7    1  0.2842702E-009  0.1440748E+03  0.7561462E-02  0.1207949E+00
          2   -1    0    0  501    0  0.00000000000E+00  0.00000000000E+00  0.39954062939E+03  0.39954062939E+03  0.00000000000E+00 0. -1.
         -2   -1    0    0    0  501 -0.00000000000E+00 -0.00000000000E+00 -0.53369483419E+02  0.53369483419E+02  0.00000000000E+00 0.  1.
         25    2    1    2    0    0 -0.65463192237E+02 -0.71454527683E+02  0.17863754155E+03  0.23864216660E+03  0.12509010098E+03 0.  0.
          5    1    3    3  502    0  0.11977944387E+02  0.27197612629E+02  0.18731569487E+02  0.35376904611E+02  0.41800000000E+01 0.  1.
         -5    1    3    3    0  502 -0.77441136623E+02 -0.98652140311E+02  0.15990597207E+03  0.20326526199E+03  0.41800000000E+01 0.  1.
        -11    1    1    2    0    0 -0.23083700283E+02  0.17437909044E+02  0.47625189857E+02  0.55723393646E+02  0.00000000000E+00 0.  1.
         11    1    1    2    0    0  0.88546892519E+02  0.54016618639E+02  0.11990841456E+03  0.15854455256E+03  0.00000000000E+00 0. -1.
</event>
<event>
 7    1  0.2842702E-009  0.9723833E+02  0.7561462E-02  0.1286213E+00
         -2   -1    0    0    0  501 -0.00000000000E+00  0.00000000000E+00  0.19069397897E+03  0.19069397897E+03  0.00000000000E+00 0.  1.
          2   -1    0    0  501    0  0.00000000000E+00 -0.00000000000E+00 -0.75822799622E+02  0.75822799622E+02  0.00000000000E+00 0. -1.
         25    2    1    2    0    0 -0.17575888996E+02 -0.54804179656E+02  0.71594831962E+02  0.15519424699E+03  0.12508806640E+03 0.  0.
          5    1    3    3  502    0 -0.69305156365E+02 -0.48143103615E+02  0.35587869893E+02  0.91678416259E+02  0.41800000000E+01 0. -1.
         -5    1    3    3    0  502  0.51729267369E+02 -0.66610760413E+01  0.36006962069E+02  0.63515830735E+02  0.41800000000E+01 0. -1.
        -11    1    1    2    0    0  0.78795395834E+01  0.18980916439E+02  0.65101498985E+02  0.68268349204E+02  0.00000000000E+00 0.  1.
         11    1    1    2    0    0  0.96963494124E+01  0.35823263216E+02 -0.21825151598E+02  0.43054182395E+02  0.00000000000E+00 0. -1.
</event>
<event>
 7    1  0.2842702E-009  0.1465664E+03  0.7561462E-02  0.1204757E+00
         -1   -1    0    0    0  501 -0.00000000000E+00  0.00000000000E+00  0.16588652911E+03  0.16588652911E+03  0.00000000000E+00 0.  1.
          1   -1    0    0  501    0  0.00000000000E+00 -0.00000000000E+00 -0.51389814248E+03  0.51389814248E+03  0.00000000000E+00 0. -1.
         25    2    1    2    0    0  0.71740121282E+02 -0.10377906335E+03 -0.45629656677E+03  0.48966388180E+03  0.12508965303E+03 0.  0.
          5    1    3    3  502    0  0.51838717468E+02 -0.11807401674E+03 -0.24486560017E+03  0.27677673422E+03  0.41800000000E+01 0.  1.
         -5    1    3    3    0  502  0.19901403814E+02  0.14294953385E+02 -0.21143096660E+03  0.21288714758E+03  0.41800000000E+01 0.  1.
        -11    1    1    2    0    0  0.70908953493E+00  0.47526353390E+02  0.81872731552E+02  0.94669959577E+02  0.00000000000E+00 0. -1.
         11    1    1    2    0    0 -0.72449210817E+02  0.56252709960E+02  0.26412221848E+02  0.95450830215E+02  0.00000000000E+00 0.  1.
</event>
<event>
 7    1  0.2842702E-009  0.1206477E+03  0.7561462E-02  0.1242032E+00
          2   -1    0    0  501    0  0.00000000000E+00  0.00000000000E+00  0.41879411328E+03  0.41879411328E+03  0.00000000000E+00 0. -1.
         -2   -1    0    0    0  501 -0.00000000000E+00 -0.00000000000E+00 -0.40423180401E+02  0.40423180401E+02  0.00000000000E+00 0.  1.
         25    2    1    2    0    0  0.58510324814E+02 -0.17594544103E+02  0.27791526461E+03  0.31083370786E+03  0.12509066132E+03 0.  0.
          5    1    3    3  502    0  0.70379051207E+02  0.39246558759E+02  0.15116463489E+03  0.17135262608E+03  0.41800000000E+01 0.  1.
         -5    1    3    3    0  502 -0.11868726393E+02 -0.56841102862E+02  0.12675062972E+03  0.13948108179E+03  0.41800000000E+01 0.  1.
        -11    1    1    2    0    0 -0.75123162101E+02 -0.38963326897E+01  0.94126631076E+02  0.12049271169E+03  0.00000000000E+00 0.  1.
         11    1    1    2    0    0  0.16612837288E+02  0.21490876793E+02  0.63290371968E+01  0.27890874133E+02  0.00000000000E+00 0. -1.
</event>
<event>
 7    1  0.2842702E-009  0.1718803E+03  0.7561462E-02  0.1175901E+00
          1   -1    0    0  501    0  0.00000000000E+00  0.00000000000E+00  0.51416632280E+03  0.51416632280E+03  0.00000000000E+00 0. -1.
         -1   -1    0    0    0  501 -0.00000000000E+00 -0.00000000000E+00 -0.72261111284E+02  0.72261111284E+02  0.00000000000E+00 0.  1.
         25    2    1    2    0    0 -0.14390613438E+03 -0.11587540519E+02  0.13059460584E+03  0.23140163552E+03  0.12509404159E+03 0.  0.
          5    1    3    3  502    0 -0.16542783626E+03 -0.14831332152E+02  0.12660172874E+03  0.20888228154E+03  0.41800000000E+01 0.  1.
         -5    1    3    3    0  502  0.21521701884E+02  0.32437916330E+01  0.39928770986E+01  0.22519353980E+02  0.41800000000E+01 0.  1.
        -11    1    1    2    0    0  0.77211002289E+02 -0.22676762641E+02  0.86981418146E+02  0.11849701068E+03  0.00000000000E+00 0.  1.
         11    1    1    2    0    0  0.66695132086E+02  0.34264303160E+02  0.22432918753E+03  0.23652878788E+03  0.00000000000E+00 0. -1.
</event>
<event>
 7    1  0.2842702E-009  0.1175715E+03  0.7561462E-02  0.1247158E+00
         -1   -1    0    0    0  501 -0.00000000000E+00  0.00000000000E+00  0.26652154974E+03  0.26652154974E+03  0.00000000000E+00 0.  1.
          1   -1    0    0  501    0  0.00000000000E+00 -0.00000000000E+00 -0.69206379061E+02  0.69206379061E+02  0.00000000000E+00 0. -1.
         25    2    1    2    0    0  0.53914720244E+02 -0.21897025893E+02  0.18230015778E+03  0.22862274078E+03  0.12509489706E+03 0.  0.
          5    1    3    3  502    0 -0.39686313623E+02 -0.20823038182E+01  0.73644016658E+02  0.83786950462E+02  0.41800000000E+01 0. -1.
         -5    1    3    3    0  502  0.93601033867E+02 -0.19814722075E+02  0.10865614113E+03  0.14483579032E+03  0.41800000000E+01 0. -1.
        -11    1    1    2    0    0  0.46660722255E+00  0.41579854868E+02 -0.11990875769E+02  0.43276820064E+02  0.00000000000E+00 0. -1.
         11    1    1    2    0    0 -0.54381327466E+02 -0.19682828975E+02  0.27005888659E+02  0.63828367954E+02  0.00000000000E+00 0.  1.
</event>
<event>
 7    1  0.2842702E-009  0.1339679E+03  0.7561462E-02  0.1221684E+00
          2   -1    0    0  501    0  0.00000000000E+00  0.00000000000E+00  0.17397879435E+02  0.17397879435E+02  0.00000000000E+00 0. -1.
         -2   -1    0    0    0  501 -0.00000000000E+00 -0.00000000000E+00 -0.11119260527E+04  0.11119260527E+04  0.00000000000E+00 0.  1.
         25    2    1    2    0    0  0.16438325460E+02 -0.82285019751E+02 -0.66791089489E+03  0.68468639550E+03  0.12509777639E+03 0.  0.
          5    1    3    3  502    0  0.65800571486E+01 -0.11177170013E+03 -0.41580275223E+03  0.43063396436E+03  0.41800000000E+01 0.  1.
         -5    1    3    3    0  502  0.98582683115E+01  0.29486680377E+02 -0.25210814266E+03  0.25405243114E+03  0.41800000000E+01 0.  1.
        -11    1    1    2    0    0 -0.14218998182E+02 -0.18711424049E+02 -0.10160421935E+03  0.10428669469E+03  0.00000000000E+00 0.  1.
         11    1    1    2    0    0 -0.22193272777E+01  0.10099644380E+03 -0.32501305906E+03  0.34035084197E+03  0.00000000000E+00 0. -1.
</event>
<event>
 7    1  0.2842702E-009  0.1250653E+03  0.7561462E-02  0.1234967E+00
         -3   -1    0    0    0  501 -0.00000000000E+00  0.00000000000E+00  0.21966090258E+03  0.21966090258E+03  0.00000000000E+00 0.  1.
          3   -1    0    0  501    0  0.00000000000E+00 -0.00000000000E+00 -0.14821676452E+03  0.14821676452E+03  0.00000000000E+00 0. -1.
         25    2    1    2    0    0 -0.62911954297E+02 -0.84231580164E+02  0.13792810016E+03  0.21382912866E+03  0.12508342159E+03 0.  0.
          5    1    3    3  502    0 -0.83406641823E+02 -0.62090594340E+02  0.40359204119E+02  0.11161652012E+03  0.41800000000E+01 0. -1.
         -5    1    3    3    0  502  0.20494687526E+02 -0.22140985824E+02  0.97568896040E+02  0.10221260854E+03  0.41800000000E+01 0. -1.
        -11    1    1    2    0    0  0.44740087489E+02  0.20275218885E+02  0.12618682234E+02  0.50714801298E+02  0.00000000000E+00 0.  1.
         11    1    1    2    0    0  0.18171866808E+02  0.63956361279E+02 -0.79102644338E+02  0.10333373715E+03  0.00000000000E+00 0. -1.
</event>
<event>
 7    1  0.2842702E-009  0.1269890E+03  0.7561462E-02  0.1231993E+00
         -1   -1    0    0    0  501 -0.00000000000E+00  0.00000000000E+00  0.36927925132E+02  0.36927925132E+02  0.00000000000E+00 0.  1.
          1   -1    0    0  501    0  0.00000000000E+00 -0.00000000000E+00 -0.49261338516E+03  0.49261338516E+03  0.00000000000E+00 0. -1.
         25    2    1    2    0    0  0.48879619707E+02 -0.56219602674E+02 -0.23018837163E+03  0.27236793744E+03  0.12509095076E+03 0.  0.
          5    1    3    3  502    0  0.81830884723E+02 -0.77553658165E+01 -0.16641537169E+03  0.18565556207E+03  0.41800000000E+01 0.  1.
         -5    1    3    3    0  502 -0.32951265016E+02 -0.48464236857E+02 -0.63772999942E+02  0.86712375367E+02  0.41800000000E+01 0.  1.
        -11    1    1    2    0    0 -0.12130897836E+02 -0.22770443952E+02 -0.10718254065E+03  0.11024404211E+03  0.00000000000E+00 0. -1.
         11    1    1    2    0    0 -0.36748721871E+02  0.78990046626E+02 -0.11831454775E+03  0.14692933075E+03  0.00000000000E+00 0.  1.
</event>
<event>
 7    1  0.2842702E-009  0.1123233E+03  0.7561462E-02  0.1256327E+00
         -2   -1    0    0    0  501 -0.00000000000E+00  0.00000000000E+00  0.71031165383E+03  0.71031165383E+03  0.00000000000E+00 0.  1.
          2   -1    0    0  501    0  0.00000000000E+00 -0.00000000000E+00 -0.27232550892E+02  0.27232550892E+02  0.00000000000E+00 0. -1.
         25    2    1    2    0    0  0.79066973827E+02  0.11872843336E+02  0.46637462417E+03  0.48943630836E+03  0.12510019630E+03 0.  0.
          5    1    3    3  502    0  0.63501569585E+02 -0.41081715974E+02  0.37523760139E+03  0.38280659167E+03  0.41800000000E+01 0.  1.
         -5    1    3    3    0  502  0.15565404242E+02  0.52954559310E+02  0.91137022780E+02  0.10662971669E+03  0.41800000000E+01 0.  1.
        -11    1    1    2    0    0 -0.89158802052E+01  0.15794085176E+02 -0.54262843425E+00  0.18144985313E+02  0.00000000000E+00 0. -1.
         11    1    1    2    0    0 -0.70151093622E+02 -0.27666928512E+02  0.21724710721E+03  0.22996291105E+03  0.00000000000E+00 0.  1.
</event>
<event>
 7    1  0.2842702E-009  0.1011576E+03  0.7561462E-02  0.1277880E+00
          1   -1    0    0  501    0  0.00000000000E+00  0.00000000000E+00  0.28151303582E+03  0.28151303582E+03  0.00000000000E+00 0.  1.
         -1   -1    0    0    0  501 -0.00000000000E+00 -0.00000000000E+00 -0.54996525253E+02  0.54996525253E+02  0.00000000000E+00 0. -1.
         25    2    1    2    0    0 -0.40443363817E+01 -0.31917231683E+02  0.19704757345E+03  0.23560165252E+03  0.12508127811E+03 0.  0.
          5    1    3    3  502    0 -0.76226636948E+01 -0.79178103713E+02  0.14222327585E+03  0.16300984542E+03  0.41800000000E+01 0.  1.
         -5    1    3    3    0  502  0.35783273131E+01  0.47260872030E+02  0.54824297597E+02  0.72591807102E+02  0.41800000000E+01 0.  1.
        -11    1    1    2    0    0 -0.94228211800E+01  0.50923181959E+02  0.48405940864E+02  0.70887905391E+02  0.00000000000E+00 0.  1.
         11    1    1    2    0    0  0.13467157562E+02 -0.19005950275E+02 -0.18937003748E+02  0.30020003158E+02  0.00000000000E+00 0. -1.
</event>
<event>
 7    1  0.2842702E-009  0.9704937E+02  0.7561462E-02  0.1286626E+00
          1   -1    0    0  501    0  0.00000000000E+00  0.00000000000E+00  0.14374000427E+03  0.14374000427E+03  0.00000000000E+00 0. -1.
         -1   -1    0    0    0  501 -0.00000000000E+00 -0.00000000000E+00 -0.87836417999E+02  0.87836417999E+02  0.00000000000E+00 0.  1.
         25    2    1    2    0    0  0.17674770789E+02  0.19766687825E+02  0.48808164699E+02  0.13687351723E+03  0.12509597639E+03 0.  0.
          5    1    3    3  502    0 -0.28076790898E+02 -0.41547576912E+02  0.11316706163E+02  0.51575649029E+02  0.41800000000E+01 0. -1.
         -5    1    3    3    0  502  0.45751561687E+02  0.61314264737E+02  0.37491458536E+02  0.85297868205E+02  0.41800000000E+01 0. -1.
        -11    1    1    2    0    0  0.29994777641E+01  0.21127915460E+02 -0.29255896576E+02  0.36211782102E+02  0.00000000000E+00 0.  1.
         11    1    1    2    0    0 -0.20674248553E+02 -0.40894603285E+02  0.36351318153E+02  0.58491122938E+02  0.00000000000E+00 0. -1.
</event>
<event>
 7    1  0.2842702E-009  0.2063819E+03  0.7561462E-02  0.1144464E+00
         -1   -1    0    0    0  501 -0.00000000000E+00  0.00000000000E+00  0.48445905497E+02  0.48445905497E+02  0.00000000000E+00 0.  1.
          1   -1    0    0  501    0  0.00000000000E+00 -0.00000000000E+00 -0.10401415088E+04  0.10401415088E+04  0.00000000000E+00 0. -1.
         25    2    1    2    0    0  0.94371779116E+02 -0.16999093761E+03 -0.45421654657E+03  0.50966995027E+03  0.12509130850E+03 0.  0.
          5    1    3    3  502    0  0.65116931360E+02 -0.17632105208E+03 -0.43490950920E+03  0.47380700897E+03  0.41800000000E+01 0.  1.
         -5    1    3    3    0  502  0.29254847756E+02  0.63301144672E+01 -0.19307037370E+02  0.35862941296E+02  0.41800000000E+01 0.  1.
        -11    1    1    2    0    0 -0.52884500811E+02  0.10171606696E+03 -0.42986508157E+03  0.44488978080E+03  0.00000000000E+00 0.  1.
         11    1    1    2    0    0 -0.41487278304E+02  0.68274870649E+02 -0.10761397516E+03  0.13402768324E+03  0.00000000000E+00 0. -1.
</event>
<event>
 7    1  0.2842702E-009  0.1110752E+03  0.7561462E-02  0.1258592E+00
          2   -1    0    0  501    0  0.00000000000E+00  0.00000000000E+00  0.17644089065E+03  0.17644089065E+03  0.00000000000E+00 0. -1.
         -2   -1    0    0    0  501 -0.00000000000E+00 -0.00000000000E+00 -0.23781588007E+03  0.23781588007E+03  0.00000000000E+00 0.  1.
         25    2    1    2    0    0  0.51468333386E+02  0.63993797238E+02  0.12292610300E+03  0.19365585488E+03  0.12509023905E+03 0.  0.
          5    1    3    3  502    0 -0.22387752905E+02  0.28531339645E+02 -0.96418991012E+01  0.37758276448E+02  0.41800000000E+01 0. -1.
         -5    1    3    3    0  502  0.73856086291E+02  0.35462457593E+02  0.13256800210E+03  0.15589757843E+03  0.41800000000E+01 0. -1.
        -11    1    1    2    0    0 -0.33130608624E+02 -0.75160586610E+02 -0.18114809833E+03  0.19890043875E+03  0.00000000000E+00 0.  1.
         11    1    1    2    0    0 -0.18337724762E+02  0.11166789372E+02 -0.31529940882E+01  0.21700477092E+02  0.00000000000E+00 0. -1.
</event>
<event>
 7    1  0.2842702E-009  0.1059200E+03  0.7561462E-02  0.1268318E+00
          2   -1    0    0  501    0  0.00000000000E+00  0.00000000000E+00  0.16872895102E+03  0.16872895102E+03  0.00000000000E+00 0.  1.
         -2   -1    0    0    0  501 -0.00000000000E+00 -0.00000000000E+00 -0.12032234752E+03  0.12032234752E+03  0.00000000000E+00 0. -1.
         25    2    1    2    0    0 -0.40908177811E+02  0.34437131258E+02  0.10382867009E+03  0.17113275888E+03  0.12508650371E+03 0.  0.
          5    1    3    3  502    0  0.37108402152E+02 -0.26351503544E+01  0.67802589549E+02  0.77450894619E+02  0.41800000000E+01 0.  1.
         -5    1    3    3    0  502 -0.78016579963E+02  0.37072281612E+02  0.36026080536E+02  0.93681864263E+02  0.41800000000E+01 0.  1.
        -11    1    1    2    0    0  0.20590848381E+02  0.20680401084E+02  0.91886912598E+01  0.30595654481E+02  0.00000000000E+00 0.  1.
         11    1    1    2    0    0  0.20317329429E+02 -0.55117532342E+02 -0.64610757846E+02  0.87322885179E+02  0.00000000000E+00 0. -1.
</event>
<event>
 7    1  0.2842702E-009  0.7887961E+02  0.7561462E-02  0.1332261E+00
         -2   -1    0    0    0  501 -0.00000000000E+00  0.00000000000E+00  0.84386117917E+03  0.84386117917E+03  0.00000000000E+00 0.  1.
          2   -1    0    0  501    0  0.00000000000E+00 -0.00000000000E+00 -0.24876603203E+02  0.24876603203E+02  0.00000000000E+00 0. -1.
         25    2    1    2    0    0  0.14461568546E+02  0.10393908057E+02  0.72314569031E+03  0.73409629390E+03  0.12506202063E+03 0.  0.
          5    1    3    3  502    0  0.55521905220E+02  0.19721588569E+02  0.61709866230E+03  0.61991923218E+03  0.41800000000E+01 0.  1.
         -5    1    3    3    0  502 -0.41060336674E+02 -0.93276805124E+01  0.10604702801E+03  0.11417706171E+03  0.41800000000E+01 0.  1.
        -11    1    1    2    0    0  0.10430447187E+02  0.16633660709E+02  0.95908730655E+02  0.97897689007E+02  0.00000000000E+00 0.  1.
         11    1    1    2    0    0 -0.24892015734E+02 -0.27027568766E+02 -0.69845007569E-01  0.36743799463E+02  0.00000000000E+00 0. -1.
</event>
<event>
 7    1  0.2842702E-009  0.1094178E+03  0.7561462E-02  0.1261652E+00
         -1   -1    0    0    0  501 -0.00000000000E+00  0.00000000000E+00  0.61330038497E+03  0.61330038497E+03  0.00000000000E+00 0.  1.
          1   -1    0    0  501    0  0.00000000000E+00 -0.00000000000E+00 -0.24200612352E+02  0.24200612352E+02  0.00000000000E+00 0. -1.
         25    2    1    2    0    0 -0.96972201367E+01 -0.71048789085E+02  0.36904346980E+03  0.39620836414E+03  0.12508404655E+03 0.  0.
          5    1    3    3  502    0 -0.25488112920E+02 -0.10397408177E+03  0.28540296279E+03  0.30484844948E+03  0.41800000000E+01 0.  1.
         -5    1    3    3    0  502  0.15790892783E+02  0.32925292685E+02  0.83640507011E+02  0.91359914658E+02  0.41800000000E+01 0.  1.
        -11    1    1    2    0    0  0.16276557389E+02  0.59168234984E+02  0.21926327954E+03  0.22768880540E+03  0.00000000000E+00 0.  1.
         11    1    1    2    0    0 -0.65793372522E+01  0.11880554101E+02  0.79302327889E+00  0.13603827783E+02  0.00000000000E+00 0. -1.
</event>
<event>
 7    1  0.2842702E-009  0.1626688E+03  0.7561462E-02  0.1185716E+00
         -2   -1    0    0    0  501 -0.00000000000E+00  0.00000000000E+00  0.25492421724E+02  0.25492421724E+02  0.00000000000E+00 0.  1.
          2   -1    0    0  501    0  0.00000000000E+00 -0.00000000000E+00 -0.11115385334E+04  0.11115385334E+04  0.00000000000E+00 0. -1.
         25    2    1    2    0    0 -0.26918932830E+01  0.12953543152E+03 -0.58540563263E+03  0.61248185186E+03  0.12509032670E+03 0.  0.
          5    1    3    3  502    0 -0.56831081031E+02  0.54965733381E+02 -0.36614154459E+03  0.37460393310E+03  0.41800000000E+01 0. -1.
         -5    1    3    3    0  502  0.54139187748E+02  0.74569698142E+02 -0.21926408804E+03  0.23787791877E+03  0.41800000000E+01 0. -1.
        -11    1    1    2    0    0 -0.24356321707E+02 -0.30183729783E+01 -0.12115810535E+03  0.12361887993E+03  0.00000000000E+00 0. -1.
         11    1    1    2    0    0  0.27048214990E+02 -0.12651705854E+03 -0.37948237366E+03  0.40093022330E+03  0.00000000000E+00 0.  1.
</event>
<event>
 7    1  0.2842702E-009  0.1218216E+03  0.7561462E-02  0.1240122E+00
         -2   -1    0    0    0  501 -0.00000000000E+00  0.00000000000E+00  0.81485701608E+02  0.81485701608E+02  0.00000000000E+00 0.  1.
          2   -1    0    0  501    0  0.00000000000E+00 -0.00000000000E+00 -0.20662486695E+03  0.20662486695E+03  0.00000000000E+00 0. -1.
         25    2    1    2    0    0 -0.64698793526E+02  0.45535817976E+01 -0.41756784210E+02  0.14696227381E+03  0.12509041493E+03 0.  0.
          5    1    3    3  502    0  0.26485992481E+02 -0.31157817529E+02 -0.18995187561E+01  0.41150916908E+02  0.41800000000E+01 0. -1.
         -5    1    3    3    0  502 -0.91184786007E+02  0.35711399326E+02 -0.39857265453E+02  0.10581135691E+03  0.41800000000E+01 0. -1.
        -11    1    1    2    0    0 -0.15954565075E+01  0.29806450453E+02 -0.52401801073E+02  0.60306871299E+02  0.00000000000E+00 0. -1.
         11    1    1    2    0    0  0.66294250033E+02 -0.34360032251E+02 -0.30980580059E+02  0.80841423445E+02  0.00000000000E+00 0.  1.
</event>
<event>
 7    1  0.2842702E-009  0.1815497E+03  0.7561462E-02  0.1166312E+00
          1   -1    0    0  501    0  0.00000000000E+00  0.00000000000E+00  0.50046614250E+02  0.50046614250E+02  0.00000000000E+00 0. -1.
         -1   -1    0    0    0  501 -0.00000000000E+00 -0.00000000000E+00 -0.11358519843E+04  0.11358519843E+04  0.00000000000E+00 0.  1.
         25    2    1    2    0    0  0.66182326608E+02 -0.14766241428E+03 -0.90166353137E+03  0.92457136036E+03  0.12510310804E+03 0.  0.
          5    1    3    3  502    0 -0.87877906109E+01 -0.67629857390E+02 -0.59409359809E+03  0.59800978133E+03  0.41800000000E+01 0. -1.
         -5    1    3    3    0  502  0.74970117219E+02 -0.80032556890E+02 -0.30756993328E+03  0.32656157902E+03  0.41800000000E+01 0. -1.
        -11    1    1    2    0    0  0.22621925423E+02  0.27310178922E+02 -0.42270333302E+02  0.55175886582E+02  0.00000000000E+00 0. -1.
         11    1    1    2    0    0 -0.88804252032E+02  0.12035223536E+03 -0.14187150539E+03  0.20615135162E+03  0.00000000000E+00 0.  1.
</event>
<event>
 7    1  0.2842702E-009  0.1020235E+03  0.7561462E-02  0.1276098E+00
         -1   -1    0    0    0  501 -0.00000000000E+00  0.00000000000E+00  0.11983734166E+03  0.11983734166E+03  0.00000000000E+00 0.  1.
          1   -1    0    0  501    0  0.00000000000E+00 -0.00000000000E+00 -0.11945085206E+03  0.11945085206E+03  0.00000000000E+00 0. -1.
         25    2    1    2    0    0 -0.49730801186E+02 -0.61807577068E+01 -0.15118241444E+02  0.13558618111E+03  0.12507476536E+03 0.  0.
          5    1    3    3  502    0  0.29904637919E+02 -0.32090897718E+02 -0.25798087125E+02  0.51060031186E+02  0.41800000000E+01 0.  1.
         -5    1    3    3    0  502 -0.79635439105E+02  0.25910140011E+02  0.10679845681E+02  0.84526149922E+02  0.41800000000E+01 0.  1.
        -11    1    1    2    0    0 -0.12331186720E+02  0.67753043564E+01  0.35749673089E+02  0.38418771988E+02  0.00000000000E+00 0.  1.
         11    1    1    2    0    0  0.62061987906E+02 -0.59454664963E+00 -0.20244942047E+02  0.65283240629E+02  0.00000000000E+00 0. -1.
</event>
<event>
 7    1  0.2842702E-009  0.6843588E+02  0.7561462E-02  0.1365494E+00
          1   -1    0    0  501    0  0.00000000000E+00  0.00000000000E+00  0.79284215110E+03  0.79284215110E+03  0.00000000000E+00 0. -1.
         -1   -1    0    0    0  501 -0.00000000000E+00 -0.00000000000E+00 -0.17543766762E+02  0.17543766762E+02  0.00000000000E+00 0.  1.
         25    2    1    2    0    0  0.21350046400E+02  0.31504193505E+02  0.54144797692E+03  0.55700940520E+03  0.12508088214E+03 0.  0.
          5    1    3    3  502    0 -0.67692416342E+00  0.13562862053E+02  0.52230554715E+03  0.52249877170E+03  0.41800000000E+01 0. -1.
         -5    1    3    3    0  502  0.22026970563E+02  0.17941331452E+02  0.19142429778E+02  0.34510633496E+02  0.41800000000E+01 0. -1.
        -11    1    1    2    0    0 -0.54590690831E+02 -0.13894314563E+02  0.10511272804E+03  0.11925552859E+03  0.00000000000E+00 0.  1.
         11    1    1    2    0    0  0.33240644431E+02 -0.17609878942E+02  0.12873767937E+03  0.13412098407E+03  0.00000000000E+00 0. -1.
</event>
<event>
 7    1  0.2842702E-009  0.1439222E+03  0.7561462E-02  0.1208147E+00
         -1   -1    0    0    0  501 -0.00000000000E+00  0.00000000000E+00  0.98177701542E+02  0.98177701542E+02  0.00000000000E+00 0.  1.
          1   -1    0    0  501    0  0.00000000000E+00 -0.00000000000E+00 -0.34431650144E+03  0.34431650144E+03  0.00000000000E+00 0. -1.
         25    2    1    2    0    0  0.13905891279E+03 -0.31797584545E+02 -0.17485959992E+03  0.25801757286E+03  0.12509484646E+03 0.  0.
          5    1    3    3  502    0  0.43703368912E+02 -0.13875966408E+02  0.11865380980E+02  0.47547729324E+02  0.41800000000E+01 0. -1.
         -5    1    3    3    0  502  0.95355543881E+02 -0.17921618137E+02 -0.18672498090E+03  0.21046984354E+03  0.41800000000E+01 0. -1.
        -11    1    1    2    0    0 -0.11395038085E+03  0.16120316133E+02 -0.88978140938E+01  0.11542844097E+03  0.00000000000E+00 0.  1.
         11    1    1    2    0    0 -0.25108531944E+02  0.15677268412E+02 -0.62381385878E+02  0.69048189152E+02  0.00000000000E+00 0. -1.
</event>
<event>
 7    1  0.2842702E-009  0.1810991E+03  0.7561462E-02  0.1166744E+00
         -1   -1    0    0    0  501 -0.00000000000E+00  0.00000000000E+00  0.17378713091E+02  0.17378713091E+02  0.00000000000E+00 0.  1.
          1   -1    0    0  501    0  0.00000000000E+00 -0.00000000000E+00 -0.22373142679E+04  0.22373142679E+04  0.00000000000E+00 0. -1.
         25    2    1    2    0    0  0.11970523493E+03 -0.96938369809E+02 -0.14662486453E+04  0.14796141998E+04  0.12508676844E+03 0.  0.
          5    1    3    3  502    0  0.28401283971E+02 -0.86490449956E+02 -0.44529764692E+03  0.45452689427E+03  0.41800000000E+01 0. -1.
         -5    1    3    3    0  502  0.91303950959E+02 -0.10447919853E+02 -0.10209509984E+04  0.10250873055E+04  0.41800000000E+01 0. -1.
        -11    1    1    2    0    0 -0.51403988688E+02 -0.98220309608E+01 -0.27256451998E+03  0.27754325770E+03  0.00000000000E+00 0. -1.
         11    1    1    2    0    0 -0.68301246242E+02  0.10676040077E+03 -0.48112238952E+03  0.49753552346E+03  0.00000000000E+00 0.  1.
</event>
<event>
 7    1  0.2842702E-009  0.1336286E+03  0.7561462E-02  0.1222169E+00
          1   -1    0    0  501    0  0.00000000000E+00  0.00000000000E+00  0.12599407513E+04  0.12599407513E+04  0.00000000000E+00 0. -1.
         -1   -1    0    0    0  501 -0.00000000000E+00 -0.00000000000E+00 -0.21280662963E+02  0.21280662963E+02  0.00000000000E+00 0.  1.
         25    2    1    2    0    0  0.21470901322E+02 -0.10328099608E+03  0.84835885250E+03  0.86399243340E+03  0.12506885548E+03 0.  0.
          5    1    3    3  502    0  0.61178460387E+02 -0.10511033724E+03  0.69122228828E+03  0.70185234290E+03  0.41800000000E+01 0.  1.
         -5    1    3    3    0  502 -0.39707559065E+02  0.18293411617E+01  0.15713656422E+03  0.16214009051E+03  0.41800000000E+01 0.  1.
        -11    1    1    2    0    0 -0.13652182719E+02  0.76108173397E+02  0.37895325996E+03  0.38676143730E+03  0.00000000000E+00 0. -1.
         11    1    1    2    0    0 -0.78187186030E+01  0.27172822682E+02  0.11347975860E+02  0.30467543537E+02  0.00000000000E+00 0.  1.
</event>
<event>
 7    1  0.2842702E-009  0.1094275E+03  0.7561462E-02  0.1261634E+00
          1   -1    0    0  501    0  0.00000000000E+00  0.00000000000E+00  0.10866169896E+03  0.10866169896E+03  0.00000000000E+00 0. -1.
         -1   -1    0    0    0  501 -0.00000000000E+00 -0.00000000000E+00 -0.17404338237E+03  0.17404338237E+03  0.00000000000E+00 0.  1.
         25    2    1    2    0    0 -0.57363206911E+02 -0.39228251355E+02  0.16085027277E+02  0.14399902311E+03  0.12509035671E+03 0.  0.
          5    1    3    3  502    0 -0.89547823706E+02 -0.56290627082E+02  0.62571264490E+01  0.10603806609E+03  0.41800000000E+01 0. -1.
         -5    1    3    3    0  502  0.32184616794E+02  0.17062375727E+02  0.98279008280E+01  0.37960957026E+02  0.41800000000E+01 0. -1.
        -11    1    1    2    0    0  0.17927655270E+01  0.16008357461E+02 -0.76608656832E+02  0.78283892458E+02  0.00000000000E+00 0.  1.
         11    1    1    2    0    0  0.55570441384E+02  0.23219893894E+02 -0.48580538605E+01  0.60422165762E+02  0.00000000000E+00 0. -1.
</event>
<event>
 7    1  0.2842702E-009  0.9684571E+02  0.7561462E-02  0.1287072E+00
         -2   -1    0    0    0  501 -0.00000000000E+00  0.00000000000E+00  0.32953435755E+02  0.32953435755E+02  0.00000000000E+00 0. -1.
          2   -1    0    0  501    0  0.00000000000E+00 -0.00000000000E+00 -0.39071729568E+03  0.39071729568E+03  0.00000000000E+00 0.  1.
         25    2    1    2    0    0  0.61765531049E+01  0.26302270311E+02 -0.23339195462E+03  0.26617449714E+03  0.12508836563E+03 0.  0.
          5    1    3    3  502    0  0.22029361439E+02 -0.30761378040E+02 -0.18697759089E+03  0.19081312072E+03  0.41800000000E+01 0.  1.
         -5    1    3    3    0  502 -0.15852808334E+02  0.57063648350E+02 -0.46414363725E+02  0.75361376415E+02  0.41800000000E+01 0.  1.
        -11    1    1    2    0    0  0.17015347494E+02  0.30485328071E+02 -0.38591221783E+02  0.52039981520E+02  0.00000000000E+00 0. -1.
         11    1    1    2    0    0 -0.23191900599E+02 -0.56787598382E+02 -0.85780683519E+02  0.10545625277E+03  0.00000000000E+00 0.  1.
</event>
<event>
 7    1  0.2842702E-009  0.1264905E+03  0.7561462E-02  0.1232758E+00
          3   -1    0    0  501    0  0.00000000000E+00  0.00000000000E+00  0.85745227356E+02  0.85745227356E+02  0.00000000000E+00 0. -1.
         -3   -1    0    0    0  501 -0.00000000000E+00 -0.00000000000E+00 -0.21478159159E+03  0.21478159159E+03  0.00000000000E+00 0.  1.
         25    2    1    2    0    0  0.19393541952E+02 -0.77420664400E+02 -0.54748370057E+02  0.15815945078E+03  0.12508780557E+03 0.  0.
          5    1    3    3  502    0  0.68063966097E+02 -0.58093575232E+02 -0.55936252460E+02  0.10561204336E+03  0.41800000000E+01 0.  1.
         -5    1    3    3    0  502 -0.48670424145E+02 -0.19327089168E+02  0.11878824037E+01  0.52547407422E+02  0.41800000000E+01 0.  1.
        -11    1    1    2    0    0  0.23314960785E+02  0.60657566778E+02 -0.71179390047E+02  0.96381706621E+02  0.00000000000E+00 0.  1.
         11    1    1    2    0    0 -0.42708502737E+02  0.16763097622E+02 -0.31086041329E+01  0.45985661543E+02  0.00000000000E+00 0. -1.
</event>
<event>
 7    1  0.2842702E-009  0.9747851E+02  0.7561462E-02  0.1285689E+00
         -4   -1    0    0    0  501 -0.00000000000E+00  0.00000000000E+00  0.14687437354E+02  0.14687437354E+02  0.00000000000E+00 0.  1.
          4   -1    0    0  501    0  0.00000000000E+00 -0.00000000000E+00 -0.15352386785E+04  0.15352386785E+04  0.00000000000E+00 0. -1.
         25    2    1    2    0    0  0.73410920037E+02 -0.33886517305E+02 -0.11546046670E+04  0.11641712881E+04  0.12508154099E+03 0.  0.
          5    1    3    3  502    0  0.13053258933E+02 -0.23053648005E+02 -0.41762548125E+02  0.49633064392E+02  0.41800000000E+01 0.  1.
         -5    1    3    3    0  502  0.60357661104E+02 -0.10832869301E+02 -0.11128421188E+04  0.11145382237E+04  0.41800000000E+01 0.  1.
        -11    1    1    2    0    0 -0.11604405375E+02 -0.21012948687E+02 -0.23950251918E+02  0.33909007705E+02  0.00000000000E+00 0.  1.
         11    1    1    2    0    0 -0.61806514663E+02  0.54899465992E+02 -0.34199632223E+03  0.35184581998E+03  0.00000000000E+00 0. -1.
</event>
<event>
 7    1  0.2842702E-009  0.1033465E+03  0.7561462E-02  0.1273412E+00
          1   -1    0    0  501    0  0.00000000000E+00  0.00000000000E+00  0.33881074953E+03  0.33881074953E+03  0.00000000000E+00 0. -1.
         -1   -1    0    0    0  501 -0.00000000000E+00 -0.00000000000E+00 -0.52073882393E+02  0.52073882393E+02  0.00000000000E+00 0.  1.
         25    2    1    2    0    0 -0.60412701232E+02 -0.28544080721E+02  0.10336792823E+03  0.17549777242E+03  0.12510028186E+03 0.  0.
          5    1    3    3  502    0  0.25323273500E+02 -0.34277576196E+01  0.78511108076E+02  0.82670939238E+02  0.41800000000E+01 0. -1.
         -5    1    3    3    0  502 -0.85735974732E+02 -0.25116323101E+02  0.24856820158E+02  0.92826833177E+02  0.41800000000E+01 0. -1.
        -11    1    1    2    0    0  0.17028176208E+02 -0.19993030585E+02  0.66967444813E+01  0.27102148320E+02  0.00000000000E+00 0.  1.
         11    1    1    2    0    0  0.43384525024E+02  0.48537111305E+02  0.17667219443E+03  0.18828471119E+03  0.00000000000E+00 0. -1.
</event>
<event>
 7    1  0.3212777E-009  0.1247500E+03  0.7561462E-02  0.1235461E+00
          2   -1    0    0  501    0  0.00000000000E+00  0.00000000000E+00  0.21765726495E+04  0.21765726495E+04  0.00000000000E+00 0. -1.
         -2   -1    0    0    0  501 -0.00000000000E+00 -0.00000000000E+00 -0.95999998480E+01  0.95999998480E+01  0.00000000000E+00 0.  1.
         25    2    1    2    0    0 -0.45215940211E+02 -0.50270299801E+02  0.16934672844E+04  0.16994264769E+04  0.12508925875E+03 0.  0.
          5    1    3    3  502    0  0.35498267914E+02 -0.49502947510E+02  0.78469272828E+03  0.78706468543E+03  0.41800000000E+01 0. -1.
         -5    1    3    3    0  502 -0.80714208125E+02 -0.76735229152E+00  0.90877455612E+03  0.91236179143E+03  0.41800000000E+01 0. -1.
        -11    1    1    2    0    0  0.69657295140E+02  0.29920482355E+02  0.39183930461E+03  0.39910576877E+03  0.00000000000E+00 0. -1.
         11    1    1    2    0    0 -0.24441354929E+02  0.20349817446E+02  0.81666060613E+02  0.87640403679E+02  0.00000000000E+00 0.  1.
</event>
<event>
 7    1  0.2842702E-009  0.1050807E+03  0.7561462E-02  0.1269961E+00
          2   -1    0    0  501    0  0.00000000000E+00  0.00000000000E+00  0.15452050551E+03  0.15452050551E+03  0.00000000000E+00 0. -1.
         -2   -1    0    0    0  501 -0.00000000000E+00 -0.00000000000E+00 -0.87521749882E+02  0.87521749882E+02  0.00000000000E+00 0.  1.
         25    2    1    2    0    0  0.16537014300E+02 -0.33170967695E+02  0.15992203765E+02  0.13142973640E+03  0.12507693268E+03 0.  0.
          5    1    3    3  502    0  0.29163999766E+02  0.40717342864E+02 -0.11360171006E+02  0.51526369730E+02  0.41800000000E+01 0.  1.
         -5    1    3    3    0  502 -0.12626985466E+02 -0.73888310559E+02  0.27352374771E+02  0.79903366668E+02  0.41800000000E+01 0.  1.
        -11    1    1    2    0    0 -0.32138991412E+02  0.51531786294E+02  0.79201987432E+01  0.61246790248E+02  0.00000000000E+00 0.  1.
         11    1    1    2    0    0  0.15601977112E+02 -0.18360818599E+02  0.43086353115E+02  0.49365728741E+02  0.00000000000E+00 0. -1.
</event>
<event>
 7    1  0.2842702E-009  0.1232275E+03  0.7561462E-02  0.1237866E+00
          1   -1    0    0  501    0  0.00000000000E+00  0.00000000000E+00  0.44063478454E+02  0.44063478454E+02  0.00000000000E+00 0. -1.
         -1   -1    0    0    0  501 -0.00000000000E+00 -0.00000000000E+00 -0.55597949305E+03  0.55597949305E+03  0.00000000000E+00 0.  1.
         25    2    1    2    0    0 -0.76020902577E+02 -0.52590325055E+02 -0.39987906284E+03  0.42906280600E+03  0.12508679658E+03 0.  0.
          5    1    3    3  502    0  0.29292544083E+02 -0.25356794498E+02 -0.17414632097E+03  0.17845288923E+03  0.41800000000E+01 0. -1.
         -5    1    3    3    0  502 -0.10531344666E+03 -0.27233530557E+02 -0.22573274187E+03  0.25060991677E+03  0.41800000000E+01 0. -1.
        -11    1    1    2    0    0  0.22681369992E+02  0.36397098353E+02  0.31629142047E+01  0.43002294584E+02  0.00000000000E+00 0. -1.
         11    1    1    2    0    0  0.53339532585E+02  0.16193226701E+02 -0.11519986596E+03  0.12797787092E+03  0.00000000000E+00 0.  1.
</event>
<event>
 7    1  0.2842702E-009  0.7322889E+02  0.7561462E-02  0.1349445E+00
          2   -1    0    0  501    0  0.00000000000E+00  0.00000000000E+00  0.54168613740E+03  0.54168613740E+03  0.00000000000E+00 0. -1.
         -2   -1    0    0    0  501 -0.00000000000E+00 -0.00000000000E+00 -0.29407149824E+02  0.29407149824E+02  0.00000000000E+00 0.  1.
         25    2    1    2    0    0 -0.24553365491E+02  0.98353926742E+01  0.15328086187E+03  0.19960126571E+03  0.12508413150E+03 0.  0.
          5    1    3    3  502    0 -0.78410062101E+01  0.31154365771E+02 -0.10102017546E+02  0.33935218336E+02  0.41800000000E+01 0. -1.
         -5    1    3    3    0  502 -0.16712359281E+02 -0.21318973097E+02  0.16338287942E+03  0.16566604738E+03  0.41800000000E+01 0. -1.
        -11    1    1    2    0    0 -0.30736983573E+02 -0.19110902367E+01  0.61319463603E+02  0.68618445345E+02  0.00000000000E+00 0.  1.
         11    1    1    2    0    0  0.55290349064E+02 -0.79243024375E+01  0.29767866210E+03  0.30287357617E+03  0.00000000000E+00 0. -1.
</event>
<event>
 7    1  0.2842702E-009  0.1158860E+03  0.7561462E-02  0.1250042E+00
         -1   -1    0    0    0  501 -0.00000000000E+00  0.00000000000E+00  0.20389877215E+03  0.20389877215E+03  0.00000000000E+00 0.  1.
          1   -1    0    0  501    0  0.00000000000E+00 -0.00000000000E+00 -0.77414782697E+02  0.77414782697E+02  0.00000000000E+00 0. -1.
         25    2    1    2    0    0 -0.43475925860E+02 -0.39282360870E+02  0.42008184687E+02  0.14437515686E+03  0.12508492448E+03 0.  0.
          5    1    3    3  502    0  0.27195661072E+02 -0.47556195397E+02 -0.10382860887E+02  0.55914862979E+02  0.41800000000E+01 0. -1.
         -5    1    3    3    0  502 -0.70671586932E+02  0.82738345273E+01  0.52391045574E+02  0.88460293882E+02  0.41800000000E+01 0. -1.
        -11    1    1    2    0    0 -0.27005929538E+02  0.62777111640E+01  0.10755220028E+02  0.29738941567E+02  0.00000000000E+00 0. -1.
         11    1    1    2    0    0  0.70481855398E+02  0.33004649706E+02  0.73720584740E+02  0.10719945642E+03  0.00000000000E+00 0.  1.
</event>
<event>
 7    1  0.2842702E-009  0.1139648E+03  0.7561462E-02  0.1253399E+00
         -2   -1    0    0    0  501 -0.00000000000E+00  0.00000000000E+00  0.25078438773E+02  0.25078438773E+02  0.00000000000E+00 0. -1.
          2   -1    0    0  501    0  0.00000000000E+00 -0.00000000000E+00 -0.73996307821E+03  0.73996307821E+03  0.00000000000E+00 0.  1.
         25    2    1    2    0    0  0.27184042881E+02 -0.76650009279E+02 -0.43672870723E+03  0.46151222162E+03  0.12508945150E+03 0.  0.
          5    1    3    3  502    0  0.49780369127E+02 -0.23200321499E+02 -0.36510366788E+03  0.36923502105E+03  0.41800000000E+01 0.  1.
         -5    1    3    3    0  502 -0.22596326246E+02 -0.53449687780E+02 -0.71625039348E+02  0.92277200571E+02  0.41800000000E+01 0.  1.
        -11    1    1    2    0    0  0.15749562953E+02  0.69354523775E+02 -0.21769021525E+03  0.22901338065E+03  0.00000000000E+00 0.  1.
         11    1    1    2    0    0 -0.42933605834E+02  0.72954855043E+01 -0.60465716963E+02  0.74515914719E+02  0.00000000000E+00 0. -1.
</event>
<event>
 7    1  0.2842702E-009  0.1082938E+03  0.7561462E-02  0.1263762E+00
         -1   -1    0    0    0  501 -0.00000000000E+00  0.00000000000E+00  0.10057132855E+03  0.10057132855E+03  0.00000000000E+00 0.  1.
          1   -1    0    0  501    0  0.00000000000E+00 -0.00000000000E+00 -0.16790172752E+03  0.16790172752E+03  0.00000000000E+00 0. -1.
         25    2    1    2    0    0 -0.26400616828E+02 -0.38172690134E+02 -0.99030197937E+02  0.16615788267E+03  0.12508922827E+03 0.  0.
          5    1    3    3  502    0 -0.72590875310E+02 -0.79884261637E+01 -0.33690147010E+02  0.80534145158E+02  0.41800000000E+01 0.  1.
         -5    1    3    3    0  502  0.46190258482E+02 -0.30184263971E+02 -0.65340050928E+02  0.85623737511E+02  0.41800000000E+01 0.  1.
        -11    1    1    2    0    0 -0.26213511818E+02  0.17781630044E+02  0.33175164280E+02  0.45868574143E+02  0.00000000000E+00 0. -1.
         11    1    1    2    0    0  0.52614128646E+02  0.20391060090E+02 -0.14753653070E+01  0.56446599256E+02  0.00000000000E+00 0.  1.
</event>
<event>
 7    1  0.2842702E-009  0.2907587E+03  0.7561462E-02  0.1089954E+00
         -1   -1    0    0    0  501 -0.00000000000E+00  0.00000000000E+00  0.11787908819E+03  0.11787908819E+03  0.00000000000E+00 0.  1.
          1   -1    0    0  501    0  0.00000000000E+00 -0.00000000000E+00 -0.73186313313E+03  0.73186313313E+03  0.00000000000E+00 0. -1.
         25    2    1    2    0    0  0.99083202825E+02 -0.25337477166E+03 -0.33477463724E+03  0.44915290428E+03  0.12509203689E+03 0.  0.
          5    1    3    3  502    0  0.30087784549E+02  0.13537818754E+01 -0.13248249965E+02  0.33167695602E+02  0.41800000000E+01 0.  1.
         -5    1    3    3    0  502  0.68995418276E+02 -0.25472855353E+03 -0.32152638728E+03  0.41598520868E+03  0.41800000000E+01 0.  1.
        -11    1    1    2    0    0 -0.98193935980E+02  0.12577021097E+03 -0.15036957045E+03  0.21925146008E+03  0.00000000000E+00 0.  1.
         11    1    1    2    0    0 -0.88926684478E+00  0.12760456069E+03 -0.12883983725E+03  0.18133785696E+03  0.00000000000E+00 0. -1.
</event>
<event>
 7    1  0.2842702E-009  0.1952873E+03  0.7561462E-02  0.1153777E+00
          4   -1    0    0  501    0  0.00000000000E+00  0.00000000000E+00  0.68681262615E+03  0.68681262615E+03  0.00000000000E+00 0. -1.
         -4   -1    0    0    0  501 -0.00000000000E+00 -0.00000000000E+00 -0.63162641609E+02  0.63162641609E+02  0.00000000000E+00 0.  1.
         25    2    1    2    0    0 -0.52566525473E+02  0.15919185300E+03  0.28144698995E+03  0.35066224510E+03  0.12508523622E+03 0.  0.
          5    1    3    3  502    0 -0.64814721385E+02  0.16906285290E+03  0.28108797704E+03  0.33438169743E+03  0.41800000000E+01 0.  1.
         -5    1    3    3    0  502  0.12248195912E+02 -0.98709998998E+01  0.35901291648E+00  0.16280547669E+02  0.41800000000E+01 0.  1.
        -11    1    1    2    0    0  0.67384705361E+02 -0.52366084850E+02  0.22190340263E+03  0.23774781904E+03  0.00000000000E+00 0. -1.
         11    1    1    2    0    0 -0.14818179887E+02 -0.10682576816E+03  0.12029959196E+03  0.16156520363E+03  0.00000000000E+00 0.  1.
</event>
<event>
 7    1  0.2842702E-009  0.1442170E+03  0.7561462E-02  0.1207765E+00
          1   -1    0    0  501    0  0.00000000000E+00  0.00000000000E+00  0.64017910531E+02  0.64017910531E+02  0.00000000000E+00 0. -1.
         -1   -1    0    0    0  501 -0.00000000000E+00 -0.00000000000E+00 -0.42319619158E+03  0.42319619158E+03  0.00000000000E+00 0.  1.
         25    2    1    2    0    0 -0.91044467277E+02 -0.71232477202E+02 -0.12561553302E+03  0.21163466259E+03  0.12508719936E+03 0.  0.
          5    1    3    3  502    0  0.16683239327E+02  0.17842900388E+02 -0.41799487355E+02  0.48593920523E+02  0.41800000000E+01 0.  1.
         -5    1    3    3    0  502 -0.10772770660E+03 -0.89075377590E+02 -0.83816045661E+02  0.16304074207E+03  0.41800000000E+01 0.  1.
        -11    1    1    2    0    0  0.26736347166E+02  0.48895050706E+02 -0.18153934416E+03  0.18990021517E+03  0.00000000000E+00 0.  1.
         11    1    1    2    0    0  0.64308120111E+02  0.22337426496E+02 -0.52023403864E+02  0.85679224345E+02  0.00000000000E+00 0. -1.
</event>
<event>
 7    1  0.2842702E-009  0.8583764E+02  0.7561462E-02  0.1313256E+00
         -2   -1    0    0    0  501 -0.00000000000E+00  0.00000000000E+00  0.13861781056E+03  0.13861781056E+03  0.00000000000E+00 0. -1.
          2   -1    0    0  501    0  0.00000000000E+00 -0.00000000000E+00 -0.14270362370E+03  0.14270362370E+03  0.00000000000E+00 0.  1.
         25    2    1    2    0    0 -0.21947282347E+02  0.13150875762E+02  0.83088352066E+02  0.15233455797E+03  0.12509002585E+03 0.  0.
          5    1    3    3  502    0  0.17725681831E+02  0.29433825146E+02  0.10017233399E+03  0.10598357777E+03  0.41800000000E+01 0. -1.
         -5    1    3    3    0  502 -0.39672964178E+02 -0.16282949384E+02 -0.17083981929E+02  0.46350980203E+02  0.41800000000E+01 0. -1.
        -11    1    1    2    0    0  0.10963258444E+02 -0.52236937405E+02 -0.59047268839E+02  0.79595669622E+02  0.00000000000E+00 0. -1.
         11    1    1    2    0    0  0.10984023903E+02  0.39086061643E+02 -0.28126896373E+02  0.49391206661E+02  0.00000000000E+00 0.  1.
</event>
<event>
 7    1  0.2842702E-009  0.1181231E+03  0.7561462E-02  0.1246226E+00
          2   -1    0    0  501    0  0.00000000000E+00  0.00000000000E+00  0.69779762737E+02  0.69779762737E+02  0.00000000000E+00 0. -1.
         -2   -1    0    0    0  501 -0.00000000000E+00 -0.00000000000E+00 -0.33873269083E+03  0.33873269083E+03  0.00000000000E+00 0.  1.
         25    2    1    2    0    0  0.22686270661E+02 -0.82458628307E+02 -0.55665951419E+02  0.16142912008E+03  0.12508625186E+03 0.  0.
          5    1    3    3  502    0  0.40324050931E+02 -0.14002974394E+02  0.28453952631E+02  0.51470498304E+02  0.41800000000E+01 0. -1.
         -5    1    3    3    0  502 -0.17637780269E+02 -0.68455653913E+02 -0.84119904050E+02  0.10995862178E+03  0.41800000000E+01 0. -1.
        -11    1    1    2    0    0 -0.14411307349E+02 -0.17256759206E+02 -0.23421205421E+02  0.32465895662E+02  0.00000000000E+00 0. -1.
         11    1    1    2    0    0 -0.82749633126E+01  0.99715387513E+02 -0.18986577126E+03  0.21461743783E+03  0.00000000000E+00 0.  1.
</event>
<event>
 7    1  0.2842702E-009  0.8369876E+02  0.7561462E-02  0.1318871E+00
          2   -1    0    0  501    0  0.00000000000E+00  0.00000000000E+00  0.43528754023E+03  0.43528754023E+03  0.00000000000E+00 0. -1.
         -2   -1    0    0    0  501 -0.00000000000E+00 -0.00000000000E+00 -0.28709671867E+02  0.28709671867E+02  0.00000000000E+00 0.  1.
         25    2    1    2    0    0 -0.10690021942E+02  0.15346668031E+02  0.27090645240E+03  0.29897762355E+03  0.12509003415E+03 0.  0.
          5    1    3    3  502    0  0.18607010784E+02  0.61217543535E+02  0.93583374059E+02  0.11344218257E+03  0.41800000000E+01 0. -1.
         -5    1    3    3    0  502 -0.29297032726E+02 -0.45870875503E+02  0.17732307834E+03  0.18553544097E+03  0.41800000000E+01 0. -1.
        -11    1    1    2    0    0 -0.47111214133E+01  0.14422486432E+02 -0.82338259972E+01  0.17262637991E+02  0.00000000000E+00 0.  1.
         11    1    1    2    0    0  0.15401143355E+02 -0.29769154464E+02  0.14390524196E+03  0.14775695056E+03  0.00000000000E+00 0. -1.
</event>
<event>
 7    1  0.2842702E-009  0.1306462E+03  0.7561462E-02  0.1226500E+00
         -2   -1    0    0    0  501 -0.00000000000E+00  0.00000000000E+00  0.10395177957E+03  0.10395177957E+03  0.00000000000E+00 0. -1.
          2   -1    0    0  501    0  0.00000000000E+00 -0.00000000000E+00 -0.20004772487E+03  0.20004772487E+03  0.00000000000E+00 0.  1.
         25    2    1    2    0    0  0.72355925505E+01  0.96965450345E+02 -0.54759598581E+02  0.16762391278E+03  0.12507801621E+03 0.  0.
          5    1    3    3  502    0 -0.41991812821E+02  0.55797236984E+02  0.16251652198E+02  0.71820836798E+02  0.41800000000E+01 0.  1.
         -5    1    3    3    0  502  0.49227405372E+02  0.41168213361E+02 -0.71011250779E+02  0.95803075985E+02  0.41800000000E+01 0.  1.
        -11    1    1    2    0    0 -0.36926608202E+02 -0.15015592880E+02 -0.26736064120E+02  0.47998536931E+02  0.00000000000E+00 0.  1.
         11    1    1    2    0    0  0.29691015651E+02 -0.81949857465E+02 -0.14600282598E+02  0.88377054720E+02  0.00000000000E+00 0. -1.
</event>
<event>
 7    1  0.2842702E-009  0.1905738E+03  0.7561462E-02  0.1157945E+00
          1   -1    0    0  501    0  0.00000000000E+00  0.00000000000E+00  0.25546555669E+03  0.25546555669E+03  0.00000000000E+00 0. -1.
         -1   -1    0    0    0  501 -0.00000000000E+00 -0.00000000000E+00 -0.19312713501E+03  0.19312713501E+03  0.00000000000E+00 0.  1.
         25    2    1    2    0    0 -0.61455311046E+02 -0.16309957342E+03  0.11749820080E+03  0.24460360378E+03  0.12508744814E+03 0.  0.
          5    1    3    3  502    0 -0.52435396850E+01  0.13468571804E+02 -0.11370476090E+02  0.18858877522E+02  0.41800000000E+01 0.  1.
         -5    1    3    3    0  502 -0.56211771361E+02 -0.17656814523E+03  0.12886867689E+03  0.22574472626E+03  0.41800000000E+01 0.  1.
        -11    1    1    2    0    0  0.39244665647E+02  0.14982517160E+03 -0.14184619183E+02  0.15552790505E+03  0.00000000000E+00 0. -1.
         11    1    1    2    0    0  0.22210645400E+02  0.13274401819E+02 -0.40975159942E+02  0.48461182869E+02  0.00000000000E+00 0.  1.
</event>
<event>
 7    1  0.2842702E-009  0.9458447E+02  0.7561462E-02  0.1292115E+00
          3   -1    0    0  501    0  0.00000000000E+00  0.00000000000E+00  0.74070350293E+02  0.74070350293E+02  0.00000000000E+00 0. -1.
         -3   -1    0    0    0  501 -0.00000000000E+00 -0.00000000000E+00 -0.19012564320E+03  0.19012564320E+03  0.00000000000E+00 0.  1.
         25    2    1    2    0    0 -0.16395297369E+02 -0.22842679503E+02 -0.10837899628E+03  0.16788164497E+03  0.12509055161E+03 0.  0.
          5    1    3    3  502    0  0.54590287790E+02 -0.68123451737E+01 -0.50679598838E+02  0.74915964295E+02  0.41800000000E+01 0. -1.
         -5    1    3    3    0  502 -0.70985585159E+02 -0.16030334330E+02 -0.57699397439E+02  0.92965680678E+02  0.41800000000E+01 0. -1.
        -11    1    1    2    0    0  0.18894192207E+02 -0.14413167565E+02  0.33278815383E+02  0.40892657675E+02  0.00000000000E+00 0. -1.
         11    1    1    2    0    0 -0.24988948376E+01  0.37255847068E+02 -0.40955112009E+02  0.55421690843E+02  0.00000000000E+00 0.  1.
</event>
<event>
 7    1  0.2842702E-009  0.1198417E+03  0.7561462E-02  0.1243358E+00
         -2   -1    0    0    0  501 -0.00000000000E+00  0.00000000000E+00  0.30214468797E+02  0.30214468797E+02  0.00000000000E+00 0.  1.
          2   -1    0    0  501    0  0.00000000000E+00 -0.00000000000E+00 -0.81048909796E+03  0.81048909796E+03  0.00000000000E+00 0. -1.
         25    2    1    2    0    0  0.54075208939E+02  0.61485912178E+02 -0.62587953762E+03  0.64348879496E+03  0.12509191828E+03 0.  0.
          5    1    3    3  502    0 -0.26764496077E+02 -0.16024395775E+02 -0.22671876824E+03  0.22889297015E+03  0.41800000000E+01 0.  1.
         -5    1    3    3    0  502  0.80839705016E+02  0.77510307954E+02 -0.39916076938E+03  0.41459582482E+03  0.41800000000E+01 0.  1.
        -11    1    1    2    0    0 -0.41720335083E+02 -0.96140081812E+01 -0.13306633420E+03  0.13978435109E+03  0.00000000000E+00 0. -1.
         11    1    1    2    0    0 -0.12354873856E+02 -0.51871903997E+02 -0.21328757350E+02  0.57430420705E+02  0.00000000000E+00 0.  1.
</event>
<event>
 7    1  0.2842702E-009  0.8949730E+02  0.7561462E-02  0.1304074E+00
          2   -1    0    0  501    0  0.00000000000E+00  0.00000000000E+00  0.38968599417E+02  0.38968599417E+02  0.00000000000E+00 0.  1.
         -2   -1    0    0    0  501 -0.00000000000E+00 -0.00000000000E+00 -0.30577728459E+03  0.30577728459E+03  0.00000000000E+00 0. -1.
         25    2    1    2    0    0  0.23017471951E+02 -0.95131886907E+01 -0.12304960699E+03  0.17723405464E+03  0.12510155703E+03 0.  0.
          5    1    3    3  502    0  0.45691103242E+02  0.28635392478E+02 -0.90586356438E+01  0.54837887428E+02  0.41800000000E+01 0. -1.
         -5    1    3    3    0  502 -0.22673631290E+02 -0.38148581168E+02 -0.11399097134E+03  0.12239616721E+03  0.41800000000E+01 0. -1.
        -11    1    1    2    0    0 -0.54362410027E+01 -0.33463333735E+02 -0.32550980259E+02  0.46999082297E+02  0.00000000000E+00 0.  1.
         11    1    1    2    0    0 -0.17581230949E+02  0.42976522425E+02 -0.11120809793E+03  0.12051274707E+03  0.00000000000E+00 0. -1.
</event>
<event>
 7    1  0.2842702E-009  0.7610632E+02  0.7561462E-02  0.1340479E+00
          1   -1    0    0  501    0  0.00000000000E+00  0.00000000000E+00  0.18755608099E+03  0.18755608099E+03  0.00000000000E+00 0.  1.
         -1   -1    0    0    0  501 -0.00000000000E+00 -0.00000000000E+00 -0.94276441273E+02  0.94276441273E+02  0.00000000000E+00 0. -1.
         25    2    1    2    0    0 -0.44057881098E+00 -0.42953925655E+02  0.11890869262E+03  0.17784668820E+03  0.12507970852E+03 0.  0.
          5    1    3    3  502    0 -0.25013957062E+02 -0.64288057077E+02  0.12652110068E+03  0.14416557719E+03  0.41800000000E+01 0. -1.
         -5    1    3    3    0  502  0.24573378251E+02  0.21334131422E+02 -0.76124080597E+01  0.33681111006E+02  0.41800000000E+01 0. -1.
        -11    1    1    2    0    0  0.13294314483E+02  0.21045600817E+02  0.32272706155E+02  0.40757621053E+02  0.00000000000E+00 0.  1.
         11    1    1    2    0    0 -0.12853735672E+02  0.21908324838E+02 -0.57901759059E+02  0.63228213007E+02  0.00000000000E+00 0. -1.
</event>
<event>
 7    1  0.2842702E-009  0.1566587E+03  0.7561462E-02  0.1192522E+00
         -1   -1    0    0    0  501 -0.00000000000E+00  0.00000000000E+00  0.63306089177E+03  0.63306089177E+03  0.00000000000E+00 0.  1.
          1   -1    0    0  501    0  0.00000000000E+00 -0.00000000000E+00 -0.39845828891E+02  0.39845828891E+02  0.00000000000E+00 0. -1.
         25    2    1    2    0    0  0.25759260301E+02  0.11217721481E+03  0.31593645467E+03  0.35876255315E+03  0.12508980428E+03 0.  0.
          5    1    3    3  502    0  0.67295580658E+02  0.10354790158E+03  0.26463310015E+03  0.29205994794E+03  0.41800000000E+01 0.  1.
         -5    1    3    3    0  502 -0.41536320357E+02  0.86293132305E+01  0.51303354522E+02  0.66702605203E+02  0.41800000000E+01 0.  1.
        -11    1    1    2    0    0  0.30806339869E+02 -0.14047523993E+02  0.53087552542E+02  0.62965480553E+02  0.00000000000E+00 0.  1.
         11    1    1    2    0    0 -0.56565600170E+02 -0.98129690821E+02  0.22419105567E+03  0.25117868696E+03  0.00000000000E+00 0. -1.
</event>
<event>
 7    1  0.2842702E-009  0.1824854E+03  0.7561462E-02  0.1165419E+00
         -1   -1    0    0    0  501 -0.00000000000E+00  0.00000000000E+00  0.29154999306E+03  0.29154999306E+03  0.00000000000E+00 0.  1.
          1   -1    0    0  501    0  0.00000000000E+00 -0.00000000000E+00 -0.18676030514E+03  0.18676030514E+03  0.00000000000E+00 0. -1.
         25    2    1    2    0    0 -0.83812884999E+02 -0.13344889726E+03 -0.85913500677E+02  0.21877395034E+03  0.12509078254E+03 0.  0.
          5    1    3    3  502    0 -0.71898740477E+02 -0.15797259022E+03 -0.74001311599E+02  0.18872846807E+03  0.41800000000E+01 0. -1.
         -5    1    3    3    0  502 -0.11914144522E+02  0.24523692958E+02 -0.11912189077E+02  0.30045482266E+02  0.41800000000E+01 0. -1.
        -11    1    1    2    0    0  0.84466684082E+02  0.10251045610E+03  0.10786811092E+03  0.17110974164E+03  0.00000000000E+00 0. -1.
         11    1    1    2    0    0 -0.65379908326E+00  0.30938441158E+02  0.82835077674E+02  0.88426606221E+02  0.00000000000E+00 0.  1.
</event>
<event>
 7    1  0.2842702E-009  0.1495768E+03  0.7561462E-02  0.1200994E+00
          2   -1    0    0  501    0  0.00000000000E+00  0.00000000000E+00  0.27958567417E+03  0.27958567417E+03  0.00000000000E+00 0. -1.
         -2   -1    0    0    0  501 -0.00000000000E+00 -0.00000000000E+00 -0.12634927741E+03  0.12634927741E+03  0.00000000000E+00 0.  1.
         25    2    1    2    0    0 -0.79200344693E+02 -0.79840432703E+02  0.19273059587E+03  0.25580690269E+03  0.12507957303E+03 0.  0.
          5    1    3    3  502    0  0.32776015719E+02 -0.31815507018E+02  0.60978698660E+02  0.76304441440E+02  0.41800000000E+01 0. -1.
         -5    1    3    3    0  502 -0.11197636041E+03 -0.48024925685E+02  0.13175189721E+03  0.17950246125E+03  0.41800000000E+01 0. -1.
        -11    1    1    2    0    0  0.12133966837E+02  0.60312329367E+02 -0.50273566957E+02  0.79449617743E+02  0.00000000000E+00 0.  1.
         11    1    1    2    0    0  0.67066377857E+02  0.19528103336E+02  0.10779367854E+02  0.70678431151E+02  0.00000000000E+00 0. -1.
</event>
<event>
 7    1  0.2842702E-009  0.9242836E+02  0.7561462E-02  0.1297075E+00
         -2   -1    0    0    0  501 -0.00000000000E+00  0.00000000000E+00  0.73961983342E+02  0.73961983342E+02  0.00000000000E+00 0.  1.
          2   -1    0    0  501    0  0.00000000000E+00 -0.00000000000E+00 -0.19825228975E+03  0.19825228975E+03  0.00000000000E+00 0. -1.
         25    2    1    2    0    0  0.45876761935E+02  0.26242506113E+02 -0.86099697555E+02  0.16078780481E+03  0.12508482660E+03 0.  0.
          5    1    3    3  502    0 -0.26138778795E+02 -0.15109175375E+02  0.11495445581E+02  0.32575153208E+02  0.41800000000E+01 0.  1.
         -5    1    3    3    0  502  0.72015540730E+02  0.41351681489E+02 -0.97595143136E+02  0.12821265161E+03  0.41800000000E+01 0.  1.
        -11    1    1    2    0    0 -0.38556103860E+02 -0.40054806999E+02  0.13677272241E+02  0.57254069590E+02  0.00000000000E+00 0.  1.
         11    1    1    2    0    0 -0.73206580753E+01  0.13812300886E+02 -0.51867881095E+02  0.54172398689E+02  0.00000000000E+00 0. -1.
</event>
<event>
 7    1  0.2842702E-009  0.1261257E+03  0.7561462E-02  0.1233320E+00
         -1   -1    0    0    0  501 -0.00000000000E+00  0.00000000000E+00  0.10461420890E+03  0.10461420890E+03  0.00000000000E+00 0.  1.
          1   -1    0    0  501    0  0.00000000000E+00 -0.00000000000E+00 -0.22373739510E+03  0.22373739510E+03  0.00000000000E+00 0. -1.
         25    2    1    2    0    0  0.13988631345E+02  0.10737024617E+03 -0.77961295850E+02  0.18290322232E+03  0.12510624890E+03 0.  0.
          5    1    3    3  502    0 -0.54769021150E+01  0.72954331164E+02 -0.10977228955E+03  0.13198393404E+03  0.41800000000E+01 0.  1.
         -5    1    3    3    0  502  0.19465533460E+02  0.34415915006E+02  0.31810993698E+02  0.50919288277E+02  0.41800000000E+01 0.  1.
        -11    1    1    2    0    0  0.36469651460E+02 -0.32040270566E+02 -0.18845166381E+02  0.52074511149E+02  0.00000000000E+00 0. -1.
         11    1    1    2    0    0 -0.50458282805E+02 -0.75329975605E+02 -0.22316723967E+02  0.93373870525E+02  0.00000000000E+00 0.  1.
</event>
<event>
 7    1  0.2842702E-009  0.2228282E+03  0.7561462E-02  0.1131792E+00
         -1   -1    0    0    0  501 -0.00000000000E+00  0.00000000000E+00  0.47600890488E+02  0.47600890488E+02  0.00000000000E+00 0.  1.
          1   -1    0    0  501    0  0.00000000000E+00 -0.00000000000E+00 -0.14055107298E+04  0.14055107298E+04  0.00000000000E+00 0. -1.
         25    2    1    2    0    0 -0.71352008257E+02 -0.19255782185E+03 -0.10151547601E+04  0.10432435594E+04  0.12509321878E+03 0.  0.
          5    1    3    3  502    0  0.18155881951E+02 -0.25963653939E+02 -0.47345310491E+02  0.57120908613E+02  0.41800000000E+01 0. -1.
         -5    1    3    3    0  502 -0.89507890208E+02 -0.16659416791E+03 -0.96780944960E+03  0.98612265076E+03  0.41800000000E+01 0. -1.
        -11    1    1    2    0    0  0.92356443112E+02  0.13778749539E+03 -0.24528462568E+03  0.29610750423E+03  0.00000000000E+00 0. -1.
         11    1    1    2    0    0 -0.21004434855E+02  0.54770326460E+02 -0.97470453539E+02  0.11376055668E+03  0.00000000000E+00 0.  1.
</event>
<event>
 7    1  0.2842702E-009  0.1415776E+03  0.7561462E-02  0.1211222E+00
         -2   -1    0    0    0  501 -0.00000000000E+00  0.00000000000E+00  0.65129156691E+02  0.65129156691E+02  0.00000000000E+00 0.  1.
          2   -1    0    0  501    0  0.00000000000E+00 -0.00000000000E+00 -0.44691422218E+03  0.44691422218E+03  0.00000000000E+00 0. -1.
         25    2    1    2    0    0  0.29779046485E+01 -0.11892898086E+03 -0.27825150924E+03  0.32745273520E+03  0.12509364890E+03 0.  0.
          5    1    3    3  502    0 -0.35332013626E+02 -0.51010013174E+02 -0.33699581129E+02  0.70735470587E+02  0.41800000000E+01 0.  1.
         -5    1    3    3    0  502  0.38309918275E+02 -0.67918967685E+02 -0.24455192811E+03  0.25671726461E+03  0.41800000000E+01 0.  1.
        -11    1    1    2    0    0 -0.35342665970E+02  0.24374531336E+02 -0.64105930795E+02  0.77154339987E+02  0.00000000000E+00 0. -1.
         11    1    1    2    0    0  0.32364761321E+02  0.94554449523E+02 -0.39427625458E+02  0.10743630368E+03  0.00000000000E+00 0.  1.
</event>
<event>
 7    1  0.2842702E-009  0.1324329E+03  0.7561462E-02  0.1223890E+00
          2   -1    0    0  501    0  0.00000000000E+00  0.00000000000E+00  0.53813175252E+02  0.53813175252E+02  0.00000000000E+00 0. -1.
         -2   -1    0    0    0  501 -0.00000000000E+00 -0.00000000000E+00 -0.44048431187E+03  0.44048431187E+03  0.00000000000E+00 0.  1.
         25    2    1    2    0    0  0.95560194948E+02 -0.36382025957E+02 -0.14557817460E+03  0.21747966957E+03  0.12509595951E+03 0.  0.
          5    1    3    3  502    0 -0.41170625589E+01 -0.48499876335E+02 -0.11977884424E+02  0.50300400832E+02  0.41800000000E+01 0. -1.
         -5    1    3    3    0  502  0.99677257507E+02  0.12117850377E+02 -0.13360029018E+03  0.16717926874E+03  0.41800000000E+01 0. -1.
        -11    1    1    2    0    0 -0.80655222260E+02  0.50447116008E+01 -0.22400672742E+03  0.23813804384E+03  0.00000000000E+00 0.  1.
         11    1    1    2    0    0 -0.14904972688E+02  0.31337314357E+02 -0.17086234602E+02  0.38679773717E+02  0.00000000000E+00 0. -1.
</event>
<event>
 7    1  0.2842702E-009  0.1138973E+03  0.7561462E-02  0.1253518E+00
         -2   -1    0    0    0  501 -0.00000000000E+00  0.00000000000E+00  0.17729072994E+02  0.17729072994E+02  0.00000000000E+00 0.  1.
          2   -1    0    0  501    0  0.00000000000E+00 -0.00000000000E+00 -0.75436098545E+03  0.75436098545E+03  0.00000000000E+00 0. -1.
         25    2    1    2    0    0 -0.38950886776E+02  0.17822812140E+02 -0.39860506989E+03  0.41996288409E+03  0.12509195842E+03 0.  0.
          5    1    3    3  502    0  0.19779624400E+02 -0.41497468603E+02 -0.18279985011E+03  0.18853787695E+03  0.41800000000E+01 0. -1.
         -5    1    3    3    0  502 -0.58730511176E+02  0.59320280743E+02 -0.21580521978E+03  0.23142500715E+03  0.41800000000E+01 0. -1.
        -11    1    1    2    0    0  0.26986409725E+02 -0.53773404112E+02 -0.18816355368E+03  0.19754839466E+03  0.00000000000E+00 0.  1.
         11    1    1    2    0    0  0.11964477051E+02  0.35950591972E+02 -0.14986328888E+03  0.15457877968E+03  0.00000000000E+00 0. -1.
</event>
<event>
 7    1  0.2842702E-009  0.1262713E+03  0.7561462E-02  0.1233096E+00
         -2   -1    0    0    0  501 -0.00000000000E+00  0.00000000000E+00  0.26631287292E+03  0.26631287292E+03  0.00000000000E+00 0.  1.
          2   -1    0    0  501    0  0.00000000000E+00 -0.00000000000E+00 -0.70872817556E+02  0.70872817556E+02  0.00000000000E+00 0. -1.
         25    2    1    2    0    0  0.64931440002E+02 -0.64742480984E+02  0.10994771182E+03  0.19011475693E+03  0.12508973069E+03 0.  0.
          5    1    3    3  502    0 -0.59732461678E+01  0.30367177493E+02  0.45084351205E+02  0.54844473397E+02  0.41800000000E+01 0.  1.
         -5    1    3    3    0  502  0.70904686170E+02 -0.95109658477E+02  0.64863360614E+02  0.13527028353E+03  0.41800000000E+01 0.  1.
        -11    1    1    2    0    0 -0.22009745045E+02 -0.32022295537E+01  0.58022818762E+02  0.62139606116E+02  0.00000000000E+00 0.  1.
         11    1    1    2    0    0 -0.42921694957E+02  0.67944710538E+02  0.27469524785E+02  0.84931327436E+02  0.00000000000E+00 0. -1.
</event>
<event>
 7    1  0.2842702E-009  0.1176570E+03  0.7561462E-02  0.1247013E+00
          1   -1    0    0  501    0  0.00000000000E+00  0.00000000000E+00  0.12221857821E+04  0.12221857821E+04  0.00000000000E+00 0. -1.
         -1   -1    0    0    0  501 -0.00000000000E+00 -0.00000000000E+00 -0.16946215763E+02  0.16946215763E+02  0.00000000000E+00 0.  1.
         25    2    1    2    0    0  0.33186421873E+02 -0.44229713178E+02  0.97968427698E+03  0.98918488891E+03  0.12509138958E+03 0.  0.
          5    1    3    3  502    0  0.75327087303E+02 -0.14624609131E+02  0.40828235862E+03  0.41545156882E+03  0.41800000000E+01 0.  1.
         -5    1    3    3    0  502 -0.42140665430E+02 -0.29605104047E+02  0.57140191836E+03  0.57373332009E+03  0.41800000000E+01 0.  1.
        -11    1    1    2    0    0 -0.62929984581E+02  0.14163401743E+02  0.15161073849E+03  0.16476225580E+03  0.00000000000E+00 0. -1.
         11    1    1    2    0    0  0.29743562708E+02  0.30066311436E+02  0.73944550852E+02  0.85184853153E+02  0.00000000000E+00 0.  1.
</event>
<event>
 7    1  0.2842702E-009  0.1220223E+03  0.7561462E-02  0.1239798E+00
          1   -1    0    0  501    0  0.00000000000E+00  0.00000000000E+00  0.35917178619E+03  0.35917178619E+03  0.00000000000E+00 0. -1.
         -1   -1    0    0    0  501 -0.00000000000E+00 -0.00000000000E+00 -0.59956141335E+02  0.59956141335E+02  0.00000000000E+00 0.  1.
         25    2    1    2    0    0 -0.35689744475E+02 -0.88927132215E+02  0.12366873544E+03  0.20030696066E+03  0.12508848732E+03 0.  0.
          5    1    3    3  502    0  0.41007061387E+01 -0.68019285565E+02  0.13714269289E+03  0.15319604960E+03  0.41800000000E+01 0.  1.
         -5    1    3    3    0  502 -0.39790450614E+02 -0.20907846650E+02 -0.13473957454E+02  0.47110911062E+02  0.41800000000E+01 0.  1.
        -11    1    1    2    0    0 -0.28232142469E+02  0.12172691390E+02  0.42191001612E+02  0.52204491197E+02  0.00000000000E+00 0. -1.
         11    1    1    2    0    0  0.63921886944E+02  0.76754440825E+02  0.13335590781E+03  0.16661647567E+03  0.00000000000E+00 0.  1.
</event>
<event>
 7    1  0.2842702E-009  0.9562820E+02  0.7561462E-02  0.1289767E+00
          2   -1    0    0  501    0  0.00000000000E+00  0.00000000000E+00  0.19538382261E+03  0.19538382261E+03  0.00000000000E+00 0. -1.
         -2   -1    0    0    0  501 -0.00000000000E+00 -0.00000000000E+00 -0.11301055252E+03  0.11301055252E+03  0.00000000000E+00 0.  1.
         25    2    1    2    0    0  0.96094639655E+01  0.10934861748E+02  0.14885237805E+03  0.19497219628E+03  0.12508082936E+03 0.  0.
          5    1    3    3  502    0 -0.45514895124E+02 -0.24607702486E+02  0.10138249408E+03  0.11389919757E+03  0.41800000000E+01 0. -1.
         -5    1    3    3    0  502  0.55124359089E+02  0.35542564234E+02  0.47469883967E+02  0.81072998718E+02  0.41800000000E+01 0. -1.
        -11    1    1    2    0    0 -0.14155223894E+02 -0.40918624158E+02 -0.33992940896E+01  0.43431087562E+02  0.00000000000E+00 0. -1.
         11    1    1    2    0    0  0.45457599283E+01  0.29983762411E+02 -0.63079813873E+02  0.69991091290E+02  0.00000000000E+00 0.  1.
</event>
<event>
 7    1  0.2842702E-009  0.1246762E+03  0.7561462E-02  0.1235576E+00
         -2   -1    0    0    0  501 -0.00000000000E+00  0.00000000000E+00  0.10433878564E+03  0.10433878564E+03  0.00000000000E+00 0. -1.
          2   -1    0    0  501    0  0.00000000000E+00 -0.00000000000E+00 -0.16834539924E+03  0.16834539924E+03  0.00000000000E+00 0.  1.
         25    2    1    2    0    0 -0.65214701672E+02 -0.36727415719E+02 -0.36251099688E+02  0.15021143895E+03  0.12508986284E+03 0.  0.
          5    1    3    3  502    0  0.26788116574E+02 -0.44417873675E+02 -0.34798867484E+01  0.52154891460E+02  0.41800000000E+01 0. -1.
         -5    1    3    3    0  502 -0.92002818246E+02  0.76904579565E+01 -0.32771212939E+02  0.98056547494E+02  0.41800000000E+01 0. -1.
        -11    1    1    2    0    0 -0.14994827353E+02 -0.31467953762E+01  0.16538960813E+02  0.22545163412E+02  0.00000000000E+00 0. -1.
         11    1    1    2    0    0  0.80209529025E+02  0.39874211095E+02 -0.44294474721E+02  0.99927582517E+02  0.00000000000E+00 0.  1.
</event>
<event>
 7    1  0.2842702E-009  0.1519430E+03  0.7561462E-02  0.1198106E+00
         -2   -1    0    0    0  501 -0.00000000000E+00  0.00000000000E+00  0.67774385428E+02  0.67774385428E+02  0.00000000000E+00 0.  1.
          2   -1    0    0  501    0  0.00000000000E+00 -0.00000000000E+00 -0.49573543338E+03  0.49573543338E+03  0.00000000000E+00 0. -1.
         25    2    1    2    0    0  0.63383844923E+02  0.11052777233E+03 -0.33088780081E+03  0.37599034025E+03  0.12509236181E+03 0.  0.
          5    1    3    3  502    0  0.69349193939E+02  0.54990894459E+02 -0.29831474973E+03  0.31119523049E+03  0.41800000000E+01 0. -1.
         -5    1    3    3    0  502 -0.59653490158E+01  0.55536877868E+02 -0.32573051087E+02  0.64795109764E+02  0.41800000000E+01 0. -1.
        -11    1    1    2    0    0  0.18178179063E+02 -0.61443712875E+02 -0.50275736709E+02  0.81445845490E+02  0.00000000000E+00 0.  1.
         11    1    1    2    0    0 -0.81562023987E+02 -0.49084059452E+02 -0.46797510426E+02  0.10607363306E+03  0.00000000000E+00 0. -1.
</event>
<event>
 7    1  0.2842702E-009  0.9253003E+02  0.7561462E-02  0.1296838E+00
         -4   -1    0    0    0  501 -0.00000000000E+00  0.00000000000E+00  0.30004444328E+02  0.30004444328E+02  0.00000000000E+00 0.  1.
          4   -1    0    0  501    0  0.00000000000E+00 -0.00000000000E+00 -0.42821881862E+03  0.42821881862E+03  0.00000000000E+00 0. -1.
         25    2    1    2    0    0  0.28256863677E+02  0.12088418223E+01 -0.18533607769E+03  0.22539289922E+03  0.12511029406E+03 0.  0.
          5    1    3    3  502    0  0.93149884456E+01  0.49637321198E+02 -0.15914488868E+03  0.16701856381E+03  0.41800000000E+01 0.  1.
         -5    1    3    3    0  502  0.18941875232E+02 -0.48428479376E+02 -0.26191189014E+02  0.58374335404E+02  0.41800000000E+01 0.  1.
        -11    1    1    2    0    0 -0.42865387735E+02  0.26850376960E+02 -0.18094198808E+03  0.18787865035E+03  0.00000000000E+00 0. -1.
         11    1    1    2    0    0  0.14608524057E+02 -0.28059218782E+02 -0.31936308526E+02  0.44951713383E+02  0.00000000000E+00 0.  1.
</event>
<event>
 7    1  0.2842702E-009  0.2076833E+03  0.7561462E-02  0.1143414E+00
         -1   -1    0    0    0  501 -0.00000000000E+00  0.00000000000E+00  0.92433965753E+02  0.92433965753E+02  0.00000000000E+00 0.  1.
          1   -1    0    0  501    0  0.00000000000E+00 -0.00000000000E+00 -0.62179503370E+03  0.62179503370E+03  0.00000000000E+00 0. -1.
         25    2    1    2    0    0  0.60754595109E+02  0.19529016593E+03 -0.18397665605E+03  0.30220005080E+03  0.12509232990E+03 0.  0.
          5    1    3    3  502    0  0.46256753173E+02  0.18006467296E+03 -0.20173269276E+03  0.27436567823E+03  0.41800000000E+01 0.  1.
         -5    1    3    3    0  502  0.14497841936E+02  0.15225492970E+02  0.17756036711E+02  0.27834372575E+02  0.41800000000E+01 0.  1.
        -11    1    1    2    0    0 -0.65830961551E+02 -0.17274847029E+03 -0.34187600841E+03  0.38865788891E+03  0.00000000000E+00 0. -1.
         11    1    1    2    0    0  0.50763664429E+01 -0.22541695631E+02 -0.35084034850E+01  0.23371059737E+02  0.00000000000E+00 0.  1.
</event>
<event>
 7    1  0.2842702E-009  0.1300833E+03  0.7561462E-02  0.1227332E+00
         -2   -1    0    0    0  501 -0.00000000000E+00  0.00000000000E+00  0.16921231949E+03  0.16921231949E+03  0.00000000000E+00 0.  1.
          2   -1    0    0  501    0  0.00000000000E+00 -0.00000000000E+00 -0.14527520898E+03  0.14527520898E+03  0.00000000000E+00 0. -1.
         25    2    1    2    0    0  0.10180772314E+03 -0.40284126372E+02  0.12916122314E+02  0.16673660009E+03  0.12508654709E+03 0.  0.
          5    1    3    3  502    0  0.10501604441E+03 -0.66014454570E+02  0.38625656513E+02  0.12998342793E+03  0.41800000000E+01 0.  1.
         -5    1    3    3    0  502 -0.32083212720E+01  0.25730328198E+02 -0.25709534199E+02  0.36753172152E+02  0.41800000000E+01 0.  1.
        -11    1    1    2    0    0 -0.72697663136E+02  0.32669293102E+02  0.53283241146E+02  0.95871459384E+02  0.00000000000E+00 0.  1.
         11    1    1    2    0    0 -0.29110060003E+02  0.76148332697E+01 -0.42262252956E+02  0.51879469003E+02  0.00000000000E+00 0. -1.
</event>
<event>
 7    1  0.2842702E-009  0.7626748E+02  0.7561462E-02  0.1339990E+00
         -1   -1    0    0    0  501 -0.00000000000E+00  0.00000000000E+00  0.17229214851E+03  0.17229214851E+03  0.00000000000E+00 0.  1.
          1   -1    0    0  501    0  0.00000000000E+00 -0.00000000000E+00 -0.81533438990E+02  0.81533438990E+02  0.00000000000E+00 0. -1.
         25    2    1    2    0    0 -0.23833336771E+02  0.36284755974E+02  0.69308198464E+02  0.14945214802E+03  0.12509079388E+03 0.  0.
          5    1    3    3  502    0 -0.56585342570E+02  0.20435293152E+02  0.89276922539E+02  0.10773738208E+03  0.41800000000E+01 0. -1.
         -5    1    3    3    0  502  0.32752005799E+02  0.15849462822E+02 -0.19968724075E+02  0.41714765933E+02  0.41800000000E+01 0. -1.
        -11    1    1    2    0    0  0.90041730556E+01 -0.39428992556E+02  0.54585264719E+02  0.67935791089E+02  0.00000000000E+00 0.  1.
         11    1    1    2    0    0  0.14829163715E+02  0.31442365820E+01 -0.33134753664E+02  0.36437648395E+02  0.00000000000E+00 0. -1.
</event>
<event>
 7    1  0.2842702E-009  0.1477339E+03  0.7561462E-02  0.1203286E+00
         -1   -1    0    0    0  501 -0.00000000000E+00  0.00000000000E+00  0.36376044391E+02  0.36376044391E+02  0.00000000000E+00 0.  1.
          1   -1    0    0  501    0  0.00000000000E+00 -0.00000000000E+00 -0.10074303298E+04  0.10074303298E+04  0.00000000000E+00 0. -1.
         25    2    1    2    0    0  0.36632904990E+02  0.11844341114E+03 -0.77150504540E+03  0.79135263790E+03  0.12509256996E+03 0.  0.
          5    1    3    3  502    0 -0.13055265497E+02 -0.19673888475E+02 -0.19377592753E+03  0.19525389710E+03  0.41800000000E+01 0. -1.
         -5    1    3    3    0  502  0.49688170486E+02  0.13811729961E+03 -0.57772911787E+03  0.59609874079E+03  0.41800000000E+01 0. -1.
        -11    1    1    2    0    0 -0.12341818821E+02 -0.22358788237E+02  0.41973076171E+01  0.25881524191E+02  0.00000000000E+00 0.  1.
         11    1    1    2    0    0 -0.24291086169E+02 -0.96084622902E+02 -0.20374654758E+03  0.22657221206E+03  0.00000000000E+00 0. -1.
</event>
<event>
 7    1  0.2842702E-009  0.2645865E+03  0.7561462E-02  0.1104418E+00
          2   -1    0    0  501    0  0.00000000000E+00  0.00000000000E+00  0.70003224324E+03  0.70003224324E+03  0.00000000000E+00 0. -1.
         -2   -1    0    0    0  501 -0.00000000000E+00 -0.00000000000E+00 -0.13748429028E+03  0.13748429028E+03  0.00000000000E+00 0.  1.
         25    2    1    2    0    0 -0.41969148197E+02 -0.24574301480E+03  0.48688578249E+03  0.56112013421E+03  0.12508797344E+03 0.  0.
          5    1    3    3  502    0  0.35234340873E+02 -0.30804707039E+02  0.53366015267E+02  0.71104097899E+02  0.41800000000E+01 0. -1.
         -5    1    3    3    0  502 -0.77203489070E+02 -0.21493830776E+03  0.43351976722E+03  0.49001603631E+03  0.41800000000E+01 0. -1.
        -11    1    1    2    0    0  0.12719992762E+02  0.99121309530E+01 -0.15026632842E+02  0.22041965667E+02  0.00000000000E+00 0.  1.
         11    1    1    2    0    0  0.29249155434E+02  0.23583088385E+03  0.90688803315E+02  0.25435443365E+03  0.00000000000E+00 0. -1.
</event>
<event>
 7    1  0.2842702E-009  0.8013190E+02  0.7561462E-02  0.1328678E+00
          2   -1    0    0  501    0  0.00000000000E+00  0.00000000000E+00  0.17230811068E+03  0.17230811068E+03  0.00000000000E+00 0. -1.
         -2   -1    0    0    0  501 -0.00000000000E+00 -0.00000000000E+00 -0.91178725864E+02  0.91178725864E+02  0.00000000000E+00 0.  1.
         25    2    1    2    0    0 -0.43534277157E+01  0.31994639037E+02 -0.98771677323E+01  0.12956606984E+03  0.12508876349E+03 0.  0.
          5    1    3    3  502    0  0.35263965191E+02  0.10153763631E+02  0.45069395441E+02  0.58269794596E+02  0.41800000000E+01 0.  1.
         -5    1    3    3    0  502 -0.39617392906E+02  0.21840875406E+02 -0.54946563173E+02  0.71296275244E+02  0.41800000000E+01 0.  1.
        -11    1    1    2    0    0  0.23449524395E+02  0.14544293615E+02 -0.25358539802E+01  0.27710056415E+02  0.00000000000E+00 0. -1.
         11    1    1    2    0    0 -0.19096096679E+02 -0.46538932652E+02  0.93542406528E+02  0.10621071029E+03  0.00000000000E+00 0.  1.
</event>
<event>
 7    1  0.2842702E-009  0.1190903E+03  0.7561462E-02  0.1244605E+00
          3   -1    0    0  501    0  0.00000000000E+00  0.00000000000E+00  0.75726434830E+02  0.75726434830E+02  0.00000000000E+00 0. -1.
         -3   -1    0    0    0  501 -0.00000000000E+00 -0.00000000000E+00 -0.21421925171E+03  0.21421925171E+03  0.00000000000E+00 0.  1.
         25    2    1    2    0    0  0.47683048569E+02 -0.47986203020E+02 -0.61785931264E+02  0.15505519348E+03  0.12509301708E+03 0.  0.
          5    1    3    3  502    0  0.77544494960E+02 -0.62536212776E+02 -0.68420448929E+02  0.12092459154E+03  0.41800000000E+01 0.  1.
         -5    1    3    3    0  502 -0.29861446392E+02  0.14550009756E+02  0.66345176647E+01  0.34130601945E+02  0.41800000000E+01 0.  1.
        -11    1    1    2    0    0 -0.42072070482E+02 -0.12779619577E+02 -0.11222512300E+02  0.45379759513E+02  0.00000000000E+00 0.  1.
         11    1    1    2    0    0 -0.56109780870E+01  0.60765822597E+02 -0.65484373320E+02  0.89510733547E+02  0.00000000000E+00 0. -1.
</event>
<event>
 7    1  0.2842702E-009  0.4364216E+03  0.7561462E-02  0.1031850E+00
          3   -1    0    0  501    0  0.00000000000E+00  0.00000000000E+00  0.29467121007E+03  0.29467121007E+03  0.00000000000E+00 0. -1.
         -3   -1    0    0    0  501 -0.00000000000E+00 -0.00000000000E+00 -0.66445949924E+03  0.66445949924E+03  0.00000000000E+00 0.  1.
         25    2    1    2    0    0  0.30631461199E+02 -0.42722163936E+03 -0.16724398877E+03  0.47652379276E+03  0.12509099782E+03 0.  0.
          5    1    3    3  502    0  0.68145385374E+02 -0.34091518403E+03 -0.10342420519E+03  0.36274094733E+03  0.41800000000E+01 0.  1.
         -5    1    3    3    0  502 -0.37513924175E+02 -0.86306455328E+02 -0.63819783579E+02  0.11378284543E+03  0.41800000000E+01 0.  1.
        -11    1    1    2    0    0  0.11872837774E+02  0.15333416601E+03 -0.31728177365E+02  0.15703186932E+03  0.00000000000E+00 0. -1.
         11    1    1    2    0    0 -0.42504298973E+02  0.27388747335E+03 -0.17081612304E+03  0.32557504723E+03  0.00000000000E+00 0.  1.
</event>
<event>
 7    1  0.2842702E-009  0.1634408E+03  0.7561462E-02  0.1184866E+00
         -2   -1    0    0    0  501 -0.00000000000E+00  0.00000000000E+00  0.79694800236E+02  0.79694800236E+02  0.00000000000E+00 0.  1.
          2   -1    0    0  501    0  0.00000000000E+00 -0.00000000000E+00 -0.45147615505E+03  0.45147615505E+03  0.00000000000E+00 0. -1.
         25    2    1    2    0    0  0.14731690222E+03  0.42192464387E+02 -0.16106874759E+03  0.25509491772E+03  0.12509117420E+03 0.  0.
          5    1    3    3  502    0 -0.23028297045E+01 -0.17356033699E+01  0.17363067789E+02  0.18090435781E+02  0.41800000000E+01 0. -1.
         -5    1    3    3    0  502  0.14961973192E+03  0.43928067757E+02 -0.17843181538E+03  0.23700448193E+03  0.41800000000E+01 0. -1.
        -11    1    1    2    0    0 -0.95766785075E+01 -0.25285657810E+02 -0.43411974975E+01  0.27384726726E+02  0.00000000000E+00 0.  1.
         11    1    1    2    0    0 -0.13774022371E+03 -0.16906806577E+02 -0.20637140972E+03  0.24869131084E+03  0.00000000000E+00 0. -1.
</event>
<event>
 7    1  0.2842702E-009  0.1327681E+03  0.7561462E-02  0.1223405E+00
          2   -1    0    0  501    0  0.00000000000E+00  0.00000000000E+00  0.42929900721E+03  0.42929900721E+03  0.00000000000E+00 0. -1.
         -2   -1    0    0    0  501 -0.00000000000E+00 -0.00000000000E+00 -0.45828032949E+02  0.45828032949E+02  0.00000000000E+00 0.  1.
         25    2    1    2    0    0  0.41734918412E+01 -0.88330928374E+02  0.23707584364E+03  0.28226278348E+03  0.12509017691E+03 0.  0.
          5    1    3    3  502    0  0.57258362608E+02 -0.23912577926E+02  0.14576127121E+03  0.15847445238E+03  0.41800000000E+01 0.  1.
         -5    1    3    3    0  502 -0.53084870767E+02 -0.64418350448E+02  0.91314572423E+02  0.12378833110E+03  0.41800000000E+01 0.  1.
        -11    1    1    2    0    0 -0.42223614899E+02  0.39110420330E+02  0.41675819406E+02  0.71058655748E+02  0.00000000000E+00 0.  1.
         11    1    1    2    0    0  0.38050123058E+02  0.49220508044E+02  0.10471931122E+03  0.12180560094E+03  0.00000000000E+00 0. -1.
</event>
<event>
 7    1  0.2842702E-009  0.1209952E+03  0.7561462E-02  0.1241464E+00
         -2   -1    0    0    0  501 -0.00000000000E+00  0.00000000000E+00  0.13605886145E+02  0.13605886145E+02  0.00000000000E+00 0.  1.
          2   -1    0    0  501    0  0.00000000000E+00 -0.00000000000E+00 -0.12158279074E+04  0.12158279074E+04  0.00000000000E+00 0. -1.
         25    2    1    2    0    0  0.55405582981E+02  0.32402651412E+02 -0.54549647435E+03  0.56332370463E+03  0.12508989659E+03 0.  0.
          5    1    3    3  502    0 -0.13891364612E+02  0.55539777459E+02 -0.34807439415E+03  0.35277598154E+03  0.41800000000E+01 0.  1.
         -5    1    3    3    0  502  0.69296947592E+02 -0.23137126047E+02 -0.19742208021E+03  0.21054772309E+03  0.41800000000E+01 0.  1.
        -11    1    1    2    0    0 -0.40069174199E+02 -0.64445540142E+02 -0.44345886954E+03  0.44990502925E+03  0.00000000000E+00 0. -1.
         11    1    1    2    0    0 -0.15336408782E+02  0.32042888730E+02 -0.21326667734E+03  0.21620505965E+03  0.00000000000E+00 0.  1.
</event>
<event>
 7    1  0.2842702E-009  0.1240117E+03  0.7561462E-02  0.1236622E+00
          1   -1    0    0  501    0  0.00000000000E+00  0.00000000000E+00  0.11062625647E+04  0.11062625647E+04  0.00000000000E+00 0. -1.
         -1   -1    0    0    0  501 -0.00000000000E+00 -0.00000000000E+00 -0.20563158957E+02  0.20563158957E+02  0.00000000000E+00 0.  1.
         25    2    1    2    0    0  0.25033786384E+02 -0.93152085572E+02  0.73520848331E+03  0.75198700951E+03  0.12509575143E+03 0.  0.
          5    1    3    3  502    0 -0.31550518117E+02 -0.36237703003E+02  0.92926437173E+02  0.10469671169E+03  0.41800000000E+01 0. -1.
         -5    1    3    3    0  502  0.56584304501E+02 -0.56914382569E+02  0.64228204614E+03  0.64729029782E+03  0.41800000000E+01 0. -1.
        -11    1    1    2    0    0 -0.48111651991E+02  0.44300636372E+02  0.10682806958E+03  0.12525778974E+03  0.00000000000E+00 0.  1.
         11    1    1    2    0    0  0.23077865607E+02  0.48851449201E+02  0.24366285283E+03  0.24958092439E+03  0.00000000000E+00 0. -1.
</event>
<event>
 7    1  0.2842702E-009  0.1094748E+03  0.7561462E-02  0.1261546E+00
          2   -1    0    0  501    0  0.00000000000E+00  0.00000000000E+00  0.12346431569E+04  0.12346431569E+04  0.00000000000E+00 0. -1.
         -2   -1    0    0    0  501 -0.00000000000E+00 -0.00000000000E+00 -0.14014579865E+02  0.14014579865E+02  0.00000000000E+00 0.  1.
         25    2    1    2    0    0  0.61534869512E+02  0.41143159189E+02  0.70478799952E+03  0.71962000336E+03  0.12509006854E+03 0.  0.
          5    1    3    3  502    0  0.76650102267E+02  0.40323675563E+02  0.25090995214E+03  0.26547036270E+03  0.41800000000E+01 0.  1.
         -5    1    3    3    0  502 -0.15115232755E+02  0.81948362619E+00  0.45387804738E+03  0.45414964066E+03  0.41800000000E+01 0.  1.
        -11    1    1    2    0    0 -0.84766866010E+02 -0.38673629273E+02  0.43626859171E+03  0.44610688774E+03  0.00000000000E+00 0. -1.
         11    1    1    2    0    0  0.23231996498E+02 -0.24695299161E+01  0.79571985825E+02  0.82930845693E+02  0.00000000000E+00 0.  1.
</event>
<event>
 7    1  0.2842702E-009  0.1581574E+03  0.7561462E-02  0.1190793E+00
         -2   -1    0    0    0  501 -0.00000000000E+00  0.00000000000E+00  0.22633220949E+02  0.22633220949E+02  0.00000000000E+00 0.  1.
          2   -1    0    0  501    0  0.00000000000E+00 -0.00000000000E+00 -0.13116899018E+04  0.13116899018E+04  0.00000000000E+00 0. -1.
         25    2    1    2    0    0  0.11925383019E+03 -0.60602837843E+02 -0.75542392256E+03  0.77730839405E+03  0.12509539050E+03 0.  0.
          5    1    3    3  502    0 -0.21176712984E+02  0.11583989434E+02 -0.80323757651E+02  0.83976308726E+02  0.41800000000E+01 0.  1.
         -5    1    3    3    0  502  0.14043054317E+03 -0.72186827277E+02 -0.67510016490E+03  0.69333208532E+03  0.41800000000E+01 0.  1.
        -11    1    1    2    0    0 -0.66815967353E+02  0.31134289633E+02 -0.43712221654E+03  0.44329397658E+03  0.00000000000E+00 0. -1.
         11    1    1    2    0    0 -0.52437862833E+02  0.29468548210E+02 -0.96510541788E+02  0.11372075214E+03  0.00000000000E+00 0.  1.
</event>
<event>
 7    1  0.2842702E-009  0.1169836E+03  0.7561462E-02  0.1248158E+00
          1   -1    0    0  501    0  0.00000000000E+00  0.00000000000E+00  0.28005898900E+03  0.28005898900E+03  0.00000000000E+00 0. -1.
         -1   -1    0    0    0  501 -0.00000000000E+00 -0.00000000000E+00 -0.90677379849E+02  0.90677379849E+02  0.00000000000E+00 0.  1.
         25    2    1    2    0    0  0.20864197582E+02  0.76426945541E+02  0.20181278094E+03  0.25030412215E+03  0.12508941709E+03 0.  0.
          5    1    3    3  502    0  0.41082759764E+02  0.82887283268E+02  0.20810112832E+03  0.22777543082E+03  0.41800000000E+01 0.  1.
         -5    1    3    3    0  502 -0.20218562182E+02 -0.64603377266E+01 -0.62883473762E+01  0.22528691329E+02  0.41800000000E+01 0.  1.
        -11    1    1    2    0    0  0.32998025666E+02 -0.10565974927E+02 -0.18801527770E+01  0.34699344353E+02  0.00000000000E+00 0.  1.
         11    1    1    2    0    0 -0.53862223249E+02 -0.65860970614E+02 -0.10551019011E+02  0.85732902352E+02  0.00000000000E+00 0. -1.
</event>
<event>
 7    1  0.2842702E-009  0.1472873E+03  0.7561462E-02  0.1203847E+00
         -2   -1    0    0    0  501 -0.00000000000E+00  0.00000000000E+00  0.66482505486E+03  0.66482505486E+03  0.00000000000E+00 0.  1.
          2   -1    0    0  501    0  0.00000000000E+00 -0.00000000000E+00 -0.37759691705E+02  0.37759691705E+02  0.00000000000E+00 0. -1.
         25    2    1    2    0    0  0.82871973996E+02 -0.45518142222E+02  0.21260694226E+03  0.26417604590E+03  0.12509039126E+03 0.  0.
          5    1    3    3  502    0  0.45358938678E+02  0.39459697248E+02  0.57278257123E+02  0.83143082477E+02  0.41800000000E+01 0.  1.
         -5    1    3    3    0  502  0.37513035318E+02 -0.84977839470E+02  0.15532868513E+03  0.18103296342E+03  0.41800000000E+01 0.  1.
        -11    1    1    2    0    0 -0.10125262844E+03  0.60203216869E+02  0.36694473661E+03  0.38538936391E+03  0.00000000000E+00 0.  1.
         11    1    1    2    0    0  0.18380654449E+02 -0.14685074647E+02  0.47513684281E+02  0.53019336749E+02  0.00000000000E+00 0. -1.
</event>
<event>
 7    1  0.2842702E-009  0.2301852E+03  0.7561462E-02  0.1126509E+00
         -1   -1    0    0    0  501 -0.00000000000E+00  0.00000000000E+00  0.77520696479E+02  0.77520696479E+02  0.00000000000E+00 0.  1.
          1   -1    0    0  501    0  0.00000000000E+00 -0.00000000000E+00 -0.91147088510E+03  0.91147088510E+03  0.00000000000E+00 0. -1.
         25    2    1    2    0    0  0.11456469739E+03 -0.18859712473E+03 -0.60878564379E+03  0.65951602454E+03  0.12508989247E+03 0.  0.
          5    1    3    3  502    0 -0.10646143842E+02 -0.44515973291E+02 -0.45185342127E+02  0.64453082159E+02  0.41800000000E+01 0.  1.
         -5    1    3    3    0  502  0.12521084124E+03 -0.14408115144E+03 -0.56360030166E+03  0.59506294238E+03  0.41800000000E+01 0.  1.
        -11    1    1    2    0    0 -0.89651103229E+02  0.11523962133E+03 -0.83986705637E+02  0.16843769578E+03  0.00000000000E+00 0.  1.
         11    1    1    2    0    0 -0.24913594164E+02  0.73357503398E+02 -0.14117783920E+03  0.16103786126E+03  0.00000000000E+00 0. -1.
</event>
<event>
 7    1  0.2842702E-009  0.1055610E+03  0.7561462E-02  0.1269018E+00
          1   -1    0    0  501    0  0.00000000000E+00  0.00000000000E+00  0.10112288271E+04  0.10112288271E+04  0.00000000000E+00 0. -1.
         -1   -1    0    0    0  501 -0.00000000000E+00 -0.00000000000E+00 -0.16521528123E+02  0.16521528123E+02  0.00000000000E+00 0.  1.
         25    2    1    2    0    0  0.19670104575E+02 -0.46847590678E+02  0.77186282797E+03  0.78358186751E+03  0.12508680233E+03 0.  0.
          5    1    3    3  502    0 -0.61548727028E+01 -0.74844432814E+02  0.27065021680E+03  0.28090671732E+03  0.41800000000E+01 0.  1.
         -5    1    3    3    0  502  0.25824977277E+02  0.27996842136E+02  0.50121261117E+03  0.50267515019E+03  0.41800000000E+01 0.  1.
        -11    1    1    2    0    0  0.22455149319E+02  0.50540607392E+02  0.10035249388E+03  0.11458276378E+03  0.00000000000E+00 0.  1.
         11    1    1    2    0    0 -0.42125253894E+02 -0.36930167144E+01  0.12249197709E+03  0.12958572390E+03  0.00000000000E+00 0. -1.
</event>
<event>
 7    1  0.2842702E-009  0.1535484E+03  0.7561462E-02  0.1196179E+00
          2   -1    0    0  501    0  0.00000000000E+00  0.00000000000E+00  0.36740972500E+03  0.36740972500E+03  0.00000000000E+00 0. -1.
         -2   -1    0    0    0  501 -0.00000000000E+00 -0.00000000000E+00 -0.17513374519E+03  0.17513374519E+03  0.00000000000E+00 0.  1.
         25    2    1    2    0    0  0.43658168548E+02  0.11281942381E+03  0.31075940423E+03  0.35616454934E+03  0.12509005085E+03 0.  0.
          5    1    3    3  502    0  0.68299603969E+02  0.16999104797E+02  0.17018961421E+03  0.18421667311E+03  0.41800000000E+01 0. -1.
         -5    1    3    3    0  502 -0.24641435421E+02  0.95820319013E+02  0.14056979002E+03  0.17194787623E+03  0.41800000000E+01 0. -1.
        -11    1    1    2    0    0 -0.60932592894E+02 -0.81032600408E+02 -0.10924183967E+03  0.14903973544E+03  0.00000000000E+00 0.  1.
         11    1    1    2    0    0  0.17274424346E+02 -0.31786823402E+02 -0.92415847461E+01  0.37339185411E+02  0.00000000000E+00 0. -1.
</event>
<event>
 7    1  0.2842702E-009  0.1114178E+03  0.7561462E-02  0.1257967E+00
         -1   -1    0    0    0  501 -0.00000000000E+00  0.00000000000E+00  0.33478796404E+03  0.33478796404E+03  0.00000000000E+00 0.  1.
          1   -1    0    0  501    0  0.00000000000E+00 -0.00000000000E+00 -0.43444983805E+02  0.43444983805E+02  0.00000000000E+00 0. -1.
         25    2    1    2    0    0 -0.28851698884E+02  0.16532938802E+02  0.22659287422E+03  0.26095592555E+03  0.12509158979E+03 0.  0.
          5    1    3    3  502    0 -0.42733490534E+02 -0.46820560680E+02  0.96521926312E+02  0.11555202627E+03  0.41800000000E+01 0. -1.
         -5    1    3    3    0  502  0.13881791650E+02  0.63353499482E+02  0.13007094791E+03  0.14540389928E+03  0.41800000000E+01 0. -1.
        -11    1    1    2    0    0  0.57871735397E+02  0.51359668939E+01  0.54443348029E+02  0.79621567797E+02  0.00000000000E+00 0.  1.
         11    1    1    2    0    0 -0.29020036513E+02 -0.21668905696E+02  0.10306757982E+02  0.37655454497E+02  0.00000000000E+00 0. -1.
</event>
<event>
 7    1  0.4146430E-009  0.1072744E+03  0.7561462E-02  0.1265702E+00
          1   -1    0    0  501    0  0.00000000000E+00  0.00000000000E+00  0.38650316390E+03  0.38650316390E+03  0.00000000000E+00 0. -1.
         -1   -1    0    0    0  501 -0.00000000000E+00 -0.00000000000E+00 -0.45831082236E+02  0.45831082236E+02  0.00000000000E+00 0.  1.
         25    2    1    2    0    0  0.79458360575E+01 -0.76314034451E+02  0.18099266893E+03  0.23300454472E+03  0.12508318628E+03 0.  0.
          5    1    3    3  502    0  0.81621240856E+01 -0.10667155137E+03  0.16907684150E+03  0.20012468832E+03  0.41800000000E+01 0. -1.
         -5    1    3    3    0  502 -0.21628802816E+00  0.30357516920E+02  0.11915827434E+02  0.32879856409E+02  0.41800000000E+01 0. -1.
        -11    1    1    2    0    0 -0.54485401169E+01  0.32468898838E+02 -0.81738384196E+00  0.32933024421E+02  0.00000000000E+00 0.  1.
         11    1    1    2    0    0 -0.24972959406E+01  0.43845135614E+02  0.16049679657E+03  0.16639667699E+03  0.00000000000E+00 0. -1.
</event>
<event>
 7    1  0.2842702E-009  0.1383150E+03  0.7561462E-02  0.1215614E+00
         -2   -1    0    0    0  501 -0.00000000000E+00  0.00000000000E+00  0.11483597103E+03  0.11483597103E+03  0.00000000000E+00 0.  1.
          2   -1    0    0  501    0  0.00000000000E+00 -0.00000000000E+00 -0.20528396683E+03  0.20528396683E+03  0.00000000000E+00 0. -1.
         25    2    1    2    0    0 -0.87170529116E+02 -0.30723555032E+02 -0.11019685225E+03  0.19061235733E+03  0.12508831496E+03 0.  0.
          5    1    3    3  502    0 -0.10145749632E+03 -0.58565658415E+02 -0.10728619799E+03  0.15890676695E+03  0.41800000000E+01 0. -1.
         -5    1    3    3    0  502  0.14286967203E+02  0.27842103383E+02 -0.29106542626E+01  0.31705590373E+02  0.41800000000E+01 0. -1.
        -11    1    1    2    0    0  0.64450412344E+02 -0.23850310854E+02  0.74203619845E+01  0.69121304610E+02  0.00000000000E+00 0.  1.
         11    1    1    2    0    0  0.22720116772E+02  0.54573865885E+02  0.12328494471E+02  0.60386275922E+02  0.00000000000E+00 0. -1.
</event>
<event>
 7    1  0.2842702E-009  0.1011564E+03  0.7561462E-02  0.1277883E+00
         -1   -1    0    0    0  501 -0.00000000000E+00  0.00000000000E+00  0.11118757166E+03  0.11118757166E+03  0.00000000000E+00 0.  1.
          1   -1    0    0  501    0  0.00000000000E+00 -0.00000000000E+00 -0.18486038312E+03  0.18486038312E+03  0.00000000000E+00 0. -1.
         25    2    1    2    0    0 -0.21626110995E+02  0.24715465688E+02  0.47558315377E+02  0.13779374487E+03  0.12508708903E+03 0.  0.
          5    1    3    3  502    0  0.21020502494E+02 -0.42324938070E+02  0.53961252592E+01  0.47747800741E+02  0.41800000000E+01 0.  1.
         -5    1    3    3    0  502 -0.42646613489E+02  0.67040403758E+02  0.42162190117E+02  0.90045944127E+02  0.41800000000E+01 0.  1.
        -11    1    1    2    0    0  0.28189584959E+02  0.17105086430E+02 -0.10945580836E+03  0.11431452517E+03  0.00000000000E+00 0. -1.
         11    1    1    2    0    0 -0.65634739645E+01 -0.41820552118E+02 -0.11775318478E+02  0.43939684742E+02  0.00000000000E+00 0.  1.
</event>
<event>
 7    1  0.2842702E-009  0.1076216E+03  0.7561462E-02  0.1265039E+00
          2   -1    0    0  501    0  0.00000000000E+00  0.00000000000E+00  0.80718131960E+03  0.80718131960E+03  0.00000000000E+00 0. -1.
         -2   -1    0    0    0  501 -0.00000000000E+00 -0.00000000000E+00 -0.18748620413E+02  0.18748620413E+02  0.00000000000E+00 0.  1.
         25    2    1    2    0    0  0.26520022728E+02 -0.88432688370E+01  0.61785789250E+03  0.63101297900E+03  0.12508992498E+03 0.  0.
          5    1    3    3  502    0  0.45452258384E+02  0.45961498929E+02  0.23488378648E+03  0.24365186790E+03  0.41800000000E+01 0.  1.
         -5    1    3    3    0  502 -0.18932235656E+02 -0.54804767766E+02  0.38297410601E+03  0.38736111110E+03  0.41800000000E+01 0.  1.
        -11    1    1    2    0    0  0.21748493472E+02  0.32085512317E+02  0.91836667523E+02  0.99681746427E+02  0.00000000000E+00 0.  1.
         11    1    1    2    0    0 -0.48268516201E+02 -0.23242243480E+02  0.78738139163E+02  0.95235214585E+02  0.00000000000E+00 0. -1.
</event>
<event>
 7    1  0.2842702E-009  0.1621065E+03  0.7561462E-02  0.1186339E+00
         -1   -1    0    0    0  501 -0.00000000000E+00  0.00000000000E+00  0.96036238918E+02  0.96036238918E+02  0.00000000000E+00 0.  1.
          1   -1    0    0  501    0  0.00000000000E+00 -0.00000000000E+00 -0.36052471209E+03  0.36052471209E+03  0.00000000000E+00 0. -1.
         25    2    1    2    0    0 -0.37259976676E+02  0.14206448425E+03 -0.16858373489E+03  0.25619931707E+03  0.12508793249E+03 0.  0.
          5    1    3    3  502    0 -0.57425009689E+02  0.75787203275E+02 -0.27664885410E+02  0.99116851256E+02  0.41800000000E+01 0.  1.
         -5    1    3    3    0  502  0.20165033014E+02  0.66277280971E+02 -0.14091884948E+03  0.15708246582E+03  0.41800000000E+01 0.  1.
        -11    1    1    2    0    0  0.47533138241E+02 -0.58215221061E+02 -0.87685289038E+02  0.11548645422E+03  0.00000000000E+00 0. -1.
         11    1    1    2    0    0 -0.10273161565E+02 -0.83849263185E+02 -0.82194492417E+01  0.84875179711E+02  0.00000000000E+00 0.  1.
</event>
<event>
 7    1  0.2842702E-009  0.9857844E+02  0.7561462E-02  0.1283314E+00
          2   -1    0    0  501    0  0.00000000000E+00  0.00000000000E+00  0.22562156237E+02  0.22562156237E+02  0.00000000000E+00 0. -1.
         -2   -1    0    0    0  501 -0.00000000000E+00 -0.00000000000E+00 -0.79130637494E+03  0.79130637494E+03  0.00000000000E+00 0.  1.
         25    2    1    2    0    0  0.56226001411E+02 -0.35477152336E+02 -0.30378743589E+03  0.33519735444E+03  0.12510183310E+03 0.  0.
          5    1    3    3  502    0  0.25881780101E+02  0.17885572681E+02 -0.25420048442E+03  0.25617400128E+03  0.41800000000E+01 0.  1.
         -5    1    3    3    0  502  0.30344221310E+02 -0.53362725017E+02 -0.49586951464E+02  0.79023353153E+02  0.41800000000E+01 0.  1.
        -11    1    1    2    0    0  0.20663758456E+02  0.93794433574E+01 -0.39666708749E+02  0.45699153758E+02  0.00000000000E+00 0. -1.
         11    1    1    2    0    0 -0.76889759868E+02  0.26097708978E+02 -0.42529007406E+03  0.43297202298E+03  0.00000000000E+00 0.  1.
</event>
<event>
 7    1  0.2842702E-009  0.1354986E+03  0.7561462E-02  0.1219518E+00
          2   -1    0    0  501    0  0.00000000000E+00  0.00000000000E+00  0.75088228919E+03  0.75088228919E+03  0.00000000000E+00 0. -1.
         -2   -1    0    0    0  501 -0.00000000000E+00 -0.00000000000E+00 -0.36659142587E+02  0.36659142587E+02  0.00000000000E+00 0.  1.
         25    2    1    2    0    0 -0.56332352385E+02  0.77606134810E+02  0.19394578291E+03  0.24991603288E+03  0.12508801180E+03 0.  0.
          5    1    3    3  502    0 -0.83043902044E+02  0.50265863533E+02  0.68952478822E+02  0.11914219840E+03  0.41800000000E+01 0.  1.
         -5    1    3    3    0  502  0.26711549659E+02  0.27340271276E+02  0.12499330409E+03  0.13077383448E+03  0.41800000000E+01 0.  1.
        -11    1    1    2    0    0  0.10503255069E+02 -0.87807771804E+02  0.33057617108E+03  0.34220042087E+03  0.00000000000E+00 0.  1.
         11    1    1    2    0    0  0.45829097316E+02  0.10201636994E+02  0.18970119262E+03  0.19542497803E+03  0.00000000000E+00 0. -1.
</event>
<event>
 7    1  0.2842702E-009  0.1362658E+03  0.7561462E-02  0.1218444E+00
          2   -1    0    0  501    0  0.00000000000E+00  0.00000000000E+00  0.13484996749E+04  0.13484996749E+04  0.00000000000E+00 0. -1.
         -2   -1    0    0    0  501 -0.00000000000E+00 -0.00000000000E+00 -0.14045261158E+02  0.14045261158E+02  0.00000000000E+00 0.  1.
         25    2    1    2    0    0 -0.87232582125E+02 -0.11895256161E+02  0.75608335066E+03  0.77140226000E+03  0.12509353732E+03 0.  0.
          5    1    3    3  502    0  0.47505634349E+01  0.43774980559E+02  0.17982764140E+03  0.18518712101E+03  0.41800000000E+01 0.  1.
         -5    1    3    3    0  502 -0.91983145560E+02 -0.55670236720E+02  0.57625570926E+03  0.58621513899E+03  0.41800000000E+01 0.  1.
        -11    1    1    2    0    0  0.52660915566E+02  0.47612824806E+02  0.38457843417E+03  0.39107636740E+03  0.00000000000E+00 0. -1.
         11    1    1    2    0    0  0.34571666560E+02 -0.35717568645E+02  0.19379262892E+03  0.20006630866E+03  0.00000000000E+00 0.  1.
</event>
<event>
 7    1  0.2842702E-009  0.9591169E+02  0.7561462E-02  0.1289136E+00
          2   -1    0    0  501    0  0.00000000000E+00  0.00000000000E+00  0.44818384256E+03  0.44818384256E+03  0.00000000000E+00 0. -1.
         -2   -1    0    0    0  501 -0.00000000000E+00 -0.00000000000E+00 -0.33447443865E+02  0.33447443865E+02  0.00000000000E+00 0.  1.
         25    2    1    2    0    0  0.17120396674E+01  0.19416835241E+02  0.34290364295E+03  0.36552713909E+03  0.12508891435E+03 0.  0.
          5    1    3    3  502    0  0.13949907313E+02  0.67992876793E+02  0.25453026589E+03  0.26385746126E+03  0.41800000000E+01 0.  1.
         -5    1    3    3    0  502 -0.12237867645E+02 -0.48576041552E+02  0.88373377058E+02  0.10166967783E+03  0.41800000000E+01 0.  1.
        -11    1    1    2    0    0 -0.25098941571E+02 -0.35615966261E+02  0.75749328466E+02  0.87386581829E+02  0.00000000000E+00 0. -1.
         11    1    1    2    0    0  0.23386901904E+02  0.16199131020E+02 -0.39165727235E+01  0.28717565502E+02  0.00000000000E+00 0.  1.
</event>
<event>
 7    1  0.2842702E-009  0.1419644E+03  0.7561462E-02  0.1210710E+00
         -1   -1    0    0    0  501 -0.00000000000E+00  0.00000000000E+00  0.20538315080E+02  0.20538315080E+02  0.00000000000E+00 0.  1.
          1   -1    0    0  501    0  0.00000000000E+00 -0.00000000000E+00 -0.10678403213E+04  0.10678403213E+04  0.00000000000E+00 0. -1.
         25    2    1    2    0    0  0.88347039783E+02 -0.33081811598E+02 -0.57977590116E+03  0.60057281311E+03  0.12509197650E+03 0.  0.
          5    1    3    3  502    0  0.47305599410E+02 -0.77909860339E+02 -0.41457071718E+03  0.42449277734E+03  0.41800000000E+01 0.  1.
         -5    1    3    3    0  502  0.41041440373E+02  0.44828048741E+02 -0.16520518398E+03  0.17608003577E+03  0.41800000000E+01 0.  1.
        -11    1    1    2    0    0 -0.18796463095E+02 -0.31611575436E+02 -0.21261440355E+03  0.21577183163E+03  0.00000000000E+00 0. -1.
         11    1    1    2    0    0 -0.69550576688E+02  0.64693387034E+02 -0.25491170153E+03  0.27203399166E+03  0.00000000000E+00 0.  1.
</event>
<event>
 7    1  0.3161350E-009  0.1922199E+03  0.7561462E-02  0.1156474E+00
          2   -1    0    0  501    0  0.00000000000E+00  0.00000000000E+00  0.38999967846E+03  0.38999967846E+03  0.00000000000E+00 0. -1.
         -2   -1    0    0    0  501 -0.00000000000E+00 -0.00000000000E+00 -0.12570320319E+03  0.12570320319E+03  0.00000000000E+00 0.  1.
         25    2    1    2    0    0 -0.13438516329E+03 -0.98097161642E+02  0.25050517836E+03  0.32570499451E+03  0.12509386008E+03 0.  0.
          5    1    3    3  502    0 -0.97874745832E+02  0.54107599578E+01  0.11091119980E+03  0.14807940045E+03  0.41800000000E+01 0. -1.
         -5    1    3    3    0  502 -0.36510417462E+02 -0.10350792160E+03  0.13959397856E+03  0.17762559406E+03  0.41800000000E+01 0. -1.
        -11    1    1    2    0    0  0.27854605485E+02  0.54843924057E+02 -0.28101458477E+02  0.67627117499E+02  0.00000000000E+00 0.  1.
         11    1    1    2    0    0  0.10653055781E+03  0.43253237586E+02  0.41892755389E+02  0.12237076964E+03  0.00000000000E+00 0. -1.
</event>
<event>
 7    1  0.2842702E-009  0.1738454E+03  0.7561462E-02  0.1173896E+00
         -1   -1    0    0    0  501 -0.00000000000E+00  0.00000000000E+00  0.61482839345E+02  0.61482839345E+02  0.00000000000E+00 0.  1.
          1   -1    0    0  501    0  0.00000000000E+00 -0.00000000000E+00 -0.57705498989E+03  0.57705498989E+03  0.00000000000E+00 0. -1.
         25    2    1    2    0    0 -0.12828114909E+02  0.15249848951E+03 -0.29569003613E+03  0.35566742519E+03  0.12508545095E+03 0.  0.
          5    1    3    3  502    0 -0.12494322044E+02 -0.16284331684E+02 -0.86651147421E+01  0.22668130827E+02  0.41800000000E+01 0. -1.
         -5    1    3    3    0  502 -0.33379286520E+00  0.16878282119E+03 -0.28702492139E+03  0.33299929436E+03  0.41800000000E+01 0. -1.
        -11    1    1    2    0    0 -0.14068211328E+02 -0.50183656664E+02 -0.14269195999E+03  0.15191217664E+03  0.00000000000E+00 0. -1.
         11    1    1    2    0    0  0.26896326237E+02 -0.10231483284E+03 -0.77190154429E+02  0.13095822741E+03  0.00000000000E+00 0.  1.
</event>
<event>
 7    1  0.2842702E-009  0.7799629E+02  0.7561462E-02  0.1334836E+00
          2   -1    0    0  501    0  0.00000000000E+00  0.00000000000E+00  0.33744842823E+03  0.33744842823E+03  0.00000000000E+00 0.  1.
         -2   -1    0    0    0  501 -0.00000000000E+00 -0.00000000000E+00 -0.34245069442E+02  0.34245069442E+02  0.00000000000E+00 0. -1.
         25    2    1    2    0    0 -0.57689796201E+01 -0.62838251185E+01  0.16414512653E+03  0.20655193489E+03  0.12508921481E+03 0.  0.
          5    1    3    3  502    0  0.13946169255E+02  0.26178552223E+02  0.16562676538E+03  0.16831372506E+03  0.41800000000E+01 0. -1.
         -5    1    3    3    0  502 -0.19715148875E+02 -0.32462377342E+02 -0.14816388457E+01  0.38238209837E+02  0.41800000000E+01 0. -1.
        -11    1    1    2    0    0  0.25584952482E+02  0.40724151855E+02  0.89674039263E+02  0.10175696367E+03  0.00000000000E+00 0.  1.
         11    1    1    2    0    0 -0.19815972861E+02 -0.34440326737E+02  0.49384192990E+02  0.63384599103E+02  0.00000000000E+00 0. -1.
</event>
<event>
 7    1  0.2842702E-009  0.1494647E+03  0.7561462E-02  0.1201132E+00
         -1   -1    0    0    0  501 -0.00000000000E+00  0.00000000000E+00  0.38911737428E+02  0.38911737428E+02  0.00000000000E+00 0.  1.
          1   -1    0    0  501    0  0.00000000000E+00 -0.00000000000E+00 -0.71508737885E+03  0.71508737885E+03  0.00000000000E+00 0. -1.
         25    2    1    2    0    0 -0.54924304791E+02  0.10654693953E+03 -0.44434140676E+03  0.47692318728E+03  0.12509001249E+03 0.  0.
          5    1    3    3  502    0 -0.63065299185E+02  0.70828715181E+01 -0.25545598238E+03  0.26325392754E+03  0.41800000000E+01 0.  1.
         -5    1    3    3    0  502  0.81409943942E+01  0.99464068013E+02 -0.18888542437E+03  0.21366925973E+03  0.41800000000E+01 0.  1.
        -11    1    1    2    0    0  0.30065343932E+02 -0.44824729476E+01 -0.10642621116E+02  0.32206875876E+02  0.00000000000E+00 0.  1.
         11    1    1    2    0    0  0.24858960859E+02 -0.10206446658E+03 -0.22119161355E+03  0.24486905313E+03  0.00000000000E+00 0. -1.
</event>
<event>
 7    1  0.2842702E-009  0.1200805E+03  0.7561462E-02  0.1242964E+00
         -2   -1    0    0    0  501 -0.00000000000E+00  0.00000000000E+00  0.13874956864E+03  0.13874956864E+03  0.00000000000E+00 0.  1.
          2   -1    0    0  501    0  0.00000000000E+00 -0.00000000000E+00 -0.15587814209E+03  0.15587814209E+03  0.00000000000E+00 0. -1.
         25    2    1    2    0    0  0.86194131939E+01  0.54283518725E+02  0.73475216484E+02  0.15512623779E+03  0.12507816565E+03 0.  0.
          5    1    3    3  502    0  0.82627899675E+01  0.95112462198E+02  0.52478427009E+02  0.10902344640E+03  0.41800000000E+01 0.  1.
         -5    1    3    3    0  502  0.35662322645E+00 -0.40828943474E+02  0.20996789475E+02  0.46102791386E+02  0.41800000000E+01 0.  1.
        -11    1    1    2    0    0  0.21238091938E+02  0.16394104552E+02 -0.37831826526E+02  0.46379632507E+02  0.00000000000E+00 0.  1.
         11    1    1    2    0    0 -0.29857505132E+02 -0.70677623277E+02 -0.52771963408E+02  0.93121840439E+02  0.00000000000E+00 0. -1.
</event>
<event>
 7    1  0.2842702E-009  0.1166996E+03  0.7561462E-02  0.1248643E+00
          1   -1    0    0  501    0  0.00000000000E+00  0.00000000000E+00  0.33659754085E+03  0.33659754085E+03  0.00000000000E+00 0. -1.
         -1   -1    0    0    0  501 -0.00000000000E+00 -0.00000000000E+00 -0.56471054155E+02  0.56471054155E+02  0.00000000000E+00 0.  1.
         25    2    1    2    0    0  0.12677117450E+02 -0.75868991111E+02  0.10428091935E+03  0.18010637928E+03  0.12508790748E+03 0.  0.
          5    1    3    3  502    0  0.48691811062E+02 -0.13234447199E+02 -0.29740196671E+01  0.50718440927E+02  0.41800000000E+01 0.  1.
         -5    1    3    3    0  502 -0.36014693612E+02 -0.62634543912E+02  0.10725493902E+03  0.12938793835E+03  0.41800000000E+01 0.  1.
        -11    1    1    2    0    0 -0.45417081510E+02  0.31567858528E+02  0.46086641891E+02  0.71994579974E+02  0.00000000000E+00 0.  1.
         11    1    1    2    0    0  0.32739964060E+02  0.44301132583E+02  0.12975892545E+03  0.14096763575E+03  0.00000000000E+00 0. -1.
</event>
<event>
 7    1  0.2842702E-009  0.9480949E+02  0.7561462E-02  0.1291606E+00
          1   -1    0    0  501    0  0.00000000000E+00  0.00000000000E+00  0.47451645739E+02  0.47451645739E+02  0.00000000000E+00 0. -1.
         -1   -1    0    0    0  501 -0.00000000000E+00 -0.00000000000E+00 -0.30724726264E+03  0.30724726264E+03  0.00000000000E+00 0.  1.
         25    2    1    2    0    0  0.17902791617E+02 -0.48850413807E+02 -0.14483963102E+03  0.19832476659E+03  0.12508925396E+03 0.  0.
          5    1    3    3  502    0  0.53449543500E+02 -0.68037153744E+02 -0.63477067702E+02  0.10739049545E+03  0.41800000000E+01 0. -1.
         -5    1    3    3    0  502 -0.35546751883E+02  0.19186739936E+02 -0.81362563314E+02  0.90934271140E+02  0.41800000000E+01 0. -1.
        -11    1    1    2    0    0 -0.21657962408E+02  0.10890910558E+02 -0.11570971925E+03  0.11822190320E+03  0.00000000000E+00 0.  1.
         11    1    1    2    0    0  0.37551707909E+01  0.37959503249E+02  0.75373336622E+00  0.38152238579E+02  0.00000000000E+00 0. -1.
</event>
<event>
 7    1  0.2842702E-009  0.1024709E+03  0.7561462E-02  0.1275184E+00
          1   -1    0    0  501    0  0.00000000000E+00  0.00000000000E+00  0.20500647582E+03  0.20500647582E+03  0.00000000000E+00 0. -1.
         -1   -1    0    0    0  501 -0.00000000000E+00 -0.00000000000E+00 -0.78937618478E+02  0.78937618478E+02  0.00000000000E+00 0.  1.
         25    2    1    2    0    0  0.56088730080E+02 -0.30214402909E+02  0.38405949974E+02  0.14553791186E+03  0.12508961192E+03 0.  0.
          5    1    3    3  502    0 -0.91770086493E+00 -0.50521649274E+02 -0.26070262305E+02  0.57012368806E+02  0.41800000000E+01 0. -1.
         -5    1    3    3    0  502  0.57006430945E+02  0.20307246364E+02  0.64476212279E+02  0.88525543059E+02  0.41800000000E+01 0. -1.
        -11    1    1    2    0    0 -0.11690992043E+01 -0.19479397076E+02 -0.46429589878E+01  0.20059181727E+02  0.00000000000E+00 0.  1.
         11    1    1    2    0    0 -0.54919630876E+02  0.49693799985E+02  0.92305866355E+02  0.11834700071E+03  0.00000000000E+00 0. -1.
</event>
<event>
 7    1  0.2842702E-009  0.1374024E+03  0.7561462E-02  0.1216868E+00
         -1   -1    0    0    0  501 -0.00000000000E+00  0.00000000000E+00  0.54546020293E+03  0.54546020293E+03  0.00000000000E+00 0. -1.
          1   -1    0    0  501    0  0.00000000000E+00 -0.00000000000E+00 -0.43335203762E+02  0.43335203762E+02  0.00000000000E+00 0.  1.
         25    2    1    2    0    0  0.75075778652E+02  0.73046629641E+02  0.21462897437E+03  0.26960415896E+03  0.12509445729E+03 0.  0.
          5    1    3    3  502    0  0.84661269367E+02  0.74576168055E+01  0.16841426808E+03  0.18869018171E+03  0.41800000000E+01 0.  1.
         -5    1    3    3    0  502 -0.95854907153E+01  0.65589012836E+02  0.46214706289E+02  0.80913977250E+02  0.41800000000E+01 0.  1.
        -11    1    1    2    0    0 -0.74911970299E+00  0.11041522799E+02  0.55202032516E+00  0.11080664804E+02  0.00000000000E+00 0.  1.
         11    1    1    2    0    0 -0.74326658949E+02 -0.84088152441E+02  0.28694400447E+03  0.30811058293E+03  0.00000000000E+00 0. -1.
</event>
<event>
 7    1  0.2842702E-009  0.1434370E+03  0.7561462E-02  0.1208778E+00
          1   -1    0    0  501    0  0.00000000000E+00  0.00000000000E+00  0.22247335190E+03  0.22247335190E+03  0.00000000000E+00 0. -1.
         -1   -1    0    0    0  501 -0.00000000000E+00 -0.00000000000E+00 -0.10989537170E+03  0.10989537170E+03  0.00000000000E+00 0.  1.
         25    2    1    2    0    0  0.57237668474E+02 -0.82426453739E+02  0.15654912486E+02  0.16112948453E+03  0.12508942214E+03 0.  0.
          5    1    3    3  502    0  0.93021369808E+02 -0.42921716422E+02 -0.76266322243E+01  0.10281481849E+03  0.41800000000E+01 0. -1.
         -5    1    3    3    0  502 -0.35783701334E+02 -0.39504737316E+02  0.23281544710E+02  0.58314666043E+02  0.41800000000E+01 0. -1.
        -11    1    1    2    0    0  0.23650207491E+01 -0.15803028832E+02  0.39876750176E+02  0.42959099711E+02  0.00000000000E+00 0. -1.
         11    1    1    2    0    0 -0.59602689223E+02  0.98229482571E+02  0.57046317544E+02  0.12828013936E+03  0.00000000000E+00 0.  1.
</event>
<event>
 7    1  0.2842702E-009  0.1095048E+03  0.7561462E-02  0.1261490E+00
          2   -1    0    0  501    0  0.00000000000E+00  0.00000000000E+00  0.17421257741E+03  0.17421257741E+03  0.00000000000E+00 0. -1.
         -2   -1    0    0    0  501 -0.00000000000E+00 -0.00000000000E+00 -0.77268575048E+02  0.77268575048E+02  0.00000000000E+00 0.  1.
         25    2    1    2    0    0  0.31145566531E+01  0.73864940624E+01  0.95723210171E+02  0.15771672051E+03  0.12508944881E+03 0.  0.
          5    1    3    3  502    0 -0.59671290290E+02 -0.83327391899E+01  0.49183968314E+02  0.77888590733E+02  0.41800000000E+01 0. -1.
         -5    1    3    3    0  502  0.62785846943E+02  0.15719233252E+02  0.46539241857E+02  0.79828129773E+02  0.41800000000E+01 0. -1.
        -11    1    1    2    0    0 -0.36471304743E+02 -0.34927826557E+02  0.81575114601E+00  0.50505193669E+02  0.00000000000E+00 0.  1.
         11    1    1    2    0    0  0.33356748090E+02  0.27541332495E+02  0.40504104655E+00  0.43259238285E+02  0.00000000000E+00 0. -1.
</event>
<event>
 7    1  0.3187167E-009  0.1237690E+03  0.7561462E-02  0.1237006E+00
         -2   -1    0    0    0  501 -0.00000000000E+00  0.00000000000E+00  0.12909498432E+03  0.12909498432E+03  0.00000000000E+00 0.  1.
          2   -1    0    0  501    0  0.00000000000E+00 -0.00000000000E+00 -0.12888936924E+03  0.12888936924E+03  0.00000000000E+00 0. -1.
         25    2    1    2    0    0  0.16184611165E+02  0.67679011820E+02 -0.29010835547E+01  0.14317251729E+03  0.12509022000E+03 0.  0.
          5    1    3    3  502    0 -0.29522813416E+02 -0.22142157528E+02 -0.17842704537E+02  0.41203229937E+02  0.41800000000E+01 0.  1.
         -5    1    3    3    0  502  0.45707424582E+02  0.89821169348E+02  0.14941620983E+02  0.10196928735E+03  0.41800000000E+01 0.  1.
        -11    1    1    2    0    0  0.33658452463E+02 -0.40831551862E+02 -0.15633339190E+02  0.55177063568E+02  0.00000000000E+00 0. -1.
         11    1    1    2    0    0 -0.49843063629E+02 -0.26847459958E+02  0.18740037829E+02  0.59634772708E+02  0.00000000000E+00 0.  1.
</event>
<event>
 7    1  0.2842702E-009  0.1124237E+03  0.7561462E-02  0.1256146E+00
         -2   -1    0    0    0  501 -0.00000000000E+00  0.00000000000E+00  0.55069838080E+03  0.55069838080E+03  0.00000000000E+00 0.  1.
          2   -1    0    0  501    0  0.00000000000E+00 -0.00000000000E+00 -0.44103416848E+02  0.44103416848E+02  0.00000000000E+00 0. -1.
         25    2    1    2    0    0  0.35915769850E+02  0.38373200746E+02  0.46191463090E+03  0.48143032932E+03  0.12509033012E+03 0.  0.
          5    1    3    3  502    0  0.31790327923E+02  0.79980448583E+02  0.37656093474E+03  0.38629406814E+03  0.41800000000E+01 0. -1.
         -5    1    3    3    0  502  0.41254419267E+01 -0.41607247838E+02  0.85353696156E+02  0.95136261179E+02  0.41800000000E+01 0. -1.
        -11    1    1    2    0    0 -0.60620687310E+02 -0.14556920193E+02  0.75288112812E+01  0.62796931889E+02  0.00000000000E+00 0. -1.
         11    1    1    2    0    0  0.24704917460E+02 -0.23816280553E+02  0.37151521770E+02  0.50574536438E+02  0.00000000000E+00 0.  1.
</event>
<event>
 7    1  0.2842702E-009  0.1201185E+03  0.7561462E-02  0.1242902E+00
         -1   -1    0    0    0  501 -0.00000000000E+00  0.00000000000E+00  0.61172778190E+02  0.61172778190E+02  0.00000000000E+00 0.  1.
          1   -1    0    0  501    0  0.00000000000E+00 -0.00000000000E+00 -0.27893317163E+03  0.27893317163E+03  0.00000000000E+00 0. -1.
         25    2    1    2    0    0  0.23300177150E+02  0.59404405906E+02 -0.78828104682E+02  0.16103971699E+03  0.12509252042E+03 0.  0.
          5    1    3    3  502    0  0.64188461988E+02  0.13637861289E+02 -0.74510094916E+02  0.99374929219E+02  0.41800000000E+01 0. -1.
         -5    1    3    3    0  502 -0.40888284838E+02  0.45766544617E+02 -0.43180097663E+01  0.61664787776E+02  0.41800000000E+01 0. -1.
        -11    1    1    2    0    0  0.27132201643E+02 -0.56234163284E+02 -0.77316231941E+02  0.99379259445E+02  0.00000000000E+00 0.  1.
         11    1    1    2    0    0 -0.50432378793E+02 -0.31702426219E+01 -0.61616056819E+02  0.79686973383E+02  0.00000000000E+00 0. -1.
</event>
<event>
 7    1  0.2842702E-009  0.2127910E+03  0.7561462E-02  0.1139375E+00
         -2   -1    0    0    0  501 -0.00000000000E+00  0.00000000000E+00  0.49605935802E+02  0.49605935802E+02  0.00000000000E+00 0.  1.
          2   -1    0    0  501    0  0.00000000000E+00 -0.00000000000E+00 -0.15878363071E+04  0.15878363071E+04  0.00000000000E+00 0. -1.
         25    2    1    2    0    0 -0.19526426231E+03  0.48236514535E+02 -0.12603478241E+04  0.12824113319E+04  0.12508914009E+03 0.  0.
          5    1    3    3  502    0 -0.61193820969E+02  0.40456901907E+02 -0.78523776381E+03  0.78866803076E+03  0.41800000000E+01 0.  1.
         -5    1    3    3    0  502 -0.13407044135E+03  0.77796126278E+01 -0.47511006029E+03  0.49374330113E+03  0.41800000000E+01 0.  1.
        -11    1    1    2    0    0  0.14271422367E+03 -0.72257121843E+02 -0.17545086138E+03  0.23742671723E+03  0.00000000000E+00 0. -1.
         11    1    1    2    0    0  0.52550038649E+02  0.24020607308E+02 -0.10243168583E+03  0.11760419380E+03  0.00000000000E+00 0.  1.
</event>
<event>
 7    1  0.2842702E-009  0.1633106E+03  0.7561462E-02  0.1185009E+00
         -2   -1    0    0    0  501 -0.00000000000E+00  0.00000000000E+00  0.18015849627E+02  0.18015849627E+02  0.00000000000E+00 0.  1.
          2   -1    0    0  501    0  0.00000000000E+00 -0.00000000000E+00 -0.16062844671E+04  0.16062844671E+04  0.00000000000E+00 0. -1.
         25    2    1    2    0    0 -0.28877058999E+02  0.12420789072E+03 -0.99733681878E+03  0.10132080859E+04  0.12509360740E+03 0.  0.
          5    1    3    3  502    0 -0.31693602877E+02  0.14902342970E+03 -0.88731176250E+03  0.90030667182E+03  0.41800000000E+01 0.  1.
         -5    1    3    3    0  502  0.28165438787E+01 -0.24815538971E+02 -0.11002505629E+03  0.11290141409E+03  0.41800000000E+01 0.  1.
        -11    1    1    2    0    0  0.54082762521E+02 -0.65145342480E+02 -0.42104589191E+03  0.42947468370E+03  0.00000000000E+00 0. -1.
         11    1    1    2    0    0 -0.25205703522E+02 -0.59062548244E+02 -0.16988590682E+03  0.18161754714E+03  0.00000000000E+00 0.  1.
</event>
<event>
 7    1  0.2842702E-009  0.6898455E+02  0.7561462E-02  0.1363581E+00
         -2   -1    0    0    0  501 -0.00000000000E+00  0.00000000000E+00  0.26763661444E+02  0.26763661444E+02  0.00000000000E+00 0.  1.
          2   -1    0    0  501    0  0.00000000000E+00 -0.00000000000E+00 -0.50608938409E+03  0.50608938409E+03  0.00000000000E+00 0. -1.
         25    2    1    2    0    0  0.37052041652E+02  0.81185725959E+01 -0.22599513362E+03  0.26107587258E+03  0.12509214929E+03 0.  0.
          5    1    3    3  502    0 -0.30658488229E+01 -0.13306241579E+02 -0.21315549248E+03  0.21363331170E+03  0.41800000000E+01 0. -1.
         -5    1    3    3    0  502  0.40117890475E+02  0.21424814175E+02 -0.12839641141E+02  0.47442560884E+02  0.41800000000E+01 0. -1.
        -11    1    1    2    0    0  0.54915729353E+01  0.24057113763E+02 -0.18172712429E+02  0.30645547359E+02  0.00000000000E+00 0.  1.
         11    1    1    2    0    0 -0.42543614587E+02 -0.32175686359E+02 -0.23515787660E+03  0.24113162560E+03  0.00000000000E+00 0. -1.
</event>
<event>
 7    1  0.2842702E-009  0.8838602E+02  0.7561462E-02  0.1306808E+00
          1   -1    0    0  501    0  0.00000000000E+00  0.00000000000E+00  0.27029196348E+03  0.27029196348E+03  0.00000000000E+00 0. -1.
         -1   -1    0    0    0  501 -0.00000000000E+00 -0.00000000000E+00 -0.68751552558E+02  0.68751552558E+02  0.00000000000E+00 0.  1.
         25    2    1    2    0    0 -0.59930870247E+01 -0.46327677465E+02  0.19284861801E+03  0.23456418702E+03  0.12509035763E+03 0.  0.
          5    1    3    3  502    0 -0.31156330334E+02 -0.20454542382E+02 -0.82360076678E+00  0.37513410164E+02  0.41800000000E+01 0.  1.
         -5    1    3    3    0  502  0.25163243309E+02 -0.25873135083E+02  0.19367221877E+03  0.19705077685E+03  0.41800000000E+01 0.  1.
        -11    1    1    2    0    0  0.14441721414E+02 -0.26200026696E+02 -0.45790233980E+01  0.30265032159E+02  0.00000000000E+00 0. -1.
         11    1    1    2    0    0 -0.84486343893E+01  0.72527704161E+02  0.13270816316E+02  0.74214296868E+02  0.00000000000E+00 0.  1.
</event>
<event>
 7    1  0.2842702E-009  0.1189211E+03  0.7561462E-02  0.1244888E+00
         -2   -1    0    0    0  501 -0.00000000000E+00  0.00000000000E+00  0.60922925866E+02  0.60922925866E+02  0.00000000000E+00 0. -1.
          2   -1    0    0  501    0  0.00000000000E+00 -0.00000000000E+00 -0.34520642156E+03  0.34520642156E+03  0.00000000000E+00 0.  1.
         25    2    1    2    0    0  0.76687620448E+01 -0.89768554412E+02 -0.12848691694E+03  0.20068431728E+03  0.12509238227E+03 0.  0.
          5    1    3    3  502    0  0.49303434834E+02 -0.86633058318E+02 -0.12298605065E+03  0.15836400012E+03  0.41800000000E+01 0.  1.
         -5    1    3    3    0  502 -0.41634672789E+02 -0.31354960942E+01 -0.55008662903E+01  0.42320317153E+02  0.41800000000E+01 0.  1.
        -11    1    1    2    0    0 -0.15723363086E+02  0.18025332588E+02  0.89780545895E+01  0.25548820440E+02  0.00000000000E+00 0. -1.
         11    1    1    2    0    0  0.80546010416E+01  0.71743221823E+02 -0.16477463334E+03  0.17989620971E+03  0.00000000000E+00 0.  1.
</event>
<event>
 7    1  0.2842702E-009  0.7774699E+02  0.7561462E-02  0.1335570E+00
         -4   -1    0    0    0  501 -0.00000000000E+00  0.00000000000E+00  0.44188882919E+03  0.44188882919E+03  0.00000000000E+00 0. -1.
          4   -1    0    0  501    0  0.00000000000E+00 -0.00000000000E+00 -0.28117029759E+02  0.28117029759E+02  0.00000000000E+00 0.  1.
         25    2    1    2    0    0  0.93778866380E+01  0.10822910306E+02  0.27885406952E+03  0.30596079644E+03  0.12508931499E+03 0.  0.
          5    1    3    3  502    0 -0.18117149668E+02  0.35102920568E+02  0.26266013483E+03  0.26564688023E+03  0.41800000000E+01 0.  1.
         -5    1    3    3    0  502  0.27495036306E+02 -0.24280010262E+02  0.16193934688E+02  0.40313916213E+02  0.41800000000E+01 0.  1.
        -11    1    1    2    0    0  0.34230274823E+02 -0.15252977935E+01  0.17558784834E+02  0.38501287935E+02  0.00000000000E+00 0.  1.
         11    1    1    2    0    0 -0.43608161461E+02 -0.92976125126E+01  0.11735894507E+03  0.12554377457E+03  0.00000000000E+00 0. -1.
</event>
<event>
 7    1  0.2842702E-009  0.1231013E+03  0.7561462E-02  0.1238067E+00
          1   -1    0    0  501    0  0.00000000000E+00  0.00000000000E+00  0.58132824876E+03  0.58132824876E+03  0.00000000000E+00 0. -1.
         -1   -1    0    0    0  501 -0.00000000000E+00 -0.00000000000E+00 -0.39990882221E+02  0.39990882221E+02  0.00000000000E+00 0.  1.
         25    2    1    2    0    0 -0.48968719260E+02 -0.95045667775E+02  0.30861158980E+03  0.34974287147E+03  0.12508936148E+03 0.  0.
          5    1    3    3  502    0 -0.64642293689E+02 -0.41615815594E+02  0.67954017109E+02  0.10269237110E+03  0.41800000000E+01 0. -1.
         -5    1    3    3    0  502  0.15673574429E+02 -0.53429852181E+02  0.24065757269E+03  0.24705050037E+03  0.41800000000E+01 0. -1.
        -11    1    1    2    0    0  0.54029660779E+02  0.73397971260E+02  0.23208129309E+03  0.24933550295E+03  0.00000000000E+00 0. -1.
         11    1    1    2    0    0 -0.50609415190E+01  0.21647696515E+02  0.64448365541E+00  0.22240756566E+02  0.00000000000E+00 0.  1.
</event>
<event>
 7    1  0.2842702E-009  0.1343989E+03  0.7561462E-02  0.1221071E+00
          2   -1    0    0  501    0  0.00000000000E+00  0.00000000000E+00  0.56193564019E+02  0.56193564019E+02  0.00000000000E+00 0. -1.
         -2   -1    0    0    0  501 -0.00000000000E+00 -0.00000000000E+00 -0.63280258145E+03  0.63280258145E+03  0.00000000000E+00 0.  1.
         25    2    1    2    0    0  0.10031477144E+03 -0.35175997675E+02 -0.50414377955E+03  0.53019744625E+03  0.12509187569E+03 0.  0.
          5    1    3    3  502    0  0.31945619453E+02  0.38144620769E+02 -0.79647494123E+02  0.94003885111E+02  0.41800000000E+01 0. -1.
         -5    1    3    3    0  502  0.68369151985E+02 -0.73320618443E+02 -0.42449628543E+03  0.43619356113E+03  0.41800000000E+01 0. -1.
        -11    1    1    2    0    0 -0.75517822895E+02  0.49114022317E+02 -0.10597976613E+02  0.90705269259E+02  0.00000000000E+00 0. -1.
         11    1    1    2    0    0 -0.24796948542E+02 -0.13938024643E+02 -0.61867261261E+02  0.68093429961E+02  0.00000000000E+00 0.  1.
</event>
<event>
 7    1  0.2842702E-009  0.1163447E+03  0.7561462E-02  0.1249252E+00
          2   -1    0    0  501    0  0.00000000000E+00  0.00000000000E+00  0.16874457551E+03  0.16874457551E+03  0.00000000000E+00 0. -1.
         -2   -1    0    0    0  501 -0.00000000000E+00 -0.00000000000E+00 -0.10805600236E+03  0.10805600236E+03  0.00000000000E+00 0.  1.
         25    2    1    2    0    0 -0.31253694501E-01 -0.74366257005E+02 -0.16411479783E+01  0.14553891333E+03  0.12509412764E+03 0.  0.
          5    1    3    3  502    0 -0.32641647056E+02 -0.99026783979E+02 -0.33497624073E+01  0.10440533691E+03  0.41800000000E+01 0.  1.
         -5    1    3    3    0  502  0.32610393361E+02  0.24660526974E+02  0.17086144290E+01  0.41133576420E+02  0.41800000000E+01 0.  1.
        -11    1    1    2    0    0 -0.22591865198E+02  0.31418247555E+02 -0.13705179670E+02  0.41052778254E+02  0.00000000000E+00 0.  1.
         11    1    1    2    0    0  0.22623118892E+02  0.42948009449E+02  0.76034900806E+02  0.90208886284E+02  0.00000000000E+00 0. -1.
</event>
<event>
 7    1  0.2842702E-009  0.2128764E+03  0.7561462E-02  0.1139308E+00
          2   -1    0    0  501    0  0.00000000000E+00  0.00000000000E+00  0.21663263218E+03  0.21663263218E+03  0.00000000000E+00 0. -1.
         -2   -1    0    0    0  501 -0.00000000000E+00 -0.00000000000E+00 -0.26270856783E+03  0.26270856783E+03  0.00000000000E+00 0.  1.
         25    2    1    2    0    0  0.38002251455E+02 -0.20029147368E+03 -0.82077691197E+02  0.25287153393E+03  0.12508564959E+03 0.  0.
          5    1    3    3  502    0  0.12623032725E+02 -0.37631005633E+02 -0.78600891882E+02  0.88153310458E+02  0.41800000000E+01 0.  1.
         -5    1    3    3    0  502  0.25379218730E+02 -0.16266046805E+03 -0.34767993143E+01  0.16471822347E+03  0.41800000000E+01 0.  1.
        -11    1    1    2    0    0  0.27686306461E+02  0.50329748682E+02  0.24185039763E+02  0.62326008345E+02  0.00000000000E+00 0. -1.
         11    1    1    2    0    0 -0.65688557916E+02  0.14996172500E+03  0.11816715777E+02  0.16414365774E+03  0.00000000000E+00 0.  1.
</event>
<event>
 7    1  0.2842702E-009  0.2429262E+03  0.7561462E-02  0.1117859E+00
          2   -1    0    0  501    0  0.00000000000E+00  0.00000000000E+00  0.12753607534E+04  0.12753607534E+04  0.00000000000E+00 0. -1.
         -2   -1    0    0    0  501 -0.00000000000E+00 -0.00000000000E+00 -0.57330791686E+02  0.57330791686E+02  0.00000000000E+00 0.  1.
         25    2    1    2    0    0 -0.65309763469E+02 -0.22202811050E+03  0.83671507770E+03  0.87709768839E+03  0.12508551744E+03 0.  0.
          5    1    3    3  502    0 -0.60497064519E+02 -0.11960093772E+03  0.65333332896E+03  0.66695291456E+03  0.41800000000E+01 0.  1.
         -5    1    3    3    0  502 -0.48126989501E+01 -0.10242717278E+03  0.18338174874E+03  0.21014477383E+03  0.41800000000E+01 0.  1.
        -11    1    1    2    0    0  0.76528715549E+02  0.96781073692E+02  0.19791719050E+03  0.23322614525E+03  0.00000000000E+00 0.  1.
         11    1    1    2    0    0 -0.11218952080E+02  0.12524703681E+03  0.18339769354E+03  0.22236771149E+03  0.00000000000E+00 0. -1.
</event>
<event>
 7    1  0.2842702E-009  0.1120092E+03  0.7561462E-02  0.1256894E+00
         -1   -1    0    0    0  501 -0.00000000000E+00  0.00000000000E+00  0.10751621374E+03  0.10751621374E+03  0.00000000000E+00 0.  1.
          1   -1    0    0  501    0  0.00000000000E+00 -0.00000000000E+00 -0.15123998214E+03  0.15123998214E+03  0.00000000000E+00 0. -1.
         25    2    1    2    0    0  0.61760452109E+02  0.14733214339E+02 -0.10056474911E+01  0.14028553072E+03  0.12509035835E+03 0.  0.
          5    1    3    3  502    0  0.84429299132E+02 -0.74429102957E+01 -0.36612781856E+02  0.92421164572E+02  0.41800000000E+01 0.  1.
         -5    1    3    3    0  502 -0.22668847023E+02  0.22176124635E+02  0.35607134365E+02  0.47864366149E+02  0.41800000000E+01 0.  1.
        -11    1    1    2    0    0 -0.80252717267E+02  0.46443788180E+01 -0.44025884248E+02  0.91653408923E+02  0.00000000000E+00 0.  1.
         11    1    1    2    0    0  0.18492265158E+02 -0.19377593157E+02  0.13077633448E+01  0.26817256239E+02  0.00000000000E+00 0. -1.
</event>
<event>
 6    1  0.2842702E-009  0.9079816E+02  0.7561462E-02  0.1300930E+00
          2   -1    0    0  501    0  0.00000000000E+00  0.00000000000E+00  0.17306141562E+04  0.17306141562E+04  0.00000000000E+00 0. -1.
         -2   -1    0    0    0  501 -0.00000000000E+00 -0.00000000000E+00 -0.84714801654E+01  0.84714801654E+01  0.00000000000E+00 0.  1.
          5    1    1    2  502    0  0.44352203019E+02 -0.19499141962E+02  0.25055722817E+03  0.25523270057E+03  0.41800000000E+01 0.  1.
         -5    1    1    2    0  502 -0.34142997373E+02  0.35620537048E+02  0.11349930588E+04  0.11360727454E+04  0.41800000000E+01 0.  1.
        -11    1    1    2    0    0 -0.23218633101E+02 -0.45631228738E+02  0.25412188654E+03  0.25922817590E+03  0.00000000000E+00 0. -1.
         11    1    1    2    0    0  0.13009427455E+02  0.29509833653E+02  0.82470502506E+02  0.88552014480E+02  0.00000000000E+00 0.  1.
</event>
<event>
 7    1  0.2842702E-009  0.1377983E+03  0.7561462E-02  0.1216323E+00
         -1   -1    0    0    0  501 -0.00000000000E+00  0.00000000000E+00  0.15734616087E+03  0.15734616087E+03  0.00000000000E+00 0.  1.
          1   -1    0    0  501    0  0.00000000000E+00 -0.00000000000E+00 -0.19245840255E+03  0.19245840255E+03  0.00000000000E+00 0. -1.
         25    2    1    2    0    0 -0.70619666281E+02 -0.11167552727E+03  0.14199269544E+02  0.18249724495E+03  0.12508023226E+03 0.  0.
          5    1    3    3  502    0 -0.36485176707E+02 -0.53371119309E+02  0.69556058156E+02  0.95053469804E+02  0.41800000000E+01 0.  1.
         -5    1    3    3    0  502 -0.34134489574E+02 -0.58304407957E+02 -0.55356788612E+02  0.87443775142E+02  0.41800000000E+01 0.  1.
        -11    1    1    2    0    0 -0.73846999930E+01  0.27000848877E+02 -0.43883481994E+02  0.52051317236E+02  0.00000000000E+00 0. -1.
         11    1    1    2    0    0  0.78004366274E+02  0.84674678389E+02 -0.54280292301E+01  0.11525600123E+03  0.00000000000E+00 0.  1.
</event>
<event>
 7    1  0.2842702E-009  0.1444207E+03  0.7561462E-02  0.1207501E+00
          1   -1    0    0  501    0  0.00000000000E+00  0.00000000000E+00  0.85743962296E+02  0.85743962296E+02  0.00000000000E+00 0. -1.
         -1   -1    0    0    0  501 -0.00000000000E+00 -0.00000000000E+00 -0.28547720222E+03  0.28547720222E+03  0.00000000000E+00 0.  1.
         25    2    1    2    0    0 -0.27689577280E+02  0.91867824233E+02 -0.37811587477E+02  0.16211227844E+03  0.12507703568E+03 0.  0.
          5    1    3    3  502    0  0.48089821907E+02  0.51598382485E+02 -0.26458944467E+02  0.75449136433E+02  0.41800000000E+01 0. -1.
         -5    1    3    3    0  502 -0.75779399187E+02  0.40269441748E+02 -0.11352643010E+02  0.86663142011E+02  0.41800000000E+01 0. -1.
        -11    1    1    2    0    0 -0.33588163973E+02 -0.37560884762E+02 -0.64488152302E+02  0.81839517414E+02  0.00000000000E+00 0.  1.
         11    1    1    2    0    0  0.61277741253E+02 -0.54306939471E+02 -0.97433500142E+02  0.12726936865E+03  0.00000000000E+00 0. -1.
</event>
<event>
 7    1  0.2842702E-009  0.1108262E+03  0.7561462E-02  0.1259047E+00
          1   -1    0    0  501    0  0.00000000000E+00  0.00000000000E+00  0.10896260769E+04  0.10896260769E+04  0.00000000000E+00 0. -1.
         -1   -1    0    0    0  501 -0.00000000000E+00 -0.00000000000E+00 -0.20917936355E+02  0.20917936355E+02  0.00000000000E+00 0.  1.
         25    2    1    2    0    0  0.13339600681E+02  0.82594931697E+02  0.83314305489E+03  0.84663356945E+03  0.12514464962E+03 0.  0.
          5    1    3    3  502    0  0.80099753861E+01 -0.16842749552E+02  0.20992038872E+02  0.28389716697E+02  0.41800000000E+01 0. -1.
         -5    1    3    3    0  502  0.53296252945E+01  0.99437681248E+02  0.81215101601E+03  0.81824385275E+03  0.41800000000E+01 0. -1.
        -11    1    1    2    0    0 -0.36778903094E+02 -0.59607556180E+02  0.86643041676E+02  0.11141258967E+03  0.00000000000E+00 0.  1.
         11    1    1    2    0    0  0.23439302414E+02 -0.22987375517E+02  0.14892204403E+03  0.15249785417E+03  0.00000000000E+00 0. -1.
</event>
<event>
 7    1  0.2842702E-009  0.1096716E+03  0.7561462E-02  0.1261179E+00
          3   -1    0    0  501    0  0.00000000000E+00  0.00000000000E+00  0.13253107820E+03  0.13253107820E+03  0.00000000000E+00 0. -1.
         -3   -1    0    0    0  501 -0.00000000000E+00 -0.00000000000E+00 -0.11330672727E+03  0.11330672727E+03  0.00000000000E+00 0.  1.
         25    2    1    2    0    0 -0.41469570958E+02  0.20625372213E+02 -0.21188876097E+02  0.13505706967E+03  0.12508522017E+03 0.  0.
          5    1    3    3  502    0 -0.49643919147E+02  0.62292380974E+02  0.12443139501E+02  0.80728951166E+02  0.41800000000E+01 0.  1.
         -5    1    3    3    0  502  0.81743481887E+01 -0.41667008761E+02 -0.33632015598E+02  0.54328118508E+02  0.41800000000E+01 0.  1.
        -11    1    1    2    0    0  0.44443374497E+02  0.25132998592E+02  0.40104208984E+02  0.64924792900E+02  0.00000000000E+00 0.  1.
         11    1    1    2    0    0 -0.29738035385E+01 -0.45758370806E+02  0.30901804230E+00  0.45855942891E+02  0.00000000000E+00 0. -1.
</event>
<event>
 7    1  0.2842702E-009  0.1617295E+03  0.7561462E-02  0.1186758E+00
          2   -1    0    0  501    0  0.00000000000E+00  0.00000000000E+00  0.26868617338E+03  0.26868617338E+03  0.00000000000E+00 0. -1.
         -2   -1    0    0    0  501 -0.00000000000E+00 -0.00000000000E+00 -0.11801134852E+03  0.11801134852E+03  0.00000000000E+00 0.  1.
         25    2    1    2    0    0  0.81919203019E+02  0.97791243198E+02  0.18732547974E+02  0.17963956190E+03  0.12508229602E+03 0.  0.
          5    1    3    3  502    0  0.11054259253E+03  0.61871265414E+02  0.33699836051E+02  0.13115208575E+03  0.41800000000E+01 0. -1.
         -5    1    3    3    0  502 -0.28623389513E+02  0.35919977784E+02 -0.14967288077E+02  0.48487476152E+02  0.41800000000E+01 0. -1.
        -11    1    1    2    0    0 -0.54518526628E+02 -0.60595364348E+01  0.83126238802E+02  0.99593972231E+02  0.00000000000E+00 0. -1.
         11    1    1    2    0    0 -0.27400676391E+02 -0.91731706763E+02  0.48816038082E+02  0.10746398777E+03  0.00000000000E+00 0.  1.
</event>
<event>
 7    1  0.2842702E-009  0.9130050E+02  0.7561462E-02  0.1299733E+00
          1   -1    0    0  501    0  0.00000000000E+00  0.00000000000E+00  0.99170546073E+02  0.99170546073E+02  0.00000000000E+00 0. -1.
         -1   -1    0    0    0  501 -0.00000000000E+00 -0.00000000000E+00 -0.15796915662E+03  0.15796915662E+03  0.00000000000E+00 0.  1.
         25    2    1    2    0    0 -0.12495063025E+02  0.59864453039E+02 -0.32290049201E+02  0.14289880783E+03  0.12505016059E+03 0.  0.
          5    1    3    3  502    0 -0.17878051242E+02  0.83530164289E+02 -0.61017735981E+02  0.10505974285E+03  0.41800000000E+01 0. -1.
         -5    1    3    3    0  502  0.53829882179E+01 -0.23665711251E+02  0.28727686781E+02  0.37839064985E+02  0.41800000000E+01 0. -1.
        -11    1    1    2    0    0 -0.14131797041E+02 -0.22442282464E+02  0.30900312021E+02  0.40720916158E+02  0.00000000000E+00 0. -1.
         11    1    1    2    0    0  0.26626860066E+02 -0.37422170575E+02 -0.57408873371E+02  0.73519978709E+02  0.00000000000E+00 0.  1.
</event>
<event>
 7    1  0.2842702E-009  0.9850903E+02  0.7561462E-02  0.1283463E+00
          1   -1    0    0  501    0  0.00000000000E+00  0.00000000000E+00  0.47679460537E+02  0.47679460537E+02  0.00000000000E+00 0. -1.
         -1   -1    0    0    0  501 -0.00000000000E+00 -0.00000000000E+00 -0.58515610941E+03  0.58515610941E+03  0.00000000000E+00 0.  1.
         25    2    1    2    0    0  0.33559226349E+02  0.23879565281E+01 -0.54877564744E+02  0.14068071712E+03  0.12509033955E+03 0.  0.
          5    1    3    3  502    0 -0.29547421916E+02 -0.17017887210E+02 -0.65227498674E+02  0.73720808530E+02  0.41800000000E+01 0.  1.
         -5    1    3    3    0  502  0.63106648266E+02  0.19405843739E+02  0.10349933931E+02  0.66959908594E+02  0.41800000000E+01 0.  1.
        -11    1    1    2    0    0  0.31451573140E+02 -0.16509686240E+01 -0.15603630978E+03  0.15918309308E+03  0.00000000000E+00 0.  1.
         11    1    1    2    0    0 -0.65010799490E+02 -0.73698790416E+00 -0.32656277435E+03  0.33297175975E+03  0.00000000000E+00 0. -1.
</event>
<event>
 7    1  0.2842702E-009  0.1210101E+03  0.7561462E-02  0.1241440E+00
         -2   -1    0    0    0  501 -0.00000000000E+00  0.00000000000E+00  0.55642306917E+02  0.55642306917E+02  0.00000000000E+00 0.  1.
          2   -1    0    0  501    0  0.00000000000E+00 -0.00000000000E+00 -0.39215753575E+03  0.39215753575E+03  0.00000000000E+00 0. -1.
         25    2    1    2    0    0  0.76700479213E+02 -0.51562953797E+02 -0.24838697521E+03  0.29306355548E+03  0.12509379034E+03 0.  0.
          5    1    3    3  502    0  0.12292992364E+02 -0.66252518194E+02 -0.19995173153E+03  0.21104189435E+03  0.41800000000E+01 0.  1.
         -5    1    3    3    0  502  0.64407486850E+02  0.14689564397E+02 -0.48435243682E+02  0.82021661133E+02  0.41800000000E+01 0.  1.
        -11    1    1    2    0    0 -0.17355032141E+02  0.45454328083E+02 -0.41450175637E+00  0.48656601750E+02  0.00000000000E+00 0.  1.
         11    1    1    2    0    0 -0.59345447073E+02  0.61086257134E+01 -0.87713751869E+02  0.10607968544E+03  0.00000000000E+00 0. -1.
</event>
<event>
 7    1  0.2842702E-009  0.1205773E+03  0.7561462E-02  0.1242148E+00
         -4   -1    0    0    0  501 -0.00000000000E+00  0.00000000000E+00  0.36686878214E+03  0.36686878214E+03  0.00000000000E+00 0.  1.
          4   -1    0    0  501    0  0.00000000000E+00 -0.00000000000E+00 -0.49188868538E+02  0.49188868538E+02  0.00000000000E+00 0. -1.
         25    2    1    2    0    0  0.17121320044E+02 -0.79893595561E+02  0.14875279863E+03  0.21083203824E+03  0.12508647824E+03 0.  0.
          5    1    3    3  502    0  0.12247317040E+02  0.20411358719E+02  0.92595482803E+02  0.95697524393E+02  0.41800000000E+01 0. -1.
         -5    1    3    3    0  502  0.48740030034E+01 -0.10030495428E+03  0.56157315825E+02  0.11513451385E+03  0.41800000000E+01 0. -1.
        -11    1    1    2    0    0  0.29153753805E+02  0.58778653308E+02  0.91824616460E+02  0.11285668626E+03  0.00000000000E+00 0. -1.
         11    1    1    2    0    0 -0.46275073848E+02  0.21114942252E+02  0.77102498517E+02  0.92368926180E+02  0.00000000000E+00 0.  1.
</event>
<event>
 7    1  0.2842702E-009  0.1621530E+03  0.7561462E-02  0.1186287E+00
          2   -1    0    0  501    0  0.00000000000E+00  0.00000000000E+00  0.11403104928E+04  0.11403104928E+04  0.00000000000E+00 0. -1.
         -2   -1    0    0    0  501 -0.00000000000E+00 -0.00000000000E+00 -0.23181998195E+02  0.23181998195E+02  0.00000000000E+00 0.  1.
         25    2    1    2    0    0  0.67013345326E+02  0.11100216245E+03  0.65097235703E+03  0.67544382538E+03  0.12508830126E+03 0.  0.
          5    1    3    3  502    0  0.47920553847E+02 -0.16530837072E+02  0.16757446362E+03  0.17512373144E+03  0.41800000000E+01 0. -1.
         -5    1    3    3    0  502  0.19092791479E+02  0.12753299952E+03  0.48339789341E+03  0.50032009394E+03  0.41800000000E+01 0. -1.
        -11    1    1    2    0    0  0.17446410871E+01 -0.56906331139E+02  0.19328452513E+03  0.20149511644E+03  0.00000000000E+00 0.  1.
         11    1    1    2    0    0 -0.68757986413E+02 -0.54095831310E+02  0.27287161244E+03  0.28655354916E+03  0.00000000000E+00 0. -1.
</event>
<event>
 7    1  0.2842702E-009  0.2477029E+03  0.7561462E-02  0.1114765E+00
          1   -1    0    0  501    0  0.00000000000E+00  0.00000000000E+00  0.66366978689E+03  0.66366978689E+03  0.00000000000E+00 0. -1.
         -1   -1    0    0    0  501 -0.00000000000E+00 -0.00000000000E+00 -0.10335523681E+03  0.10335523681E+03  0.00000000000E+00 0.  1.
         25    2    1    2    0    0 -0.18006391188E+03 -0.15049822208E+03  0.33725785671E+03  0.42948580935E+03  0.12506986570E+03 0.  0.
          5    1    3    3  502    0 -0.10031179091E+03 -0.43122610401E+02  0.67704630482E+02  0.12854339467E+03  0.41800000000E+01 0. -1.
         -5    1    3    3    0  502 -0.79752120968E+02 -0.10737561168E+03  0.26955322623E+03  0.30094241468E+03  0.41800000000E+01 0. -1.
        -11    1    1    2    0    0  0.12251879584E+03  0.42022642390E+02  0.99389670975E+02  0.16326378810E+03  0.00000000000E+00 0.  1.
         11    1    1    2    0    0  0.57545116041E+02  0.10847557969E+03  0.12366702239E+03  0.17427542625E+03  0.00000000000E+00 0. -1.
</event>
<event>
 7    1  0.2842702E-009  0.4411249E+03  0.7561462E-02  0.1030402E+00
         -1   -1    0    0    0  501 -0.00000000000E+00  0.00000000000E+00  0.77070412900E+03  0.77070412900E+03  0.00000000000E+00 0.  1.
          1   -1    0    0  501    0  0.00000000000E+00 -0.00000000000E+00 -0.26202126558E+03  0.26202126558E+03  0.00000000000E+00 0. -1.
         25    2    1    2    0    0  0.35967663087E+03 -0.24280333432E+03  0.29800560871E+03  0.54108765764E+03  0.12509105676E+03 0.  0.
          5    1    3    3  502    0  0.31606845021E+03 -0.15996563779E+03  0.26231980223E+03  0.44081449787E+03  0.41800000000E+01 0.  1.
         -5    1    3    3    0  502  0.43608180662E+02 -0.82837696527E+02  0.35685806473E+02  0.10027315977E+03  0.41800000000E+01 0.  1.
        -11    1    1    2    0    0 -0.18532390967E+03  0.13505609665E+03  0.59360360532E+02  0.23687286282E+03  0.00000000000E+00 0.  1.
         11    1    1    2    0    0 -0.17435272120E+03  0.10774723767E+03  0.15131689418E+03  0.25476487411E+03  0.00000000000E+00 0. -1.
</event>
<event>
 7    1  0.2842702E-009  0.2041097E+03  0.7561462E-02  0.1146317E+00
          1   -1    0    0  501    0  0.00000000000E+00  0.00000000000E+00  0.25176702391E+03  0.25176702391E+03  0.00000000000E+00 0. -1.
         -1   -1    0    0    0  501 -0.00000000000E+00 -0.00000000000E+00 -0.19240988885E+03  0.19240988885E+03  0.00000000000E+00 0.  1.
         25    2    1    2    0    0 -0.18068282988E+03 -0.39716473422E+02 -0.20304866436E+02  0.22422672758E+03  0.12506660019E+03 0.  0.
          5    1    3    3  502    0 -0.17112878142E+03 -0.67632387999E+02 -0.40200707388E+02  0.18839524678E+03  0.41800000000E+01 0. -1.
         -5    1    3    3    0  502 -0.95540484652E+01  0.27915914577E+02  0.19895840952E+02  0.35831480795E+02  0.41800000000E+01 0. -1.
        -11    1    1    2    0    0  0.99039390271E+02 -0.87372126016E+01  0.75639766511E+02  0.12492603406E+03  0.00000000000E+00 0. -1.
         11    1    1    2    0    0  0.81643439611E+02  0.48453686024E+02  0.40222349878E+01  0.95024151115E+02  0.00000000000E+00 0.  1.
</event>
<event>
 7    1  0.2842702E-009  0.1399800E+03  0.7561462E-02  0.1213356E+00
          3   -1    0    0  501    0  0.00000000000E+00  0.00000000000E+00  0.11577235092E+03  0.11577235092E+03  0.00000000000E+00 0. -1.
         -3   -1    0    0    0  501 -0.00000000000E+00 -0.00000000000E+00 -0.23979596084E+03  0.23979596084E+03  0.00000000000E+00 0.  1.
         25    2    1    2    0    0  0.65783637575E+02  0.10314613520E+03 -0.99096058300E+02  0.20108554410E+03  0.12509498430E+03 0.  0.
          5    1    3    3  502    0  0.19155680654E+02  0.67232631109E+01  0.27992654566E+02  0.34831070581E+02  0.41800000000E+01 0.  1.
         -5    1    3    3    0  502  0.46627956921E+02  0.96422872089E+02 -0.12708871287E+03  0.16625447352E+03  0.41800000000E+01 0.  1.
        -11    1    1    2    0    0 -0.85695450815E+02 -0.60256295534E+02 -0.22408031585E+02  0.10712913386E+03  0.00000000000E+00 0.  1.
         11    1    1    2    0    0  0.19911813240E+02 -0.42889839666E+02 -0.25195200316E+01  0.47353633802E+02  0.00000000000E+00 0. -1.
</event>
<event>
 7    1  0.2842702E-009  0.1477095E+03  0.7561462E-02  0.1203316E+00
          1   -1    0    0  501    0  0.00000000000E+00  0.00000000000E+00  0.79199237190E+02  0.79199237190E+02  0.00000000000E+00 0. -1.
         -1   -1    0    0    0  501 -0.00000000000E+00 -0.00000000000E+00 -0.37820486715E+03  0.37820486715E+03  0.00000000000E+00 0.  1.
         25    2    1    2    0    0  0.10542950349E+03  0.44306409432E+02 -0.64709210484E+02  0.18141779273E+03  0.12508675179E+03 0.  0.
          5    1    3    3  502    0  0.67241024458E+02  0.74936287170E+02 -0.81388354119E+02  0.12953122825E+03  0.41800000000E+01 0. -1.
         -5    1    3    3    0  502  0.38188479034E+02 -0.30629877738E+02  0.16679143636E+02  0.51886564481E+02  0.41800000000E+01 0. -1.
        -11    1    1    2    0    0  0.35368085507E+01 -0.36067597474E+02 -0.50507900332E+02  0.62164528456E+02  0.00000000000E+00 0. -1.
         11    1    1    2    0    0 -0.10896631204E+03 -0.82388119584E+01 -0.18378851914E+03  0.21382178315E+03  0.00000000000E+00 0.  1.
</event>
<event>
 7    1  0.2842702E-009  0.8998790E+02  0.7561462E-02  0.1302881E+00
         -4   -1    0    0    0  501 -0.00000000000E+00  0.00000000000E+00  0.29511062777E+03  0.29511062777E+03  0.00000000000E+00 0.  1.
          4   -1    0    0  501    0  0.00000000000E+00 -0.00000000000E+00 -0.43935911188E+02  0.43935911188E+02  0.00000000000E+00 0. -1.
         25    2    1    2    0    0  0.31413643433E+02 -0.21238504499E+02  0.13004101617E+03  0.18438096221E+03  0.12509109590E+03 0.  0.
          5    1    3    3  502    0  0.12758164010E+02 -0.57779631910E+02  0.13027036871E+03  0.14314013405E+03  0.41800000000E+01 0.  1.
         -5    1    3    3    0  502  0.18655479423E+02  0.36541127411E+02 -0.22935253655E+00  0.41240828163E+02  0.41800000000E+01 0.  1.
        -11    1    1    2    0    0 -0.45353673893E+02 -0.88925790175E+01  0.24128611050E+02  0.52136585699E+02  0.00000000000E+00 0. -1.
         11    1    1    2    0    0  0.13940030460E+02  0.30131083516E+02  0.97005089365E+02  0.10252899105E+03  0.00000000000E+00 0.  1.
</event>
<event>
 7    1  0.2842702E-009  0.9254253E+02  0.7561462E-02  0.1296809E+00
          1   -1    0    0  501    0  0.00000000000E+00  0.00000000000E+00  0.36608152321E+02  0.36608152321E+02  0.00000000000E+00 0. -1.
         -1   -1    0    0    0  501 -0.00000000000E+00 -0.00000000000E+00 -0.42112276136E+03  0.42112276136E+03  0.00000000000E+00 0.  1.
         25    2    1    2    0    0  0.15276290404E+02  0.44304034614E+02 -0.28481231251E+03  0.31458226928E+03  0.12509091995E+03 0.  0.
          5    1    3    3  502    0 -0.28232997280E+02  0.14398475974E+02 -0.24807659706E+03  0.25012774467E+03  0.41800000000E+01 0. -1.
         -5    1    3    3    0  502  0.43509287684E+02  0.29905558640E+02 -0.36735715456E+02  0.64454524608E+02  0.41800000000E+01 0. -1.
        -11    1    1    2    0    0 -0.23516156779E+02  0.22678270487E+02 -0.48317490787E+02  0.58325753298E+02  0.00000000000E+00 0.  1.
         11    1    1    2    0    0  0.82398663741E+01 -0.66982305101E+02 -0.51384805736E+02  0.84822891103E+02  0.00000000000E+00 0. -1.
</event>
<event>
 7    1  0.2842702E-009  0.9153613E+02  0.7561462E-02  0.1299174E+00
         -1   -1    0    0    0  501 -0.00000000000E+00  0.00000000000E+00  0.57470595049E+02  0.57470595049E+02  0.00000000000E+00 0.  1.
          1   -1    0    0  501    0  0.00000000000E+00 -0.00000000000E+00 -0.29500245882E+03  0.29500245882E+03  0.00000000000E+00 0. -1.
         25    2    1    2    0    0 -0.28317941152E+02  0.19007685413E+02 -0.47246230561E+02  0.13799395149E+03  0.12508767505E+03 0.  0.
          5    1    3    3  502    0  0.22522473559E+02  0.23608661045E+02 -0.73436311634E+02  0.80467353368E+02  0.41800000000E+01 0.  1.
         -5    1    3    3    0  502 -0.50840414711E+02 -0.46009756322E+01  0.26190081073E+02  0.57526598121E+02  0.41800000000E+01 0.  1.
        -11    1    1    2    0    0  0.52537747828E+01 -0.55521629846E+02 -0.10725124574E+03  0.12088458646E+03  0.00000000000E+00 0.  1.
         11    1    1    2    0    0  0.23064166369E+02  0.36513944433E+02 -0.83034387469E+02  0.93594515922E+02  0.00000000000E+00 0. -1.
</event>
<event>
 7    1  0.2842702E-009  0.8912184E+02  0.7561462E-02  0.1304992E+00
          1   -1    0    0  501    0  0.00000000000E+00  0.00000000000E+00  0.78014543479E+03  0.78014543479E+03  0.00000000000E+00 0. -1.
         -1   -1    0    0    0  501 -0.00000000000E+00 -0.00000000000E+00 -0.13912986147E+02  0.13912986147E+02  0.00000000000E+00 0.  1.
         25    2    1    2    0    0  0.11893223793E+02  0.19239470567E+02  0.52797975520E+03  0.54306744832E+03  0.12509206816E+03 0.  0.
          5    1    3    3  502    0  0.55659087711E+02 -0.20871195787E+02  0.35904472473E+03  0.36395621662E+03  0.41800000000E+01 0. -1.
         -5    1    3    3    0  502 -0.43765863917E+02  0.40110666354E+02  0.16893503047E+03  0.17911123170E+03  0.41800000000E+01 0. -1.
        -11    1    1    2    0    0  0.21858472010E+02 -0.45315704246E+01  0.21025732262E+02  0.30666094408E+02  0.00000000000E+00 0.  1.
         11    1    1    2    0    0 -0.33751695803E+02 -0.14707900143E+02  0.21722696118E+03  0.22032487821E+03  0.00000000000E+00 0. -1.
</event>
<event>
 7    1  0.2842702E-009  0.9983978E+02  0.7561462E-02  0.1280633E+00
          2   -1    0    0  501    0  0.00000000000E+00  0.00000000000E+00  0.13663853171E+03  0.13663853171E+03  0.00000000000E+00 0. -1.
         -2   -1    0    0    0  501 -0.00000000000E+00 -0.00000000000E+00 -0.88505287419E+02  0.88505287419E+02  0.00000000000E+00 0.  1.
         25    2    1    2    0    0  0.24853325580E+02  0.19062503241E+02  0.35667648395E+02  0.13378832657E+03  0.12508424506E+03 0.  0.
          5    1    3    3  502    0 -0.80141075366E+00  0.66194330749E+02 -0.47164481576E+01  0.66498488447E+02  0.41800000000E+01 0.  1.
         -5    1    3    3    0  502  0.25654736333E+02 -0.47131827507E+02  0.40384096553E+02  0.67289838125E+02  0.41800000000E+01 0.  1.
        -11    1    1    2    0    0  0.21010397571E+02  0.11939116053E+02  0.24813393271E+02  0.34636451663E+02  0.00000000000E+00 0. -1.
         11    1    1    2    0    0 -0.45863723150E+02 -0.31001619295E+02 -0.12347797374E+02  0.56719040895E+02  0.00000000000E+00 0.  1.
</event>
<event>
 7    1  0.2842702E-009  0.1478124E+03  0.7561462E-02  0.1203187E+00
          1   -1    0    0  501    0  0.00000000000E+00  0.00000000000E+00  0.36197191406E+03  0.36197191406E+03  0.00000000000E+00 0. -1.
         -1   -1    0    0    0  501 -0.00000000000E+00 -0.00000000000E+00 -0.72961876927E+02  0.72961876927E+02  0.00000000000E+00 0.  1.
         25    2    1    2    0    0 -0.92458105732E+02  0.76522454704E+02  0.14192735861E+03  0.22404328195E+03  0.12509128536E+03 0.  0.
          5    1    3    3  502    0 -0.70178094432E+02  0.98214703179E+02  0.57101394768E+02  0.13360065323E+03  0.41800000000E+01 0. -1.
         -5    1    3    3    0  502 -0.22280011299E+02 -0.21692248476E+02  0.84825963844E+02  0.90442628718E+02  0.41800000000E+01 0. -1.
        -11    1    1    2    0    0  0.48468129591E+02  0.70937765221E+01  0.84147730403E+02  0.97366943997E+02  0.00000000000E+00 0. -1.
         11    1    1    2    0    0  0.43989976141E+02 -0.83616231226E+02  0.62934948119E+02  0.11352356504E+03  0.00000000000E+00 0.  1.
</event>
<event>
 7    1  0.2842702E-009  0.1160181E+03  0.7561462E-02  0.1249814E+00
          2   -1    0    0  501    0  0.00000000000E+00  0.00000000000E+00  0.10601527125E+03  0.10601527125E+03  0.00000000000E+00 0. -1.
         -2   -1    0    0    0  501 -0.00000000000E+00 -0.00000000000E+00 -0.19628165908E+03  0.19628165908E+03  0.00000000000E+00 0.  1.
         25    2    1    2    0    0  0.74370463476E+02  0.10623656799E+02  0.10322520072E+02  0.14628421856E+03  0.12509472514E+03 0.  0.
          5    1    3    3  502    0  0.85035989433E+02  0.48459757442E+02  0.29550526298E+02  0.10232386620E+03  0.41800000000E+01 0. -1.
         -5    1    3    3    0  502 -0.10665525957E+02 -0.37836100643E+02 -0.19228006226E+02  0.43960352356E+02  0.41800000000E+01 0. -1.
        -11    1    1    2    0    0  0.86725795648E+01  0.50428446150E+01  0.11741387190E+02  0.15443577670E+02  0.00000000000E+00 0. -1.
         11    1    1    2    0    0 -0.83043043041E+02 -0.15666501414E+02 -0.11233029509E+03  0.14056913409E+03  0.00000000000E+00 0.  1.
</event>
<event>
 7    1  0.2842702E-009  0.8496852E+02  0.7561462E-02  0.1315515E+00
          1   -1    0    0  501    0  0.00000000000E+00  0.00000000000E+00  0.26289638861E+03  0.26289638861E+03  0.00000000000E+00 0. -1.
         -1   -1    0    0    0  501 -0.00000000000E+00 -0.00000000000E+00 -0.54384248364E+02  0.54384248364E+02  0.00000000000E+00 0.  1.
         25    2    1    2    0    0  0.23524658589E+02 -0.26680332681E+02  0.15996221036E+03  0.20615137303E+03  0.12508089440E+03 0.  0.
          5    1    3    3  502    0  0.42435377111E+02  0.22901779375E+02  0.14191958605E+03  0.14994630383E+03  0.41800000000E+01 0.  1.
         -5    1    3    3    0  502 -0.18910718523E+02 -0.49582112056E+02  0.18042624313E+02  0.56205069194E+02  0.41800000000E+01 0.  1.
        -11    1    1    2    0    0  0.30169583570E+01 -0.16960523767E+02  0.56830638640E+02  0.59384197329E+02  0.00000000000E+00 0. -1.
         11    1    1    2    0    0 -0.26541616946E+02  0.43640856448E+02 -0.82807087564E+01  0.51745066616E+02  0.00000000000E+00 0.  1.
</event>
<event>
 6    1  0.2842702E-009  0.8255444E+02  0.7561462E-02  0.1321955E+00
          3   -1    0    0  501    0  0.00000000000E+00  0.00000000000E+00  0.14912159444E+03  0.14912159444E+03  0.00000000000E+00 0. -1.
         -3   -1    0    0    0  501 -0.00000000000E+00 -0.00000000000E+00 -0.13621037254E+03  0.13621037254E+03  0.00000000000E+00 0.  1.
          5    1    1    2  502    0  0.71978363821E+01  0.55522683036E+01 -0.29419363229E+02  0.31074231522E+02  0.41800000000E+01 0. -1.
         -5    1    1    2    0  502 -0.23688602873E+02 -0.49767696720E+02  0.11544067042E+03  0.12799216511E+03  0.41800000000E+01 0. -1.
        -11    1    1    2    0    0  0.44764835005E+02 -0.29223749514E+01 -0.48422478192E+02  0.66008841246E+02  0.00000000000E+00 0.  1.
         11    1    1    2    0    0 -0.28274068514E+02  0.47137803368E+02 -0.24687607103E+02  0.60256729094E+02  0.00000000000E+00 0. -1.
</event>
<event>
 7    1  0.2842702E-009  0.9369646E+02  0.7561462E-02  0.1294139E+00
         -3   -1    0    0    0  501 -0.00000000000E+00  0.00000000000E+00  0.47921436494E+02  0.47921436494E+02  0.00000000000E+00 0.  1.
          3   -1    0    0  501    0  0.00000000000E+00 -0.00000000000E+00 -0.32568284321E+03  0.32568284321E+03  0.00000000000E+00 0. -1.
         25    2    1    2    0    0  0.29252377269E+02 -0.38992525733E+02 -0.96578540329E+02  0.16538136493E+03  0.12508981883E+03 0.  0.
          5    1    3    3  502    0  0.59774411859E+02 -0.28036806225E+02 -0.29646631518E+01  0.66221631239E+02  0.41800000000E+01 0.  1.
         -5    1    3    3    0  502 -0.30522034590E+02 -0.10955719509E+02 -0.93613877177E+02  0.99159733691E+02  0.41800000000E+01 0.  1.
        -11    1    1    2    0    0 -0.49906172584E+02  0.44822653216E+02 -0.78205215934E+02  0.10303277198E+03  0.00000000000E+00 0.  1.
         11    1    1    2    0    0  0.20653795316E+02 -0.58301274831E+01 -0.10297765046E+03  0.10519014279E+03  0.00000000000E+00 0. -1.
</event>
<event>
 7    1  0.2842702E-009  0.1451097E+03  0.7561462E-02  0.1206614E+00
         -2   -1    0    0    0  501 -0.00000000000E+00  0.00000000000E+00  0.76396847742E+03  0.76396847742E+03  0.00000000000E+00 0.  1.
          2   -1    0    0  501    0  0.00000000000E+00 -0.00000000000E+00 -0.29328246653E+02  0.29328246653E+02  0.00000000000E+00 0. -1.
         25    2    1    2    0    0 -0.88692610617E+02 -0.39338994790E+02  0.48827536745E+03  0.51329727250E+03  0.12508924735E+03 0.  0.
          5    1    3    3  502    0  0.29073420891E+02 -0.24779863865E+02  0.14770692816E+03  0.15262409535E+03  0.41800000000E+01 0. -1.
         -5    1    3    3    0  502 -0.11776603151E+03 -0.14559130925E+02  0.34056843930E+03  0.36067317715E+03  0.41800000000E+01 0. -1.
        -11    1    1    2    0    0  0.26976079374E+02  0.61757496685E+02  0.12396474581E+03  0.14109909801E+03  0.00000000000E+00 0. -1.
         11    1    1    2    0    0  0.61716531244E+02 -0.22418501895E+02  0.12240011751E+03  0.13890035357E+03  0.00000000000E+00 0.  1.
</event>
<event>
 7    1  0.2842702E-009  0.1197987E+03  0.7561462E-02  0.1243430E+00
          3   -1    0    0  501    0  0.00000000000E+00  0.00000000000E+00  0.15005429790E+03  0.15005429790E+03  0.00000000000E+00 0. -1.
         -3   -1    0    0    0  501 -0.00000000000E+00 -0.00000000000E+00 -0.17711616894E+03  0.17711616894E+03  0.00000000000E+00 0.  1.
         25    2    1    2    0    0  0.78484115660E+02  0.56011848636E+02  0.60082226791E+02  0.16898048443E+03  0.12508975395E+03 0.  0.
          5    1    3    3  502    0  0.89922942048E+02  0.67276731108E+02  0.83694275078E+02  0.14012315346E+03  0.41800000000E+01 0. -1.
         -5    1    3    3    0  502 -0.11438826389E+02 -0.11264882471E+02 -0.23612048287E+02  0.28857330967E+02  0.41800000000E+01 0. -1.
        -11    1    1    2    0    0 -0.57376169426E+02 -0.76831704752E+01 -0.18609104497E+01  0.57918208831E+02  0.00000000000E+00 0. -1.
         11    1    1    2    0    0 -0.21107946234E+02 -0.48328678161E+02 -0.85283187379E+02  0.10027177358E+03  0.00000000000E+00 0.  1.
</event>
<event>
 7    1  0.2842702E-009  0.8433612E+02  0.7561462E-02  0.1317178E+00
         -2   -1    0    0    0  501 -0.00000000000E+00  0.00000000000E+00  0.54506745981E+02  0.54506745981E+02  0.00000000000E+00 0.  1.
          2   -1    0    0  501    0  0.00000000000E+00 -0.00000000000E+00 -0.28760481350E+03  0.28760481350E+03  0.00000000000E+00 0. -1.
         25    2    1    2    0    0 -0.55114501076E+02  0.18999055556E+02 -0.15980186116E+03  0.21114579420E+03  0.12508932503E+03 0.  0.
          5    1    3    3  502    0 -0.25539444058E+02 -0.14281846403E+02 -0.16361603291E+03  0.16626458723E+03  0.41800000000E+01 0.  1.
         -5    1    3    3    0  502 -0.29575057019E+02  0.33280901958E+02  0.38141717543E+01  0.44881206969E+02  0.41800000000E+01 0.  1.
        -11    1    1    2    0    0  0.29297005696E+02 -0.47582110329E+02 -0.98445354389E+01  0.56738757866E+02  0.00000000000E+00 0.  1.
         11    1    1    2    0    0  0.25817495380E+02  0.28583054773E+02 -0.63451670926E+02  0.74227007425E+02  0.00000000000E+00 0. -1.
</event>
<event>
 7    1  0.2842702E-009  0.1231241E+03  0.7561462E-02  0.1238030E+00
         -2   -1    0    0    0  501 -0.00000000000E+00  0.00000000000E+00  0.46836650380E+02  0.46836650380E+02  0.00000000000E+00 0.  1.
          2   -1    0    0  501    0  0.00000000000E+00 -0.00000000000E+00 -0.40081360300E+03  0.40081360300E+03  0.00000000000E+00 0. -1.
         25    2    1    2    0    0 -0.23685226232E+02  0.67281836280E+02 -0.25708842402E+03  0.29466869809E+03  0.12508936180E+03 0.  0.
          5    1    3    3  502    0  0.49282702750E+02  0.46294935548E+02 -0.12909892789E+03  0.14579441495E+03  0.41800000000E+01 0.  1.
         -5    1    3    3    0  502 -0.72967928983E+02  0.20986900732E+02 -0.12798949613E+03  0.14887428314E+03  0.41800000000E+01 0.  1.
        -11    1    1    2    0    0  0.32104161355E+02  0.24740933261E+01  0.13206048604E+01  0.32226422564E+02  0.00000000000E+00 0.  1.
         11    1    1    2    0    0 -0.84189351228E+01 -0.69755929606E+02 -0.98209133466E+02  0.12075513273E+03  0.00000000000E+00 0. -1.
</event>
<event>
 7    1  0.2842702E-009  0.1239452E+03  0.7561462E-02  0.1236727E+00
         -2   -1    0    0    0  501 -0.00000000000E+00  0.00000000000E+00  0.33815856200E+02  0.33815856200E+02  0.00000000000E+00 0. -1.
          2   -1    0    0  501    0  0.00000000000E+00 -0.00000000000E+00 -0.64089131281E+03  0.64089131281E+03  0.00000000000E+00 0.  1.
         25    2    1    2    0    0  0.90836235173E+01  0.97523024750E+02 -0.36456327188E+03  0.39767649401E+03  0.12508781762E+03 0.  0.
          5    1    3    3  502    0 -0.43345292590E+02  0.32420724618E+02 -0.56128714216E+02  0.78088556997E+02  0.41800000000E+01 0.  1.
         -5    1    3    3    0  502  0.52428916107E+02  0.65102300133E+02 -0.30843455766E+03  0.31958793702E+03  0.41800000000E+01 0.  1.
        -11    1    1    2    0    0 -0.28913217737E+02 -0.42348212460E+02 -0.19481296487E+03  0.20144834708E+03  0.00000000000E+00 0.  1.
         11    1    1    2    0    0  0.19829594220E+02 -0.55174812291E+02 -0.47699219864E+02  0.75582327920E+02  0.00000000000E+00 0. -1.
</event>
<event>
 7    1  0.2842702E-009  0.2117391E+03  0.7561462E-02  0.1140196E+00
          1   -1    0    0  501    0  0.00000000000E+00  0.00000000000E+00  0.59841251271E+02  0.59841251271E+02  0.00000000000E+00 0. -1.
         -1   -1    0    0    0  501 -0.00000000000E+00 -0.00000000000E+00 -0.84437252029E+03  0.84437252029E+03  0.00000000000E+00 0.  1.
         25    2    1    2    0    0  0.27303765256E+02  0.19422197035E+03 -0.38595186897E+03  0.45063726254E+03  0.12508967930E+03 0.  0.
          5    1    3    3  502    0  0.57732623723E+02  0.13516651719E+03 -0.33800215942E+03  0.36860002087E+03  0.41800000000E+01 0. -1.
         -5    1    3    3    0  502 -0.30428858468E+02  0.59055453159E+02 -0.47949709546E+02  0.82037241672E+02  0.41800000000E+01 0. -1.
        -11    1    1    2    0    0  0.24147235814E+02 -0.96018978231E+02 -0.13316969445E+03  0.16594246201E+03  0.00000000000E+00 0. -1.
         11    1    1    2    0    0 -0.51451001070E+02 -0.98202992119E+02 -0.26540970560E+03  0.28763404701E+03  0.00000000000E+00 0.  1.
</event>
<event>
 7    1  0.2842702E-009  0.1922866E+03  0.7561462E-02  0.1156415E+00
         -1   -1    0    0    0  501 -0.00000000000E+00  0.00000000000E+00  0.60698206010E+03  0.60698206010E+03  0.00000000000E+00 0.  1.
          1   -1    0    0  501    0  0.00000000000E+00 -0.00000000000E+00 -0.92052150063E+02  0.92052150063E+02  0.00000000000E+00 0. -1.
         25    2    1    2    0    0 -0.73363887947E+02  0.15699714671E+03  0.91797711509E+02  0.23260443361E+03  0.12509052149E+03 0.  0.
          5    1    3    3  502    0  0.15121695458E+02  0.20845557000E+02  0.62263172451E+02  0.67508354771E+02  0.41800000000E+01 0. -1.
         -5    1    3    3    0  502 -0.88485583405E+02  0.13615158971E+03  0.29534539058E+02  0.16509607884E+03  0.41800000000E+01 0. -1.
        -11    1    1    2    0    0 -0.11350002472E+02 -0.82387454282E+02  0.16905503304E+03  0.18840413842E+03  0.00000000000E+00 0. -1.
         11    1    1    2    0    0  0.84713890419E+02 -0.74609692427E+02  0.25407716549E+03  0.27802563813E+03  0.00000000000E+00 0.  1.
</event>
<event>
 7    1  0.2842702E-009  0.1660074E+03  0.7561462E-02  0.1182077E+00
          1   -1    0    0  501    0  0.00000000000E+00  0.00000000000E+00  0.11346920284E+04  0.11346920284E+04  0.00000000000E+00 0. -1.
         -1   -1    0    0    0  501 -0.00000000000E+00 -0.00000000000E+00 -0.34145366425E+02  0.34145366425E+02  0.00000000000E+00 0.  1.
         25    2    1    2    0    0  0.34404901311E+02  0.12984621406E+03  0.29959666484E+03  0.35135564539E+03  0.12509552918E+03 0.  0.
          5    1    3    3  502    0  0.73093562434E+02  0.10253199406E+03  0.15855083273E+03  0.20251251229E+03  0.41800000000E+01 0.  1.
         -5    1    3    3    0  502 -0.38688661123E+02  0.27314220001E+02  0.14104583211E+03  0.14884313310E+03  0.41800000000E+01 0.  1.
        -11    1    1    2    0    0 -0.38391676013E+02 -0.11509279113E+02  0.12587899274E+03  0.13210565887E+03  0.00000000000E+00 0. -1.
         11    1    1    2    0    0  0.39867747013E+01 -0.11833693495E+03  0.67507100445E+03  0.68537609062E+03  0.00000000000E+00 0.  1.
</event>
<event>
 7    1  0.2842702E-009  0.1443048E+03  0.7561462E-02  0.1207651E+00
          1   -1    0    0  501    0  0.00000000000E+00  0.00000000000E+00  0.39278742089E+03  0.39278742089E+03  0.00000000000E+00 0. -1.
         -1   -1    0    0    0  501 -0.00000000000E+00 -0.00000000000E+00 -0.69994815652E+02  0.69994815652E+02  0.00000000000E+00 0.  1.
         25    2    1    2    0    0 -0.59050913524E+02 -0.99385807605E+02  0.11262506199E+03  0.20419507971E+03  0.12508667734E+03 0.  0.
          5    1    3    3  502    0  0.26848994515E+02 -0.75326375493E+02  0.64007840752E+02  0.10251540094E+03  0.41800000000E+01 0.  1.
         -5    1    3    3    0  502 -0.85899908039E+02 -0.24059432112E+02  0.48617221235E+02  0.10167967877E+03  0.41800000000E+01 0.  1.
        -11    1    1    2    0    0  0.51745515290E+02  0.60267943767E+02  0.50713926076E+02  0.94242907938E+02  0.00000000000E+00 0.  1.
         11    1    1    2    0    0  0.73053982339E+01  0.39117863838E+02  0.15945361717E+03  0.16434424889E+03  0.00000000000E+00 0. -1.
</event>
<event>
 7    1  0.3135359E-009  0.1560581E+03  0.7561462E-02  0.1193220E+00
          2   -1    0    0  501    0  0.00000000000E+00  0.00000000000E+00  0.61436924244E+03  0.61436924244E+03  0.00000000000E+00 0. -1.
         -2   -1    0    0    0  501 -0.00000000000E+00 -0.00000000000E+00 -0.46517134012E+02  0.46517134012E+02  0.00000000000E+00 0.  1.
         25    2    1    2    0    0 -0.12625420484E+03  0.26100898666E+02  0.27861415928E+03  0.33150554305E+03  0.12509474078E+03 0.  0.
          5    1    3    3  502    0 -0.10680598576E+03 -0.34149789918E+02  0.20967206632E+03  0.23780995467E+03  0.41800000000E+01 0. -1.
         -5    1    3    3    0  502 -0.19448219087E+02  0.60250688584E+02  0.68942092957E+02  0.93695588379E+02  0.41800000000E+01 0. -1.
        -11    1    1    2    0    0  0.94434125881E+02  0.13314667130E+01  0.26396686542E+03  0.28035349645E+03  0.00000000000E+00 0. -1.
         11    1    1    2    0    0  0.31820078963E+02 -0.27432365379E+02  0.25271083735E+02  0.49027336953E+02  0.00000000000E+00 0.  1.
</event>
<event>
 7    1  0.2842702E-009  0.1141734E+03  0.7561462E-02  0.1253031E+00
          1   -1    0    0  501    0  0.00000000000E+00  0.00000000000E+00  0.34874744809E+03  0.34874744809E+03  0.00000000000E+00 0. -1.
         -1   -1    0    0    0  501 -0.00000000000E+00 -0.00000000000E+00 -0.50040989002E+02  0.50040989002E+02  0.00000000000E+00 0.  1.
         25    2    1    2    0    0  0.50046673363E+02  0.40303630501E+02  0.10550416328E+03  0.17580697896E+03  0.12509161936E+03 0.  0.
          5    1    3    3  502    0  0.62901676027E+02  0.69233761485E+02  0.10898649827E+03  0.14368529424E+03  0.41800000000E+01 0.  1.
         -5    1    3    3    0  502 -0.12855002664E+02 -0.28930130984E+02 -0.34823349834E+01  0.32121684719E+02  0.41800000000E+01 0.  1.
        -11    1    1    2    0    0  0.20227731998E+02 -0.22559511570E+02  0.10245639598E+03  0.10684290234E+03  0.00000000000E+00 0. -1.
         11    1    1    2    0    0 -0.70274405361E+02 -0.17744118931E+02  0.90745899820E+02  0.11613855578E+03  0.00000000000E+00 0.  1.
</event>
<event>
 7    1  0.2842702E-009  0.1813785E+03  0.7561462E-02  0.1166476E+00
          1   -1    0    0  501    0  0.00000000000E+00  0.00000000000E+00  0.27029612813E+03  0.27029612813E+03  0.00000000000E+00 0. -1.
         -1   -1    0    0    0  501 -0.00000000000E+00 -0.00000000000E+00 -0.14869481443E+03  0.14869481443E+03  0.00000000000E+00 0.  1.
         25    2    1    2    0    0  0.13272074810E+03 -0.10301784761E+03  0.68356253637E+02  0.22033290479E+03  0.12508612082E+03 0.  0.
          5    1    3    3  502    0  0.83815672684E+02 -0.30039961235E+02  0.93180703665E+02  0.12894798251E+03  0.41800000000E+01 0. -1.
         -5    1    3    3    0  502  0.48905075418E+02 -0.72977886375E+02 -0.24824450027E+02  0.91384922282E+02  0.41800000000E+01 0. -1.
        -11    1    1    2    0    0 -0.71059112199E+02  0.67869254887E+01 -0.26478991784E+01  0.71431583730E+02  0.00000000000E+00 0. -1.
         11    1    1    2    0    0 -0.61661635902E+02  0.96230922120E+02  0.55892959234E+02  0.12722645403E+03  0.00000000000E+00 0.  1.
</event>
<event>
 7    1  0.3200366E-009  0.1306141E+03  0.7561462E-02  0.1226547E+00
         -2   -1    0    0    0  501 -0.00000000000E+00  0.00000000000E+00  0.44903298232E+02  0.44903298232E+02  0.00000000000E+00 0.  1.
          2   -1    0    0  501    0  0.00000000000E+00 -0.00000000000E+00 -0.40786664015E+03  0.40786664015E+03  0.00000000000E+00 0. -1.
         25    2    1    2    0    0  0.65047816672E+02  0.42701608821E+02 -0.23455063362E+03  0.27697726213E+03  0.12509099949E+03 0.  0.
          5    1    3    3  502    0 -0.35897285374E+02 -0.20209839746E+01 -0.47309583577E+02  0.59568184224E+02  0.41800000000E+01 0.  1.
         -5    1    3    3    0  502  0.10094510205E+03  0.44722592796E+02 -0.18724105004E+03  0.21740907790E+03  0.41800000000E+01 0.  1.
        -11    1    1    2    0    0 -0.23352834181E+02  0.25518749276E+02 -0.16687111537E+02  0.38406003702E+02  0.00000000000E+00 0.  1.
         11    1    1    2    0    0 -0.41694982491E+02 -0.68220358097E+02 -0.11172559676E+03  0.13738667255E+03  0.00000000000E+00 0. -1.
</event>
<event>
 7    1  0.2842702E-009  0.1076481E+03  0.7561462E-02  0.1264988E+00
          2   -1    0    0  501    0  0.00000000000E+00  0.00000000000E+00  0.11335189095E+04  0.11335189095E+04  0.00000000000E+00 0. -1.
         -2   -1    0    0    0  501 -0.00000000000E+00 -0.00000000000E+00 -0.17857675962E+02  0.17857675962E+02  0.00000000000E+00 0.  1.
         25    2    1    2    0    0  0.72099910156E+01 -0.87056502429E+02  0.51002080006E+03  0.53235217230E+03  0.12508717067E+03 0.  0.
          5    1    3    3  502    0  0.10844798598E+02 -0.14212579122E+02  0.12923689460E+01  0.18405153610E+02  0.41800000000E+01 0.  1.
         -5    1    3    3    0  502 -0.36348075821E+01 -0.72843923307E+02  0.50872843112E+03  0.51394701869E+03  0.41800000000E+01 0.  1.
        -11    1    1    2    0    0  0.36097043947E+02  0.13529629151E+02  0.12303112124E+03  0.12892906670E+03  0.00000000000E+00 0.  1.
         11    1    1    2    0    0 -0.43307034963E+02  0.73526873278E+02  0.48260931223E+03  0.49009534646E+03  0.00000000000E+00 0. -1.
</event>
<event>
 7    1  0.2842702E-009  0.8808422E+02  0.7561462E-02  0.1307558E+00
          2   -1    0    0  501    0  0.00000000000E+00  0.00000000000E+00  0.63584399374E+03  0.63584399374E+03  0.00000000000E+00 0.  1.
         -2   -1    0    0    0  501 -0.00000000000E+00 -0.00000000000E+00 -0.28552878844E+02  0.28552878844E+02  0.00000000000E+00 0. -1.
         25    2    1    2    0    0 -0.23411543257E+02 -0.14793706099E+02  0.51837906091E+03  0.53397867924E+03  0.12509766181E+03 0.  0.
          5    1    3    3  502    0  0.28337042708E+02 -0.48621287063E+01  0.26675611904E+02  0.39442223003E+02  0.41800000000E+01 0.  1.
         -5    1    3    3    0  502 -0.51748585964E+02 -0.99315773928E+01  0.49170344901E+03  0.49453645624E+03  0.41800000000E+01 0.  1.
        -11    1    1    2    0    0  0.48354358213E+02 -0.19256768874E+02  0.38918588072E+02  0.64989411470E+02  0.00000000000E+00 0. -1.
         11    1    1    2    0    0 -0.24942814957E+02  0.34050474974E+02  0.49993465911E+02  0.65428781875E+02  0.00000000000E+00 0.  1.
</event>
<event>
 6    1  0.2842702E-009  0.1463722E+03  0.7561462E-02  0.1205003E+00
         -1   -1    0    0    0  501 -0.00000000000E+00  0.00000000000E+00  0.28713078749E+03  0.28713078749E+03  0.00000000000E+00 0.  1.
          1   -1    0    0  501    0  0.00000000000E+00 -0.00000000000E+00 -0.12850400426E+03  0.12850400426E+03  0.00000000000E+00 0. -1.
          5    1    1    2  502    0 -0.26302006862E+02 -0.10914839547E+02  0.12543171443E+02  0.31396382549E+02  0.41800000000E+01 0.  1.
         -5    1    1    2    0  502  0.12157818401E+03 -0.26926900370E+02  0.19925626664E+03  0.23500392547E+03  0.41800000000E+01 0.  1.
        -11    1    1    2    0    0 -0.93527051157E+02 -0.76528795863E+01 -0.38048889711E+02  0.10126003097E+03  0.00000000000E+00 0.  1.
         11    1    1    2    0    0 -0.17491259958E+01  0.45494619503E+02 -0.15123765143E+02  0.47974452759E+02  0.00000000000E+00 0. -1.
</event>
<event>
 7    1  0.2842702E-009  0.8520124E+02  0.7561462E-02  0.1314907E+00
         -2   -1    0    0    0  501 -0.00000000000E+00  0.00000000000E+00  0.24786755090E+02  0.24786755090E+02  0.00000000000E+00 0.  1.
          2   -1    0    0  501    0  0.00000000000E+00 -0.00000000000E+00 -0.57090691406E+03  0.57090691406E+03  0.00000000000E+00 0. -1.
         25    2    1    2    0    0 -0.15651425542E+02 -0.45789159316E+02 -0.34513346209E+03  0.37028015708E+03  0.12509465951E+03 0.  0.
          5    1    3    3  502    0  0.21359167584E+02 -0.15687742908E+02 -0.56267778110E+01  0.27412631138E+02  0.41800000000E+01 0. -1.
         -5    1    3    3    0  502 -0.37010593126E+02 -0.30101416408E+02 -0.33950668428E+03  0.34286752594E+03  0.41800000000E+01 0. -1.
        -11    1    1    2    0    0  0.38953223820E+02 -0.55102002218E+01 -0.46142937941E+02  0.60637337295E+02  0.00000000000E+00 0.  1.
         11    1    1    2    0    0 -0.23301798278E+02  0.51299359538E+02 -0.15484375894E+03  0.16477617478E+03  0.00000000000E+00 0. -1.
</event>
<event>
 7    1  0.2842702E-009  0.1292383E+03  0.7561462E-02  0.1228590E+00
         -1   -1    0    0    0  501 -0.00000000000E+00  0.00000000000E+00  0.97591994833E+02  0.97591994833E+02  0.00000000000E+00 0.  1.
          1   -1    0    0  501    0  0.00000000000E+00 -0.00000000000E+00 -0.22927137651E+03  0.22927137651E+03  0.00000000000E+00 0. -1.
         25    2    1    2    0    0  0.76002839017E+02  0.69856085738E+02 -0.73346088977E+02  0.17799514138E+03  0.12508524027E+03 0.  0.
          5    1    3    3  502    0  0.21834737671E+02  0.90044160683E+02 -0.76097909105E+02  0.11997112491E+03  0.41800000000E+01 0. -1.
         -5    1    3    3    0  502  0.54168101346E+02 -0.20188074945E+02  0.27518201282E+01  0.58024016471E+02  0.41800000000E+01 0. -1.
        -11    1    1    2    0    0 -0.97239028298E+01 -0.27361777482E+02 -0.63646222968E+02  0.69957578941E+02  0.00000000000E+00 0. -1.
         11    1    1    2    0    0 -0.66278936187E+02 -0.42494308257E+02  0.53129302679E+01  0.78910651019E+02  0.00000000000E+00 0.  1.
</event>
<event>
 7    1  0.2842702E-009  0.3532540E+03  0.7561462E-02  0.1061287E+00
         -2   -1    0    0    0  501 -0.00000000000E+00  0.00000000000E+00  0.24946605116E+03  0.24946605116E+03  0.00000000000E+00 0. -1.
          2   -1    0    0  501    0  0.00000000000E+00 -0.00000000000E+00 -0.59133858462E+03  0.59133858462E+03  0.00000000000E+00 0.  1.
         25    2    1    2    0    0  0.29885297210E+03 -0.17432812154E+03 -0.34747188738E+02  0.36953973822E+03  0.12509539601E+03 0.  0.
          5    1    3    3  502    0  0.34226950166E+02 -0.62702907017E+02 -0.40542026182E+02  0.82245163706E+02  0.41800000000E+01 0. -1.
         -5    1    3    3    0  502  0.26462602193E+03 -0.11162521453E+03  0.57948374446E+01  0.28729457451E+03  0.41800000000E+01 0. -1.
        -11    1    1    2    0    0 -0.12831909559E+03  0.55185195864E+02 -0.17859094827E+03  0.22672874309E+03  0.00000000000E+00 0.  1.
         11    1    1    2    0    0 -0.17053387651E+03  0.11914292568E+03 -0.12853439644E+03  0.24453615448E+03  0.00000000000E+00 0. -1.
</event>
<event>
 7    1  0.2842702E-009  0.1020270E+03  0.7561462E-02  0.1276090E+00
         -2   -1    0    0    0  501 -0.00000000000E+00  0.00000000000E+00  0.14988082717E+02  0.14988082717E+02  0.00000000000E+00 0.  1.
          2   -1    0    0  501    0  0.00000000000E+00 -0.00000000000E+00 -0.11216170350E+04  0.11216170350E+04  0.00000000000E+00 0. -1.
         25    2    1    2    0    0 -0.12734534669E+01  0.67917981747E+02 -0.68023366922E+03  0.69496762825E+03  0.12509070963E+03 0.  0.
          5    1    3    3  502    0  0.28054573680E+02 -0.10002099815E+02 -0.43330160985E+03  0.43434417068E+03  0.41800000000E+01 0. -1.
         -5    1    3    3    0  502 -0.29328027147E+02  0.77920081561E+02 -0.24693205937E+03  0.26062345756E+03  0.41800000000E+01 0. -1.
        -11    1    1    2    0    0 -0.13656640747E+02 -0.73439046823E+02 -0.41593656216E+03  0.42259084370E+03  0.00000000000E+00 0. -1.
         11    1    1    2    0    0  0.14930094214E+02  0.55210650763E+01 -0.10458720922E+02  0.19046645797E+02  0.00000000000E+00 0.  1.
</event>
<event>
 7    1  0.2842702E-009  0.1092652E+03  0.7561462E-02  0.1261937E+00
          1   -1    0    0  501    0  0.00000000000E+00  0.00000000000E+00  0.34395455196E+03  0.34395455196E+03  0.00000000000E+00 0. -1.
         -1   -1    0    0    0  501 -0.00000000000E+00 -0.00000000000E+00 -0.47441677531E+02  0.47441677531E+02  0.00000000000E+00 0.  1.
         25    2    1    2    0    0  0.11723487937E+02  0.64749741731E+02  0.13943576217E+03  0.19854822332E+03  0.12509634682E+03 0.  0.
          5    1    3    3  502    0  0.11970665773E+02 -0.35919827887E+02  0.22698067270E+02  0.44341916200E+02  0.41800000000E+01 0. -1.
         -5    1    3    3    0  502 -0.24717783592E+00  0.10066956962E+03  0.11673769490E+03  0.15420630712E+03  0.41800000000E+01 0. -1.
        -11    1    1    2    0    0  0.13483676430E+02 -0.46886626805E+02  0.15429941450E+03  0.16182853463E+03  0.00000000000E+00 0. -1.
         11    1    1    2    0    0 -0.25207164368E+02 -0.17863114926E+02  0.27776977558E+01  0.31019471549E+02  0.00000000000E+00 0.  1.
</event>
<event>
 7    1  0.2842702E-009  0.5696585E+02  0.7561462E-02  0.1411025E+00
          1   -1    0    0  501    0  0.00000000000E+00  0.00000000000E+00  0.14118015558E+03  0.14118015558E+03  0.00000000000E+00 0. -1.
         -1   -1    0    0    0  501 -0.00000000000E+00 -0.00000000000E+00 -0.11561299721E+03  0.11561299721E+03  0.00000000000E+00 0.  1.
         25    2    1    2    0    0  0.45160069237E+02 -0.26823341796E+02  0.15689837018E+02  0.13657851374E+03  0.12509434803E+03 0.  0.
          5    1    3    3  502    0  0.42127168108E+02 -0.32718777682E+02  0.66395637659E+02  0.85270568228E+02  0.41800000000E+01 0. -1.
         -5    1    3    3    0  502  0.30329011289E+01  0.58954358861E+01 -0.50705800641E+02  0.51307945508E+02  0.41800000000E+01 0. -1.
        -11    1    1    2    0    0 -0.18041872369E+02  0.12209027557E+02 -0.49078314025E+02  0.53695906920E+02  0.00000000000E+00 0.  1.
         11    1    1    2    0    0 -0.27118196869E+02  0.14614314239E+02  0.58955635381E+02  0.66518732138E+02  0.00000000000E+00 0. -1.
</event>
<event>
 7    1  0.2842702E-009  0.9475636E+02  0.7561462E-02  0.1291726E+00
         -2   -1    0    0    0  501 -0.00000000000E+00  0.00000000000E+00  0.25216070801E+02  0.25216070801E+02  0.00000000000E+00 0.  1.
          2   -1    0    0  501    0  0.00000000000E+00 -0.00000000000E+00 -0.11299459923E+04  0.11299459923E+04  0.00000000000E+00 0. -1.
         25    2    1    2    0    0  0.82545961521E+02 -0.46515556391E+01 -0.93223482388E+03  0.94421752648E+03  0.12509795254E+03 0.  0.
          5    1    3    3  502    0  0.63775281914E+02 -0.28688538632E+02 -0.21099571998E+03  0.22232180523E+03  0.41800000000E+01 0.  1.
         -5    1    3    3    0  502  0.18770679607E+02  0.24036982993E+02 -0.72123910390E+03  0.72189572125E+03  0.41800000000E+01 0.  1.
        -11    1    1    2    0    0 -0.69882797122E+02  0.15976342405E+02 -0.17894749731E+03  0.19277203024E+03  0.00000000000E+00 0. -1.
         11    1    1    2    0    0 -0.12663164399E+02 -0.11324786766E+02  0.64523996561E+01  0.18172506410E+02  0.00000000000E+00 0.  1.
</event>
<event>
 7    1  0.2842702E-009  0.4580190E+02  0.7561462E-02  0.1469397E+00
          3   -1    0    0  501    0  0.00000000000E+00  0.00000000000E+00  0.82960450326E+02  0.82960450326E+02  0.00000000000E+00 0. -1.
         -3   -1    0    0    0  501 -0.00000000000E+00 -0.00000000000E+00 -0.16776667631E+03  0.16776667631E+03  0.00000000000E+00 0.  1.
         25    2    1    2    0    0  0.28420092027E+02  0.29542411725E+02 -0.70562409429E+02  0.14935356909E+03  0.12508788613E+03 0.  0.
          5    1    3    3  502    0  0.19043227205E+02  0.13974217639E+02 -0.10633766245E+03  0.10900960561E+03  0.41800000000E+01 0. -1.
         -5    1    3    3    0  502  0.93768648228E+01  0.15568194087E+02  0.35775253017E+02  0.40343963483E+02  0.41800000000E+01 0. -1.
        -11    1    1    2    0    0 -0.11430458778E+01 -0.20055668878E+02  0.37257303477E+02  0.42327804933E+02  0.00000000000E+00 0. -1.
         11    1    1    2    0    0 -0.27277046150E+02 -0.94867428468E+01 -0.51501120028E+02  0.59045752605E+02  0.00000000000E+00 0.  1.
</event>
<event>
 7    1  0.2842702E-009  0.1255152E+03  0.7561462E-02  0.1234266E+00
          2   -1    0    0  501    0  0.00000000000E+00  0.00000000000E+00  0.87704135129E+02  0.87704135129E+02  0.00000000000E+00 0. -1.
         -2   -1    0    0    0  501 -0.00000000000E+00 -0.00000000000E+00 -0.22349699669E+03  0.22349699669E+03  0.00000000000E+00 0.  1.
         25    2    1    2    0    0 -0.31861260979E+02 -0.80296505006E+02 -0.91142733956E+02  0.17724907820E+03  0.12509024383E+03 0.  0.
          5    1    3    3  502    0 -0.60433686650E+02 -0.94320959138E+02 -0.44459723620E+02  0.12059358706E+03  0.41800000000E+01 0.  1.
         -5    1    3    3    0  502  0.28572425671E+02  0.14024454132E+02 -0.46683010336E+02  0.56655491142E+02  0.41800000000E+01 0.  1.
        -11    1    1    2    0    0  0.21355036349E+02  0.90017580420E+02 -0.59698822509E+01  0.92708369936E+02  0.00000000000E+00 0. -1.
         11    1    1    2    0    0  0.10506224630E+02 -0.97210754137E+01 -0.38680245353E+02  0.41243683683E+02  0.00000000000E+00 0.  1.
</event>
<event>
 7    1  0.2842702E-009  0.1181608E+03  0.7561462E-02  0.1246162E+00
         -2   -1    0    0    0  501 -0.00000000000E+00  0.00000000000E+00  0.16565101110E+03  0.16565101110E+03  0.00000000000E+00 0.  1.
          2   -1    0    0  501    0  0.00000000000E+00 -0.00000000000E+00 -0.13943315618E+03  0.13943315618E+03  0.00000000000E+00 0. -1.
         25    2    1    2    0    0 -0.90916324050E+02 -0.42081979929E+02  0.40968506077E+02  0.16541769189E+03  0.12509165954E+03 0.  0.
          5    1    3    3  502    0 -0.14957529853E+02 -0.12301028203E+02 -0.43565423024E+02  0.47858765941E+02  0.41800000000E+01 0. -1.
         -5    1    3    3    0  502 -0.75958794197E+02 -0.29780951726E+02  0.84533929101E+02  0.11755892595E+03  0.41800000000E+01 0. -1.
        -11    1    1    2    0    0 -0.12044611838E+02 -0.13267359621E+02  0.95008587141E+01  0.20282056650E+02  0.00000000000E+00 0.  1.
         11    1    1    2    0    0  0.10296093589E+03  0.55349339551E+02 -0.24251509872E+02  0.11938441874E+03  0.00000000000E+00 0. -1.
</event>
<event>
 7    1  0.2842702E-009  0.1626413E+03  0.7561462E-02  0.1185747E+00
          3   -1    0    0  501    0  0.00000000000E+00  0.00000000000E+00  0.11078335861E+02  0.11078335861E+02  0.00000000000E+00 0. -1.
         -3   -1    0    0    0  501 -0.00000000000E+00 -0.00000000000E+00 -0.29050849696E+04  0.29050849696E+04  0.00000000000E+00 0.  1.
         25    2    1    2    0    0 -0.86602284978E+02  0.85867480509E+02 -0.21104936783E+04  0.21177092646E+04  0.12504312607E+03 0.  0.
          5    1    3    3  502    0  0.15249799690E+02  0.67358268393E+02 -0.69789403772E+03  0.70131537342E+03  0.41800000000E+01 0.  1.
         -5    1    3    3    0  502 -0.10185208467E+03  0.18509212116E+02 -0.14125996406E+04  0.14163938912E+04  0.41800000000E+01 0.  1.
        -11    1    1    2    0    0  0.93134341941E+02 -0.32378224423E+02 -0.55342572890E+03  0.56214090091E+03  0.00000000000E+00 0. -1.
         11    1    1    2    0    0 -0.65320569632E+01 -0.53489256086E+02 -0.23008722658E+03  0.23631313997E+03  0.00000000000E+00 0.  1.
</event>
<event>
 7    1  0.2842702E-009  0.6982273E+02  0.7561462E-02  0.1360697E+00
          2   -1    0    0  501    0  0.00000000000E+00  0.00000000000E+00  0.10279150959E+04  0.10279150959E+04  0.00000000000E+00 0. -1.
         -2   -1    0    0    0  501 -0.00000000000E+00 -0.00000000000E+00 -0.16394464152E+02  0.16394464152E+02  0.00000000000E+00 0.  1.
         25    2    1    2    0    0  0.18316416903E+02  0.82688750153E+01  0.85923134574E+03  0.86852173454E+03  0.12509049699E+03 0.  0.
          5    1    3    3  502    0  0.35336876799E+02 -0.17248446284E+02  0.85830423914E+02  0.94501522900E+02  0.41800000000E+01 0.  1.
         -5    1    3    3    0  502 -0.17020459896E+02  0.25517321299E+02  0.77340092183E+03  0.77402021164E+03  0.41800000000E+01 0.  1.
        -11    1    1    2    0    0 -0.40566501121E+02 -0.18584141388E+02  0.37137826583E+02  0.58053677641E+02  0.00000000000E+00 0.  1.
         11    1    1    2    0    0  0.22250084218E+02  0.10315266373E+02  0.11515145937E+03  0.11773414782E+03  0.00000000000E+00 0. -1.
</event>
<event>
 7    1  0.2842702E-009  0.1329999E+03  0.7561462E-02  0.1223071E+00
          2   -1    0    0  501    0  0.00000000000E+00  0.00000000000E+00  0.23996234552E+03  0.23996234552E+03  0.00000000000E+00 0. -1.
         -2   -1    0    0    0  501 -0.00000000000E+00 -0.00000000000E+00 -0.81300886016E+02  0.81300886016E+02  0.00000000000E+00 0.  1.
         25    2    1    2    0    0  0.58489479088E+02  0.65242776776E+02  0.10478911032E+03  0.18521761951E+03  0.12508864797E+03 0.  0.
          5    1    3    3  502    0  0.24566832677E+02 -0.35427116847E+02  0.14316665037E+02  0.45618517881E+02  0.41800000000E+01 0.  1.
         -5    1    3    3    0  502  0.33922646411E+02  0.10066989362E+03  0.90472445280E+02  0.13959910163E+03  0.41800000000E+01 0.  1.
        -11    1    1    2    0    0  0.71433713248E+01 -0.47977426901E+02 -0.13896071542E+01  0.48526201726E+02  0.00000000000E+00 0. -1.
         11    1    1    2    0    0 -0.65632850413E+02 -0.17265349875E+02  0.55261956338E+02  0.87519410292E+02  0.00000000000E+00 0.  1.
</event>
<event>
 6    1  0.2842702E-009  0.1050206E+03  0.7561462E-02  0.1270079E+00
          1   -1    0    0  501    0  0.00000000000E+00  0.00000000000E+00  0.11582142259E+03  0.11582142259E+03  0.00000000000E+00 0. -1.
         -1   -1    0    0    0  501 -0.00000000000E+00 -0.00000000000E+00 -0.17852703350E+03  0.17852703350E+03  0.00000000000E+00 0.  1.
          5    1    1    2  502    0 -0.67062351767E+02 -0.10507115984E+02  0.71365548772E+02  0.98581298745E+02  0.41800000000E+01 0. -1.
         -5    1    1    2    0  502  0.23333641682E+02 -0.28830964702E+02 -0.27525940163E+02  0.46377075605E+02  0.41800000000E+01 0. -1.
        -11    1    1    2    0    0  0.60455785495E+02 -0.16070675196E+01 -0.60563451706E+02  0.85588646142E+02  0.00000000000E+00 0.  1.
         11    1    1    2    0    0 -0.16727075410E+02  0.40945148206E+02 -0.45981767817E+02  0.63801435602E+02  0.00000000000E+00 0. -1.
</event>
<event>
 7    1  0.2842702E-009  0.1709641E+03  0.7561462E-02  0.1176846E+00
         -2   -1    0    0    0  501 -0.00000000000E+00  0.00000000000E+00  0.46496947955E+02  0.46496947955E+02  0.00000000000E+00 0. -1.
          2   -1    0    0  501    0  0.00000000000E+00 -0.00000000000E+00 -0.85751678769E+03  0.85751678769E+03  0.00000000000E+00 0.  1.
         25    2    1    2    0    0 -0.15175527945E+03  0.31246481126E+02 -0.56792183469E+03  0.60182119917E+03  0.12509011965E+03 0.  0.
          5    1    3    3  502    0 -0.10401858066E+03 -0.14295517757E+02 -0.18098781631E+03  0.20928040760E+03  0.41800000000E+01 0.  1.
         -5    1    3    3    0  502 -0.47736698786E+02  0.45541998883E+02 -0.38693401838E+03  0.39254079157E+03  0.41800000000E+01 0.  1.
        -11    1    1    2    0    0  0.67552573177E+02  0.22082535820E+02 -0.14918273783E+03  0.16524671796E+03  0.00000000000E+00 0.  1.
         11    1    1    2    0    0  0.84202706269E+02 -0.53329016946E+02 -0.93915267222E+02  0.13694581852E+03  0.00000000000E+00 0. -1.
</event>
<event>
 7    1  0.2842702E-009  0.1793002E+03  0.7561462E-02  0.1168482E+00
         -2   -1    0    0    0  501 -0.00000000000E+00  0.00000000000E+00  0.25596762860E+02  0.25596762860E+02  0.00000000000E+00 0.  1.
          2   -1    0    0  501    0  0.00000000000E+00 -0.00000000000E+00 -0.19979472761E+04  0.19979472761E+04  0.00000000000E+00 0. -1.
         25    2    1    2    0    0  0.18859210497E+02 -0.16172601965E+03 -0.15288750775E+04  0.15426014945E+04  0.12509753488E+03 0.  0.
          5    1    3    3  502    0  0.31230666740E+02 -0.42125554459E+02 -0.94482759107E+03  0.94629095215E+03  0.41800000000E+01 0.  1.
         -5    1    3    3    0  502 -0.12371456243E+02 -0.11960046519E+03 -0.58404748640E+03  0.59631054239E+03  0.41800000000E+01 0.  1.
        -11    1    1    2    0    0 -0.45803004537E+02  0.14900787202E+03 -0.35972518323E+03  0.39205033937E+03  0.00000000000E+00 0.  1.
         11    1    1    2    0    0  0.26943794040E+02  0.12718147633E+02 -0.83750252564E+02  0.88892205063E+02  0.00000000000E+00 0. -1.
</event>
<event>
 7    1  0.2842702E-009  0.7541078E+02  0.7561462E-02  0.1342604E+00
          1   -1    0    0  501    0  0.00000000000E+00  0.00000000000E+00  0.73519281625E+02  0.73519281625E+02  0.00000000000E+00 0. -1.
         -1   -1    0    0    0  501 -0.00000000000E+00 -0.00000000000E+00 -0.26784278695E+03  0.26784278695E+03  0.00000000000E+00 0.  1.
         25    2    1    2    0    0  0.67284634374E+01  0.94176162045E+01  0.25221534153E+01  0.12564334472E+03  0.12508367239E+03 0.  0.
          5    1    3    3  502    0 -0.17032864511E+02  0.43860162008E+02 -0.42853027505E+02  0.63778418381E+02  0.41800000000E+01 0.  1.
         -5    1    3    3    0  502  0.23761327948E+02 -0.34442545804E+02  0.45375180920E+02  0.61864926338E+02  0.41800000000E+01 0.  1.
        -11    1    1    2    0    0 -0.20586319314E+02 -0.30202975894E+02 -0.18406247317E+03  0.18765662878E+03  0.00000000000E+00 0.  1.
         11    1    1    2    0    0  0.13857855876E+02  0.20785359690E+02 -0.12783185577E+02  0.28062095082E+02  0.00000000000E+00 0. -1.
</event>
<event>
 7    1  0.2842702E-009  0.4204577E+03  0.7561462E-02  0.1036917E+00
          2   -1    0    0  501    0  0.00000000000E+00  0.00000000000E+00  0.10634859810E+04  0.10634859810E+04  0.00000000000E+00 0.  1.
         -2   -1    0    0    0  501 -0.00000000000E+00 -0.00000000000E+00 -0.19922480020E+03  0.19922480020E+03  0.00000000000E+00 0. -1.
         25    2    1    2    0    0  0.38236206359E+03 -0.13631439325E+03  0.69269156227E+03  0.81255787562E+03  0.12508532809E+03 0.  0.
          5    1    3    3  502    0 -0.46252377901E+01 -0.19538829165E+02  0.31969781749E+02  0.37982864753E+02  0.41800000000E+01 0. -1.
         -5    1    3    3    0  502  0.38698730138E+03 -0.11677556408E+03  0.66072178052E+03  0.77457501087E+03  0.41800000000E+01 0. -1.
        -11    1    1    2    0    0 -0.31329654143E+03  0.71294046519E+02  0.13393349126E+03  0.34810306522E+03  0.00000000000E+00 0.  1.
         11    1    1    2    0    0 -0.69065522170E+02  0.65020346729E+02  0.37636127279E+02  0.10204984036E+03  0.00000000000E+00 0. -1.
</event>
<event>
 7    1  0.2842702E-009  0.1386276E+03  0.7561462E-02  0.1215188E+00
          2   -1    0    0  501    0  0.00000000000E+00  0.00000000000E+00  0.20207751271E+03  0.20207751271E+03  0.00000000000E+00 0.  1.
         -2   -1    0    0    0  501 -0.00000000000E+00 -0.00000000000E+00 -0.12968521804E+03  0.12968521804E+03  0.00000000000E+00 0. -1.
         25    2    1    2    0    0  0.54895297986E+02 -0.10064281889E+03  0.75725086841E+02  0.18580849139E+03  0.12509210990E+03 0.  0.
          5    1    3    3  502    0  0.40630439325E+02  0.16821188446E+02 -0.19276217717E+01  0.44215077814E+02  0.41800000000E+01 0.  1.
         -5    1    3    3    0  502  0.14264858661E+02 -0.11746400734E+03  0.77652708613E+02  0.14159341357E+03  0.41800000000E+01 0.  1.
        -11    1    1    2    0    0 -0.17044321661E+02  0.28359023432E+02  0.41324749949E+02  0.52938436596E+02  0.00000000000E+00 0.  1.
         11    1    1    2    0    0 -0.37850976325E+02  0.72283795460E+02 -0.44657542121E+02  0.93015802760E+02  0.00000000000E+00 0. -1.
</event>
<event>
 7    1  0.2842702E-009  0.7673945E+02  0.7561462E-02  0.1338568E+00
          1   -1    0    0  501    0  0.00000000000E+00  0.00000000000E+00  0.71444744758E+02  0.71444744758E+02  0.00000000000E+00 0. -1.
         -1   -1    0    0    0  501 -0.00000000000E+00 -0.00000000000E+00 -0.25453114528E+03  0.25453114528E+03  0.00000000000E+00 0.  1.
         25    2    1    2    0    0  0.13543414150E+02  0.62546096340E+02 -0.39509531225E+02  0.14595985830E+03  0.12509132242E+03 0.  0.
          5    1    3    3  502    0 -0.13523663849E+02  0.37425780183E+02  0.40998520496E+02  0.57288127819E+02  0.41800000000E+01 0. -1.
         -5    1    3    3    0  502  0.27067078000E+02  0.25120316158E+02 -0.80508051721E+02  0.88671730485E+02  0.41800000000E+01 0. -1.
        -11    1    1    2    0    0 -0.27752789408E+02 -0.30440498744E+02 -0.13855562226E+03  0.14454930558E+03  0.00000000000E+00 0.  1.
         11    1    1    2    0    0  0.14209375257E+02 -0.32105597596E+02 -0.50212470364E+01  0.35466726153E+02  0.00000000000E+00 0. -1.
</event>
<event>
 7    1  0.2842702E-009  0.1781848E+03  0.7561462E-02  0.1169571E+00
         -2   -1    0    0    0  501 -0.00000000000E+00  0.00000000000E+00  0.20023505169E+03  0.20023505169E+03  0.00000000000E+00 0.  1.
          2   -1    0    0  501    0  0.00000000000E+00 -0.00000000000E+00 -0.19037239618E+03  0.19037239618E+03  0.00000000000E+00 0. -1.
         25    2    1    2    0    0 -0.55742769578E+02 -0.13645202970E+03 -0.61995962469E+02  0.20301972838E+03  0.12508836068E+03 0.  0.
          5    1    3    3  502    0 -0.82208746963E+02 -0.59276776086E+02 -0.16438022315E+01  0.10145042507E+03  0.41800000000E+01 0. -1.
         -5    1    3    3    0  502  0.26465977385E+02 -0.77175253618E+02 -0.60352160238E+02  0.10156930331E+03  0.41800000000E+01 0. -1.
        -11    1    1    2    0    0  0.15679220212E+02  0.13200025738E+03  0.56839357404E+02  0.14457046187E+03  0.00000000000E+00 0.  1.
         11    1    1    2    0    0  0.40063549366E+02  0.44517723239E+01  0.15019260577E+02  0.43017257617E+02  0.00000000000E+00 0. -1.
</event>
<event>
 7    1  0.2842702E-009  0.1063140E+03  0.7561462E-02  0.1267552E+00
         -2   -1    0    0    0  501 -0.00000000000E+00  0.00000000000E+00  0.58746877054E+02  0.58746877054E+02  0.00000000000E+00 0.  1.
          2   -1    0    0  501    0  0.00000000000E+00 -0.00000000000E+00 -0.21253846175E+03  0.21253846175E+03  0.00000000000E+00 0. -1.
         25    2    1    2    0    0 -0.58659600789E+01 -0.21982739195E+02 -0.10826790504E+03  0.16699515971E+03  0.12509114196E+03 0.  0.
          5    1    3    3  502    0 -0.10258351606E+02 -0.73283797687E+02 -0.51565210558E+02  0.90289490645E+02  0.41800000000E+01 0.  1.
         -5    1    3    3    0  502  0.43923915274E+01  0.51301058492E+02 -0.56702694478E+02  0.76705669066E+02  0.41800000000E+01 0.  1.
        -11    1    1    2    0    0  0.24613580604E+02  0.48494296336E+02 -0.46867311051E+02  0.71791851713E+02  0.00000000000E+00 0.  1.
         11    1    1    2    0    0 -0.18747620525E+02 -0.26511557141E+02  0.13436313873E+01  0.32498327383E+02  0.00000000000E+00 0. -1.
</event>
<event>
 7    1  0.2842702E-009  0.2358274E+03  0.7561462E-02  0.1122604E+00
          1   -1    0    0  501    0  0.00000000000E+00  0.00000000000E+00  0.45110552948E+02  0.45110552948E+02  0.00000000000E+00 0. -1.
         -1   -1    0    0    0  501 -0.00000000000E+00 -0.00000000000E+00 -0.13894150814E+04  0.13894150814E+04  0.00000000000E+00 0.  1.
         25    2    1    2    0    0  0.18626982906E+03 -0.12318804243E+03 -0.77945493801E+03  0.82040808915E+03  0.12509072441E+03 0.  0.
          5    1    3    3  502    0  0.12482411989E+02 -0.38089577812E+02 -0.42952646746E+02  0.58898461860E+02  0.41800000000E+01 0.  1.
         -5    1    3    3    0  502  0.17378741707E+03 -0.85098464615E+02 -0.73650229127E+03  0.76150962729E+03  0.41800000000E+01 0.  1.
        -11    1    1    2    0    0 -0.98110977138E+02  0.11207088883E+03 -0.30358508367E+03  0.33815610446E+03  0.00000000000E+00 0. -1.
         11    1    1    2    0    0 -0.88158851924E+02  0.11117153602E+02 -0.26126450675E+03  0.27596144072E+03  0.00000000000E+00 0.  1.
</event>
<event>
 7    1  0.2842702E-009  0.7634478E+02  0.7561462E-02  0.1339757E+00
         -2   -1    0    0    0  501 -0.00000000000E+00  0.00000000000E+00  0.66007633922E+02  0.66007633922E+02  0.00000000000E+00 0.  1.
          2   -1    0    0  501    0  0.00000000000E+00 -0.00000000000E+00 -0.17938291779E+03  0.17938291779E+03  0.00000000000E+00 0. -1.
         25    2    1    2    0    0  0.10326625724E+02 -0.61159604073E+01 -0.64980751631E+02  0.14146255824E+03  0.12508042664E+03 0.  0.
          5    1    3    3  502    0  0.52888865669E+01 -0.57034389443E+02 -0.69228407256E+02  0.89949645199E+02  0.41800000000E+01 0. -1.
         -5    1    3    3    0  502  0.50377391567E+01  0.50918429035E+02  0.42476556252E+01  0.51512913037E+02  0.41800000000E+01 0. -1.
        -11    1    1    2    0    0 -0.25418786037E+02  0.11496930848E+02  0.19584707263E+02  0.34085992153E+02  0.00000000000E+00 0.  1.
         11    1    1    2    0    0  0.15092160313E+02 -0.53809704407E+01 -0.67979239497E+02  0.69842001320E+02  0.00000000000E+00 0. -1.
</event>
<event>
 7    1  0.2842702E-009  0.8371682E+02  0.7561462E-02  0.1318823E+00
         -2   -1    0    0    0  501 -0.00000000000E+00  0.00000000000E+00  0.16629003401E+03  0.16629003401E+03  0.00000000000E+00 0.  1.
          2   -1    0    0  501    0  0.00000000000E+00 -0.00000000000E+00 -0.69191608542E+02  0.69191608542E+02  0.00000000000E+00 0. -1.
         25    2    1    2    0    0  0.57284686009E+00 -0.30082372150E+01  0.45163177788E+02  0.13302765189E+03  0.12508903188E+03 0.  0.
          5    1    3    3  502    0 -0.21295574250E+02 -0.48236798790E+02  0.60474124715E+02  0.80342282767E+02  0.41800000000E+01 0.  1.
         -5    1    3    3    0  502  0.21868421110E+02  0.45228561575E+02 -0.15310946928E+02  0.52685369125E+02  0.41800000000E+01 0.  1.
        -11    1    1    2    0    0  0.31667811301E+02  0.36774151247E+01 -0.93319266875E+01  0.33218345990E+02  0.00000000000E+00 0. -1.
         11    1    1    2    0    0 -0.32240658161E+02 -0.66917790970E+00  0.61267174364E+02  0.69235644666E+02  0.00000000000E+00 0.  1.
</event>
<event>
 7    1  0.2842702E-009  0.3310132E+03  0.7561462E-02  0.1070689E+00
          2   -1    0    0  501    0  0.00000000000E+00  0.00000000000E+00  0.36818902507E+03  0.36818902507E+03  0.00000000000E+00 0. -1.
         -2   -1    0    0    0  501 -0.00000000000E+00 -0.00000000000E+00 -0.31100188612E+03  0.31100188612E+03  0.00000000000E+00 0.  1.
         25    2    1    2    0    0 -0.77400351362E+02  0.30944374631E+03 -0.29816194286E+01  0.34263981654E+03  0.12508759852E+03 0.  0.
          5    1    3    3  502    0 -0.73065365149E+02  0.64633245095E+02  0.29381399191E+01  0.97683719330E+02  0.41800000000E+01 0.  1.
         -5    1    3    3    0  502 -0.43349862134E+01  0.24481050122E+03 -0.59197593477E+01  0.24495609721E+03  0.41800000000E+01 0.  1.
        -11    1    1    2    0    0  0.33947873007E+02 -0.10020593810E+03  0.62412332845E+02  0.12283723948E+03  0.00000000000E+00 0.  1.
         11    1    1    2    0    0  0.43452478355E+02 -0.20923780822E+03 -0.22435744667E+01  0.21371385516E+03  0.00000000000E+00 0. -1.
</event>
<event>
 7    1  0.2842702E-009  0.9632795E+02  0.7561462E-02  0.1288213E+00
         -2   -1    0    0    0  501 -0.00000000000E+00  0.00000000000E+00  0.20334443762E+02  0.20334443762E+02  0.00000000000E+00 0.  1.
          2   -1    0    0  501    0  0.00000000000E+00 -0.00000000000E+00 -0.10411715604E+04  0.10411715604E+04  0.00000000000E+00 0. -1.
         25    2    1    2    0    0 -0.84810640620E+02  0.86961155887E+01 -0.72443182559E+03  0.74007889407E+03  0.12508729881E+03 0.  0.
          5    1    3    3  502    0 -0.31096897193E+02  0.27687542056E+01 -0.29882686914E+02  0.43418088305E+02  0.41800000000E+01 0. -1.
         -5    1    3    3    0  502 -0.53713743427E+02  0.59273613831E+01 -0.69454913868E+03  0.69666080576E+03  0.41800000000E+01 0. -1.
        -11    1    1    2    0    0  0.54122201881E+02  0.26498518986E+02 -0.80650821966E+02  0.10067740227E+03  0.00000000000E+00 0.  1.
         11    1    1    2    0    0  0.30688438739E+02 -0.35194634575E+02 -0.21575446911E+03  0.22074970785E+03  0.00000000000E+00 0. -1.
</event>
<event>
 7    1  0.2842702E-009  0.1132818E+03  0.7561462E-02  0.1254610E+00
          1   -1    0    0  501    0  0.00000000000E+00  0.00000000000E+00  0.48804370951E+03  0.48804370951E+03  0.00000000000E+00 0. -1.
         -1   -1    0    0    0  501 -0.00000000000E+00 -0.00000000000E+00 -0.41093734799E+02  0.41093734799E+02  0.00000000000E+00 0.  1.
         25    2    1    2    0    0 -0.63992045109E+02 -0.22927528820E+02  0.35593125970E+03  0.38334873811E+03  0.12509412443E+03 0.  0.
          5    1    3    3  502    0  0.12022838631E+02  0.25811831084E+02  0.18960646640E+02  0.34464152299E+02  0.41800000000E+01 0. -1.
         -5    1    3    3    0  502 -0.76014883740E+02 -0.48739359905E+02  0.33697061306E+03  0.34888458581E+03  0.41800000000E+01 0. -1.
        -11    1    1    2    0    0  0.74300073490E+02  0.42261710068E+02  0.89598490725E+02  0.12383231646E+03  0.00000000000E+00 0.  1.
         11    1    1    2    0    0 -0.10308028381E+02 -0.19334181248E+02  0.14202242939E+01  0.21956389746E+02  0.00000000000E+00 0. -1.
</event>
<event>
 7    1  0.2842702E-009  0.9129115E+02  0.7561462E-02  0.1299755E+00
          2   -1    0    0  501    0  0.00000000000E+00  0.00000000000E+00  0.13554764464E+03  0.13554764464E+03  0.00000000000E+00 0. -1.
         -2   -1    0    0    0  501 -0.00000000000E+00 -0.00000000000E+00 -0.12588699780E+03  0.12588699780E+03  0.00000000000E+00 0.  1.
         25    2    1    2    0    0  0.12083898357E+02 -0.69652399855E+02  0.43913414447E+01  0.14374872998E+03  0.12508771357E+03 0.  0.
          5    1    3    3  502    0  0.25067093602E+02  0.37172911393E+01  0.50055060198E+02  0.56259744814E+02  0.41800000000E+01 0. -1.
         -5    1    3    3    0  502 -0.12983195245E+02 -0.73369690994E+02 -0.45663718753E+02  0.87488985168E+02  0.41800000000E+01 0. -1.
        -11    1    1    2    0    0 -0.12131531563E+02 -0.47853954299E+00 -0.34840392217E+02  0.36895202777E+02  0.00000000000E+00 0.  1.
         11    1    1    2    0    0  0.47633205953E-01  0.70130939398E+02  0.40109697612E+02  0.80790709691E+02  0.00000000000E+00 0. -1.
</event>
<event>
 7    1  0.2842702E-009  0.9906954E+02  0.7561462E-02  0.1282265E+00
          2   -1    0    0  501    0  0.00000000000E+00  0.00000000000E+00  0.36915674143E+03  0.36915674143E+03  0.00000000000E+00 0. -1.
         -2   -1    0    0    0  501 -0.00000000000E+00 -0.00000000000E+00 -0.58336356627E+02  0.58336356627E+02  0.00000000000E+00 0.  1.
         25    2    1    2    0    0 -0.28525893162E+02 -0.42639460405E+02  0.59050940222E+02  0.14752765544E+03  0.12508215465E+03 0.  0.
          5    1    3    3  502    0 -0.53385958192E+02 -0.41917299361E+02  0.86645040065E+02  0.11014515825E+03  0.41800000000E+01 0.  1.
         -5    1    3    3    0  502  0.24860065029E+02 -0.72216104457E+00 -0.27594099842E+02  0.37382497187E+02  0.41800000000E+01 0.  1.
        -11    1    1    2    0    0 -0.24174910113E+02 -0.13685554502E+02  0.14845767146E+03  0.15103443613E+03  0.00000000000E+00 0. -1.
         11    1    1    2    0    0  0.52700803275E+02  0.56325014908E+02  0.10331177311E+03  0.12893100649E+03  0.00000000000E+00 0.  1.
</event>
<event>
 7    1  0.2842702E-009  0.7123870E+02  0.7561462E-02  0.1355931E+00
         -1   -1    0    0    0  501 -0.00000000000E+00  0.00000000000E+00  0.12992124576E+03  0.12992124576E+03  0.00000000000E+00 0.  1.
          1   -1    0    0  501    0  0.00000000000E+00 -0.00000000000E+00 -0.12336108249E+03  0.12336108249E+03  0.00000000000E+00 0. -1.
         25    2    1    2    0    0  0.38353410455E+02  0.60086985065E+01 -0.47860836685E+02  0.13943050756E+03  0.12507245179E+03 0.  0.
          5    1    3    3  502    0  0.41693287092E+02  0.39063962776E+02  0.22469129553E+02  0.61535823381E+02  0.41800000000E+01 0. -1.
         -5    1    3    3    0  502 -0.33398766373E+01 -0.33055264269E+02 -0.70329966237E+02  0.77894684175E+02  0.41800000000E+01 0. -1.
        -11    1    1    2    0    0 -0.39651296360E+02  0.55815985337E+01  0.77926321448E+02  0.87612163080E+02  0.00000000000E+00 0.  1.
         11    1    1    2    0    0  0.12978859048E+01 -0.11590297040E+02 -0.23505321493E+02  0.26239657616E+02  0.00000000000E+00 0. -1.
</event>
<event>
 7    1  0.2842702E-009  0.1149008E+03  0.7561462E-02  0.1251754E+00
         -2   -1    0    0    0  501 -0.00000000000E+00  0.00000000000E+00  0.66854413881E+02  0.66854413881E+02  0.00000000000E+00 0.  1.
          2   -1    0    0  501    0  0.00000000000E+00 -0.00000000000E+00 -0.23524011420E+03  0.23524011420E+03  0.00000000000E+00 0. -1.
         25    2    1    2    0    0  0.49477302391E+02 -0.30811412761E+02 -0.70872374595E+02  0.15514139097E+03  0.12509440875E+03 0.  0.
          5    1    3    3  502    0  0.32060728267E+02 -0.72307828847E+02 -0.75854345495E+02  0.10967071870E+03  0.41800000000E+01 0. -1.
         -5    1    3    3    0  502  0.17416574124E+02  0.41496416087E+02  0.49819709000E+01  0.45470672266E+02  0.41800000000E+01 0. -1.
        -11    1    1    2    0    0  0.25642845158E+02  0.89697908880E+01 -0.45552651682E+02  0.53038257245E+02  0.00000000000E+00 0. -1.
         11    1    1    2    0    0 -0.75120147549E+02  0.21841621873E+02 -0.51960674037E+02  0.93914879866E+02  0.00000000000E+00 0.  1.
</event>
<event>
 7    1  0.4009583E-009  0.7239451E+02  0.7561462E-02  0.1352135E+00
          1   -1    0    0  501    0  0.00000000000E+00  0.00000000000E+00  0.46894769097E+03  0.46894769097E+03  0.00000000000E+00 0. -1.
         -1   -1    0    0    0  501 -0.00000000000E+00 -0.00000000000E+00 -0.30321784653E+02  0.30321784653E+02  0.00000000000E+00 0.  1.
         25    2    1    2    0    0  0.29256958165E+02  0.79500105200E+01  0.16615142701E+03  0.21017448945E+03  0.12509135482E+03 0.  0.
          5    1    3    3  502    0 -0.16610950872E+02 -0.10590935855E+02 -0.13199019168E+02  0.24078582145E+02  0.41800000000E+01 0.  1.
         -5    1    3    3    0  502  0.45867909037E+02  0.18540946375E+02  0.17935044618E+03  0.18609590731E+03  0.41800000000E+01 0.  1.
        -11    1    1    2    0    0  0.21315997435E+02  0.67074024548E+01  0.16543591896E+02  0.27803802387E+02  0.00000000000E+00 0.  1.
         11    1    1    2    0    0 -0.50572955600E+02 -0.14657412975E+02  0.25593088742E+03  0.26129118379E+03  0.00000000000E+00 0. -1.
</event>
<event>
 7    1  0.2842702E-009  0.1626248E+03  0.7561462E-02  0.1185765E+00
          2   -1    0    0  501    0  0.00000000000E+00  0.00000000000E+00  0.19743590181E+03  0.19743590181E+03  0.00000000000E+00 0. -1.
         -2   -1    0    0    0  501 -0.00000000000E+00 -0.00000000000E+00 -0.16856336958E+03  0.16856336958E+03  0.00000000000E+00 0.  1.
         25    2    1    2    0    0 -0.34889609158E+01 -0.14581585044E+03  0.26231951340E+02  0.19395772315E+03  0.12512812637E+03 0.  0.
          5    1    3    3  502    0 -0.48476538895E+02 -0.88395761041E+02 -0.25934158144E+02  0.10418175633E+03  0.41800000000E+01 0.  1.
         -5    1    3    3    0  502  0.44987577979E+02 -0.57420089403E+02  0.52166109484E+02  0.89775966819E+02  0.41800000000E+01 0.  1.
        -11    1    1    2    0    0 -0.16960000437E+02  0.95085540236E+02 -0.38110636755E+02  0.10383314601E+03  0.00000000000E+00 0.  1.
         11    1    1    2    0    0  0.20448961353E+02  0.50730310208E+02  0.40751217644E+02  0.68208402222E+02  0.00000000000E+00 0. -1.
</event>
<event>
 7    1  0.2842702E-009  0.1133765E+03  0.7561462E-02  0.1254442E+00
         -1   -1    0    0    0  501 -0.00000000000E+00  0.00000000000E+00  0.28925493376E+03  0.28925493376E+03  0.00000000000E+00 0.  1.
          1   -1    0    0  501    0  0.00000000000E+00 -0.00000000000E+00 -0.62207668584E+02  0.62207668584E+02  0.00000000000E+00 0. -1.
         25    2    1    2    0    0  0.50267027601E+02 -0.48724398493E+02  0.17156692538E+03  0.22356985841E+03  0.12508969035E+03 0.  0.
          5    1    3    3  502    0  0.42840334909E+02 -0.75019415025E+02  0.52152143753E+02  0.10099765059E+03  0.41800000000E+01 0. -1.
         -5    1    3    3    0  502  0.74266926924E+01  0.26295016532E+02  0.11941478163E+03  0.12257220782E+03  0.41800000000E+01 0. -1.
        -11    1    1    2    0    0  0.19719734474E+02 -0.92113939241E+01  0.22319314246E+02  0.31174821477E+02  0.00000000000E+00 0.  1.
         11    1    1    2    0    0 -0.69986762075E+02  0.57935792417E+02  0.33161025540E+02  0.96717922453E+02  0.00000000000E+00 0. -1.
</event>
<event>
 7    1  0.2842702E-009  0.7654486E+02  0.7561462E-02  0.1339153E+00
          2   -1    0    0  501    0  0.00000000000E+00  0.00000000000E+00  0.26930097271E+02  0.26930097271E+02  0.00000000000E+00 0. -1.
         -2   -1    0    0    0  501 -0.00000000000E+00 -0.00000000000E+00 -0.45173398061E+03  0.45173398061E+03  0.00000000000E+00 0.  1.
         25    2    1    2    0    0  0.13794735308E+02  0.19986476760E+02 -0.27515286933E+03  0.30322637643E+03  0.12508948752E+03 0.  0.
          5    1    3    3  502    0  0.49983815206E+02  0.16609920353E+02 -0.42761409632E+02  0.67972654725E+02  0.41800000000E+01 0.  1.
         -5    1    3    3    0  502 -0.36189079897E+02  0.33765564072E+01 -0.23239145970E+03  0.23525372171E+03  0.41800000000E+01 0.  1.
        -11    1    1    2    0    0  0.23286542228E+02 -0.93163056257E+01 -0.12950076210E+03  0.13190717942E+03  0.00000000000E+00 0.  1.
         11    1    1    2    0    0 -0.37081277536E+02 -0.10670171134E+02 -0.20150251912E+02  0.43530522026E+02  0.00000000000E+00 0. -1.
</event>
<event>
 7    1  0.2842702E-009  0.2941355E+03  0.7561462E-02  0.1088210E+00
         -2   -1    0    0    0  501 -0.00000000000E+00  0.00000000000E+00  0.83203514655E+02  0.83203514655E+02  0.00000000000E+00 0.  1.
          2   -1    0    0  501    0  0.00000000000E+00 -0.00000000000E+00 -0.12466118726E+04  0.12466118726E+04  0.00000000000E+00 0. -1.
         25    2    1    2    0    0  0.19296908224E+03  0.21810490094E+03 -0.42023326855E+03  0.52635441602E+03  0.12508459842E+03 0.  0.
          5    1    3    3  502    0  0.18935810181E+03  0.19128618838E+03 -0.42013004541E+03  0.49897256843E+03  0.41800000000E+01 0.  1.
         -5    1    3    3    0  502  0.36109804216E+01  0.26818712553E+02 -0.10322313653E+00  0.27381847593E+02  0.41800000000E+01 0.  1.
        -11    1    1    2    0    0 -0.98804400384E+02 -0.12426172926E+03 -0.28322744093E+03  0.32468611025E+03  0.00000000000E+00 0.  1.
         11    1    1    2    0    0 -0.94164681852E+02 -0.93843171673E+02 -0.45994764850E+03  0.47877486101E+03  0.00000000000E+00 0. -1.
</event>
<event>
 7    1  0.2842702E-009  0.1121934E+03  0.7561462E-02  0.1256561E+00
          2   -1    0    0  501    0  0.00000000000E+00  0.00000000000E+00  0.20926154503E+03  0.20926154503E+03  0.00000000000E+00 0. -1.
         -2   -1    0    0    0  501 -0.00000000000E+00 -0.00000000000E+00 -0.98206967084E+02  0.98206967084E+02  0.00000000000E+00 0.  1.
         25    2    1    2    0    0 -0.46311061386E+02  0.77472809423E+02  0.28317235102E+02  0.15683113884E+03  0.12508952674E+03 0.  0.
          5    1    3    3  502    0 -0.28552037286E+02  0.13203924035E+02  0.70850400713E+02  0.77632558404E+02  0.41800000000E+01 0.  1.
         -5    1    3    3    0  502 -0.17759024099E+02  0.64268885388E+02 -0.42533165611E+02  0.79198580435E+02  0.41800000000E+01 0.  1.
        -11    1    1    2    0    0 -0.14324499521E+02 -0.61492146297E+02  0.39687965270E+02  0.74576202170E+02  0.00000000000E+00 0. -1.
         11    1    1    2    0    0  0.60635560907E+02 -0.15980663126E+02  0.43049377576E+02  0.76061171106E+02  0.00000000000E+00 0.  1.
</event>
<event>
 7    1  0.4701087E-009  0.1105520E+03  0.7561462E-02  0.1259551E+00
          1   -1    0    0  501    0  0.00000000000E+00  0.00000000000E+00  0.41561504222E+03  0.41561504222E+03  0.00000000000E+00 0. -1.
         -1   -1    0    0    0  501 -0.00000000000E+00 -0.00000000000E+00 -0.43004932027E+02  0.43004932027E+02  0.00000000000E+00 0.  1.
         25    2    1    2    0    0 -0.28697909431E+02 -0.71695309508E+02  0.19219475254E+03  0.24197146851E+03  0.12509029241E+03 0.  0.
          5    1    3    3  502    0 -0.56537524814E+02 -0.81996755583E+02  0.18648244384E+03  0.21145480344E+03  0.41800000000E+01 0. -1.
         -5    1    3    3    0  502  0.27839615384E+02  0.10301446076E+02  0.57123087007E+01  0.30516665064E+02  0.41800000000E+01 0. -1.
        -11    1    1    2    0    0  0.25842127304E+02  0.71247183904E+01  0.19932226538E+01  0.26880291894E+02  0.00000000000E+00 0.  1.
         11    1    1    2    0    0  0.28557821264E+01  0.64570591117E+02  0.17842213499E+03  0.18976821384E+03  0.00000000000E+00 0. -1.
</event>
<event>
 7    1  0.2842702E-009  0.1246612E+03  0.7561462E-02  0.1235600E+00
          1   -1    0    0  501    0  0.00000000000E+00  0.00000000000E+00  0.37726296203E+02  0.37726296203E+02  0.00000000000E+00 0. -1.
         -1   -1    0    0    0  501 -0.00000000000E+00 -0.00000000000E+00 -0.61967305302E+03  0.61967305302E+03  0.00000000000E+00 0.  1.
         25    2    1    2    0    0  0.40970890082E+02  0.93997270837E+02 -0.32759550936E+03  0.36534778069E+03  0.12508430095E+03 0.  0.
          5    1    3    3  502    0  0.11836244683E+02  0.79052490045E+01 -0.23522628512E+03  0.23569358765E+03  0.41800000000E+01 0.  1.
         -5    1    3    3    0  502  0.29134645399E+02  0.86092021832E+02 -0.92369224244E+02  0.12965419304E+03  0.41800000000E+01 0.  1.
        -11    1    1    2    0    0 -0.63271368646E+02 -0.10181445874E+03 -0.21433432903E+03  0.24557820486E+03  0.00000000000E+00 0. -1.
         11    1    1    2    0    0  0.22300478564E+02  0.78171879075E+01 -0.40016918425E+02  0.46473363674E+02  0.00000000000E+00 0.  1.
</event>
<event>
 7    1  0.2842702E-009  0.1183214E+03  0.7561462E-02  0.1245892E+00
          2   -1    0    0  501    0  0.00000000000E+00  0.00000000000E+00  0.27584173385E+03  0.27584173385E+03  0.00000000000E+00 0. -1.
         -2   -1    0    0    0  501 -0.00000000000E+00 -0.00000000000E+00 -0.76725550221E+02  0.76725550221E+02  0.00000000000E+00 0.  1.
         25    2    1    2    0    0  0.27535615600E+01  0.74310021881E+02  0.33069800618E+02  0.14923057397E+03  0.12508633435E+03 0.  0.
          5    1    3    3  502    0 -0.33762233315E+02  0.90863059883E+02 -0.10773791073E+00  0.97023028490E+02  0.41800000000E+01 0. -1.
         -5    1    3    3    0  502  0.36515794875E+02 -0.16553038003E+02  0.33177538529E+02  0.52207545483E+02  0.41800000000E+01 0. -1.
        -11    1    1    2    0    0 -0.26827117807E+02 -0.68565136573E+01  0.64851784494E+01  0.28438768765E+02  0.00000000000E+00 0.  1.
         11    1    1    2    0    0  0.24073556247E+02 -0.67453508223E+02  0.15956120457E+03  0.17489794134E+03  0.00000000000E+00 0. -1.
</event>
<event>
 7    1  0.2842702E-009  0.9236515E+02  0.7561462E-02  0.1297223E+00
          2   -1    0    0  501    0  0.00000000000E+00  0.00000000000E+00  0.17179147273E+03  0.17179147273E+03  0.00000000000E+00 0. -1.
         -2   -1    0    0    0  501 -0.00000000000E+00 -0.00000000000E+00 -0.10194698432E+03  0.10194698432E+03  0.00000000000E+00 0.  1.
         25    2    1    2    0    0  0.48502158580E+02  0.14520284759E+02  0.95490478422E+02  0.16531515820E+03  0.12508945601E+03 0.  0.
          5    1    3    3  502    0  0.38938602442E+02 -0.52360362922E+02  0.33226617379E+02  0.73343730938E+02  0.41800000000E+01 0. -1.
         -5    1    3    3    0  502  0.95635561377E+01  0.66880647680E+02  0.62263861043E+02  0.91971427259E+02  0.41800000000E+01 0. -1.
        -11    1    1    2    0    0 -0.33970016700E+02 -0.51371147853E+01  0.32782896428E+02  0.47487580282E+02  0.00000000000E+00 0. -1.
         11    1    1    2    0    0 -0.14532141880E+02 -0.93831699734E+01 -0.58428886447E+02  0.60935718571E+02  0.00000000000E+00 0.  1.
</event>
<event>
 7    1  0.2842702E-009  0.1403729E+03  0.7561462E-02  0.1212828E+00
         -2   -1    0    0    0  501 -0.00000000000E+00  0.00000000000E+00  0.11254510633E+03  0.11254510633E+03  0.00000000000E+00 0. -1.
          2   -1    0    0  501    0  0.00000000000E+00 -0.00000000000E+00 -0.23323590642E+03  0.23323590642E+03  0.00000000000E+00 0.  1.
         25    2    1    2    0    0  0.10687295043E+03  0.39514267260E+02 -0.22632986030E+02  0.17071857733E+03  0.12509746496E+03 0.  0.
          5    1    3    3  502    0 -0.26410220554E+02  0.13706568744E+02  0.87926095149E+01  0.31307381854E+02  0.41800000000E+01 0.  1.
         -5    1    3    3    0  502  0.13328317098E+03  0.25807698516E+02 -0.31425595544E+02  0.13941119548E+03  0.41800000000E+01 0.  1.
        -11    1    1    2    0    0 -0.67600856707E+02 -0.17397218555E+02 -0.30087396183E+01  0.69868387380E+02  0.00000000000E+00 0. -1.
         11    1    1    2    0    0 -0.39272093718E+02 -0.22117048705E+02 -0.95049074444E+02  0.10519404803E+03  0.00000000000E+00 0.  1.
</event>
<event>
 7    1  0.2842702E-009  0.2033864E+03  0.7561462E-02  0.1146913E+00
          1   -1    0    0  501    0  0.00000000000E+00  0.00000000000E+00  0.39974532536E+03  0.39974532536E+03  0.00000000000E+00 0.  1.
         -1   -1    0    0    0  501 -0.00000000000E+00 -0.00000000000E+00 -0.12912744274E+03  0.12912744274E+03  0.00000000000E+00 0. -1.
         25    2    1    2    0    0  0.16264842891E+03  0.86221414907E+02  0.23567683037E+03  0.32415928713E+03  0.12508809393E+03 0.  0.
          5    1    3    3  502    0  0.50541300520E+02  0.78276385803E+02  0.17004296609E+03  0.19394251301E+03  0.41800000000E+01 0.  1.
         -5    1    3    3    0  502  0.11210712839E+03  0.79450291040E+01  0.65633864275E+02  0.13021677412E+03  0.41800000000E+01 0.  1.
        -11    1    1    2    0    0 -0.10866281589E+03 -0.12091442049E+02  0.27306258556E+02  0.11269180221E+03  0.00000000000E+00 0.  1.
         11    1    1    2    0    0 -0.53985613018E+02 -0.74129972858E+02  0.76347936870E+01  0.92021678769E+02  0.00000000000E+00 0. -1.
</event>
<event>
 7    1  0.2842702E-009  0.1651664E+03  0.7561462E-02  0.1182984E+00
         -2   -1    0    0    0  501 -0.00000000000E+00  0.00000000000E+00  0.42629540878E+02  0.42629540878E+02  0.00000000000E+00 0.  1.
          2   -1    0    0  501    0  0.00000000000E+00 -0.00000000000E+00 -0.12154458367E+04  0.12154458367E+04  0.00000000000E+00 0. -1.
         25    2    1    2    0    0 -0.11228104937E+03 -0.10316891725E+03 -0.96387462864E+03  0.98384608652E+03  0.12509181703E+03 0.  0.
          5    1    3    3  502    0 -0.58737986426E+02 -0.96871281716E+02 -0.85286930760E+03  0.86037069017E+03  0.41800000000E+01 0. -1.
         -5    1    3    3    0  502 -0.53543062939E+02 -0.62976355338E+01 -0.11100532104E+03  0.12347539634E+03  0.41800000000E+01 0. -1.
        -11    1    1    2    0    0  0.11829733658E+03  0.90758443759E+02 -0.14206797497E+03  0.20594820822E+03  0.00000000000E+00 0.  1.
         11    1    1    2    0    0 -0.60162872161E+01  0.12410473491E+02 -0.66873692206E+02  0.68281082837E+02  0.00000000000E+00 0. -1.
</event>
<event>
 7    1  0.2842702E-009  0.1185003E+03  0.7561462E-02  0.1245592E+00
         -2   -1    0    0    0  501 -0.00000000000E+00  0.00000000000E+00  0.21906222720E+03  0.21906222720E+03  0.00000000000E+00 0.  1.
          2   -1    0    0  501    0  0.00000000000E+00 -0.00000000000E+00 -0.88618399722E+02  0.88618399722E+02  0.00000000000E+00 0. -1.
         25    2    1    2    0    0 -0.51674448396E+02 -0.44379100002E+02  0.12829329030E+03  0.19169945083E+03  0.12509899273E+03 0.  0.
          5    1    3    3  502    0  0.20514138746E+02  0.25498855317E+02  0.64966798952E+02  0.72864112408E+02  0.41800000000E+01 0. -1.
         -5    1    3    3    0  502 -0.72188587142E+02 -0.69877955319E+02  0.63326491344E+02  0.11883533843E+03  0.41800000000E+01 0. -1.
        -11    1    1    2    0    0  0.55182811137E+02 -0.36418297950E+01 -0.25015281249E+02  0.60697362918E+02  0.00000000000E+00 0.  1.
         11    1    1    2    0    0 -0.35083627408E+01  0.48020929797E+02  0.27165818434E+02  0.55283813172E+02  0.00000000000E+00 0. -1.
</event>
<event>
 7    1  0.2842702E-009  0.9465092E+02  0.7561462E-02  0.1291964E+00
          1   -1    0    0  501    0  0.00000000000E+00  0.00000000000E+00  0.10824351015E+03  0.10824351015E+03  0.00000000000E+00 0. -1.
         -1   -1    0    0    0  501 -0.00000000000E+00 -0.00000000000E+00 -0.12043635830E+03  0.12043635830E+03  0.00000000000E+00 0.  1.
         25    2    1    2    0    0 -0.45476793045E+01  0.19911245118E+02  0.18477091773E+02  0.12808139704E+03  0.12508518009E+03 0.  0.
          5    1    3    3  502    0  0.49553717813E+02  0.89584194170E+01 -0.26223828005E+02  0.56929656444E+02  0.41800000000E+01 0. -1.
         -5    1    3    3    0  502 -0.54101397118E+02  0.10952825701E+02  0.44700919778E+02  0.71151740597E+02  0.41800000000E+01 0. -1.
        -11    1    1    2    0    0 -0.37611394825E+02 -0.21675084973E+01  0.10445175937E+02  0.39094971724E+02  0.00000000000E+00 0. -1.
         11    1    1    2    0    0  0.42159074130E+02 -0.17743736621E+02 -0.41115115862E+02  0.61503499681E+02  0.00000000000E+00 0.  1.
</event>
<event>
 7    1  0.2842702E-009  0.8979473E+02  0.7561462E-02  0.1303350E+00
         -1   -1    0    0    0  501 -0.00000000000E+00  0.00000000000E+00  0.91685567422E+03  0.91685567422E+03  0.00000000000E+00 0.  1.
          1   -1    0    0  501    0  0.00000000000E+00 -0.00000000000E+00 -0.15752951368E+02  0.15752951368E+02  0.00000000000E+00 0. -1.
         25    2    1    2    0    0  0.11135717869E+02 -0.38838827156E+02  0.60284313789E+03  0.61700830649E+03  0.12508773988E+03 0.  0.
          5    1    3    3  502    0  0.46004454090E+02 -0.21685874225E+02  0.96529095187E+02  0.10918802844E+03  0.41800000000E+01 0. -1.
         -5    1    3    3    0  502 -0.34868736221E+02 -0.17152952931E+02  0.50631404270E+03  0.50782027805E+03  0.41800000000E+01 0. -1.
        -11    1    1    2    0    0 -0.45757810976E+02  0.25410214450E+02  0.90476340175E+02  0.10452475494E+03  0.00000000000E+00 0. -1.
         11    1    1    2    0    0  0.34622093107E+02  0.13428612706E+02  0.20778324479E+03  0.21107556416E+03  0.00000000000E+00 0.  1.
</event>
<event>
 7    1  0.2842702E-009  0.1086566E+03  0.7561462E-02  0.1263078E+00
         -1   -1    0    0    0  501 -0.00000000000E+00  0.00000000000E+00  0.42934935924E+02  0.42934935924E+02  0.00000000000E+00 0.  1.
          1   -1    0    0  501    0  0.00000000000E+00 -0.00000000000E+00 -0.48830154555E+03  0.48830154555E+03  0.00000000000E+00 0. -1.
         25    2    1    2    0    0 -0.50295647881E+02  0.18410776367E+02 -0.38643665830E+03  0.40969355453E+03  0.12508760475E+03 0.  0.
          5    1    3    3  502    0 -0.78256161599E+02  0.28025255894E+02 -0.15140620096E+03  0.17277370137E+03  0.41800000000E+01 0.  1.
         -5    1    3    3    0  502  0.27960513718E+02 -0.96144795271E+01 -0.23503045733E+03  0.23691985315E+03  0.41800000000E+01 0.  1.
        -11    1    1    2    0    0  0.19766898644E+02  0.36436287516E+02 -0.11958719526E+02  0.43143299627E+02  0.00000000000E+00 0.  1.
         11    1    1    2    0    0  0.30528749237E+02 -0.54847063884E+02 -0.46971231801E+02  0.78399627317E+02  0.00000000000E+00 0. -1.
</event>
<event>
 7    1  0.2842702E-009  0.6407380E+02  0.7561462E-02  0.1381490E+00
         -1   -1    0    0    0  501 -0.00000000000E+00  0.00000000000E+00  0.86021737684E+02  0.86021737684E+02  0.00000000000E+00 0.  1.
          1   -1    0    0  501    0  0.00000000000E+00 -0.00000000000E+00 -0.18218494088E+03  0.18218494088E+03  0.00000000000E+00 0. -1.
         25    2    1    2    0    0 -0.12606503414E+02  0.37732652230E+02 -0.10551297516E+03  0.16840533517E+03  0.12507874325E+03 0.  0.
          5    1    3    3  502    0 -0.25300114560E+02  0.43675274193E+02  0.10290718166E+02  0.51681685856E+02  0.41800000000E+01 0.  1.
         -5    1    3    3    0  502  0.12693611146E+02 -0.59426219629E+01 -0.11580369333E+03  0.11672364931E+03  0.41800000000E+01 0.  1.
        -11    1    1    2    0    0  0.29746542442E+02 -0.12263081674E+02  0.43354040512E+02  0.53989006178E+02  0.00000000000E+00 0.  1.
         11    1    1    2    0    0 -0.17140039028E+02 -0.25469570556E+02 -0.34004268544E+02  0.45812337218E+02  0.00000000000E+00 0. -1.
</event>
<event>
 7    1  0.3046107E-009  0.9568189E+02  0.7561462E-02  0.1289648E+00
          3   -1    0    0  501    0  0.00000000000E+00  0.00000000000E+00  0.73754732580E+03  0.73754732580E+03  0.00000000000E+00 0. -1.
         -3   -1    0    0    0  501 -0.00000000000E+00 -0.00000000000E+00 -0.20846581558E+02  0.20846581558E+02  0.00000000000E+00 0.  1.
         25    2    1    2    0    0  0.23733081527E+02  0.51570575164E+02  0.47274678965E+03  0.49230097091E+03  0.12509170815E+03 0.  0.
          5    1    3    3  502    0 -0.37440717651E+01 -0.38433448599E+02  0.20025475675E+03  0.20398673497E+03  0.41800000000E+01 0. -1.
         -5    1    3    3    0  502  0.27477153292E+02  0.90004023763E+02  0.27249203290E+03  0.28831423594E+03  0.41800000000E+01 0. -1.
        -11    1    1    2    0    0 -0.10485983518E+02 -0.92602974352E+01 -0.37250822398E+01  0.14477057595E+02  0.00000000000E+00 0.  1.
         11    1    1    2    0    0 -0.13247098009E+02 -0.42310277729E+02  0.24767903683E+03  0.25161587885E+03  0.00000000000E+00 0. -1.
</event>
<event>
 7    1  0.2842702E-009  0.1074955E+03  0.7561462E-02  0.1265279E+00
         -2   -1    0    0    0  501 -0.00000000000E+00  0.00000000000E+00  0.33584456729E+02  0.33584456729E+02  0.00000000000E+00 0.  1.
          2   -1    0    0  501    0  0.00000000000E+00 -0.00000000000E+00 -0.50039965953E+03  0.50039965953E+03  0.00000000000E+00 0. -1.
         25    2    1    2    0    0 -0.64256870453E+01 -0.20427771760E+02 -0.39860898994E+03  0.41832382217E+03  0.12508840883E+03 0.  0.
          5    1    3    3  502    0 -0.60669375733E+02 -0.28864382363E+02 -0.16269896032E+03  0.17607484150E+03  0.41800000000E+01 0. -1.
         -5    1    3    3    0  502  0.54243688688E+02  0.84366106033E+01 -0.23591002962E+03  0.24224898067E+03  0.41800000000E+01 0. -1.
        -11    1    1    2    0    0 -0.19409925300E+02 -0.30131959755E+02 -0.19217909893E+02  0.40669500359E+02  0.00000000000E+00 0.  1.
         11    1    1    2    0    0  0.25835612345E+02  0.50559731515E+02 -0.48988302971E+02  0.74990793729E+02  0.00000000000E+00 0. -1.
</event>
<event>
 7    1  0.2842702E-009  0.2766025E+03  0.7561462E-02  0.1097559E+00
         -1   -1    0    0    0  501 -0.00000000000E+00  0.00000000000E+00  0.47442438268E+03  0.47442438268E+03  0.00000000000E+00 0.  1.
          1   -1    0    0  501    0  0.00000000000E+00 -0.00000000000E+00 -0.20268610311E+03  0.20268610311E+03  0.00000000000E+00 0. -1.
         25    2    1    2    0    0  0.26154402354E+03 -0.40907401672E+02  0.26846969505E+03  0.39724341308E+03  0.12509060843E+03 0.  0.
          5    1    3    3  502    0  0.25359555358E+03 -0.19011590390E+02  0.19627449916E+03  0.32126826296E+03  0.41800000000E+01 0.  1.
         -5    1    3    3    0  502  0.79484699572E+01 -0.21895811282E+02  0.72195195892E+02  0.75975150123E+02  0.41800000000E+01 0.  1.
        -11    1    1    2    0    0 -0.19701050663E+03  0.63235728778E+02  0.24499282635E+02  0.20835573418E+03  0.00000000000E+00 0. -1.
         11    1    1    2    0    0 -0.64533516910E+02 -0.22328327106E+02 -0.21230698117E+02  0.71511338532E+02  0.00000000000E+00 0.  1.
</event>
<event>
 7    1  0.2842702E-009  0.2351235E+03  0.7561462E-02  0.1123085E+00
         -2   -1    0    0    0  501 -0.00000000000E+00  0.00000000000E+00  0.50418888662E+03  0.50418888662E+03  0.00000000000E+00 0.  1.
          2   -1    0    0  501    0  0.00000000000E+00 -0.00000000000E+00 -0.12765843934E+03  0.12765843934E+03  0.00000000000E+00 0. -1.
         25    2    1    2    0    0 -0.22247963141E+03 -0.52109099375E+02  0.21274918237E+03  0.33633666974E+03  0.12509035208E+03 0.  0.
          5    1    3    3  502    0 -0.52592153622E+02  0.14328663519E+02  0.11953079369E+03  0.13143944712E+03  0.41800000000E+01 0.  1.
         -5    1    3    3    0  502 -0.16988747778E+03 -0.66437762894E+02  0.93218388680E+02  0.20489722261E+03  0.41800000000E+01 0.  1.
        -11    1    1    2    0    0  0.17234901417E+03  0.59732764739E+02  0.16326469246E+03  0.24480103282E+03  0.00000000000E+00 0.  1.
         11    1    1    2    0    0  0.50130617235E+02 -0.76236653645E+01  0.51657246507E+00  0.50709623397E+02  0.00000000000E+00 0. -1.
</event>
<event>
 7    1  0.2842702E-009  0.3725012E+03  0.7561462E-02  0.1053741E+00
          2   -1    0    0  501    0  0.00000000000E+00  0.00000000000E+00  0.36168444914E+03  0.36168444914E+03  0.00000000000E+00 0. -1.
         -2   -1    0    0    0  501 -0.00000000000E+00 -0.00000000000E+00 -0.41420370437E+03  0.41420370437E+03  0.00000000000E+00 0.  1.
         25    2    1    2    0    0  0.16427713528E+03  0.33168614288E+03  0.43575588707E+01  0.39072858271E+03  0.12508861850E+03 0.  0.
          5    1    3    3  502    0  0.17422660114E+02  0.69368629532E+02  0.48968057899E+02  0.86780752146E+02  0.41800000000E+01 0. -1.
         -5    1    3    3    0  502  0.14685447517E+03  0.26231751334E+03 -0.44610499028E+02  0.30394783057E+03  0.41800000000E+01 0. -1.
        -11    1    1    2    0    0 -0.10472557123E+03 -0.16233224552E+03 -0.69239363756E+02  0.20521523506E+03  0.00000000000E+00 0. -1.
         11    1    1    2    0    0 -0.59551564048E+02 -0.16935389736E+03  0.12362549652E+02  0.17994433574E+03  0.00000000000E+00 0.  1.
</event>
<event>
 7    1  0.2842702E-009  0.1489813E+03  0.7561462E-02  0.1201730E+00
          2   -1    0    0  501    0  0.00000000000E+00  0.00000000000E+00  0.25125400903E+03  0.25125400903E+03  0.00000000000E+00 0.  1.
         -2   -1    0    0    0  501 -0.00000000000E+00 -0.00000000000E+00 -0.10837170710E+03  0.10837170710E+03  0.00000000000E+00 0. -1.
         25    2    1    2    0    0  0.61300587117E+02 -0.97427331519E+02  0.23832878064E+02  0.17165167703E+03  0.12508575156E+03 0.  0.
          5    1    3    3  502    0  0.62490238981E+02 -0.12249034402E+03  0.11620707539E+01  0.13757811292E+03  0.41800000000E+01 0. -1.
         -5    1    3    3    0  502 -0.11896518637E+01  0.25063012502E+02  0.22670807310E+02  0.34073564112E+02  0.41800000000E+01 0. -1.
        -11    1    1    2    0    0 -0.35290034455E+01  0.71572043769E+02  0.97730118708E+02  0.12118658101E+03  0.00000000000E+00 0.  1.
         11    1    1    2    0    0 -0.57771583672E+02  0.25855287750E+02  0.21319305164E+02  0.66787458084E+02  0.00000000000E+00 0. -1.
</event>
<event>
 7    1  0.2842702E-009  0.1337192E+03  0.7561462E-02  0.1222039E+00
          2   -1    0    0  501    0  0.00000000000E+00  0.00000000000E+00  0.85604146826E+02  0.85604146826E+02  0.00000000000E+00 0. -1.
         -2   -1    0    0    0  501 -0.00000000000E+00 -0.00000000000E+00 -0.35141284277E+03  0.35141284277E+03  0.00000000000E+00 0.  1.
         25    2    1    2    0    0 -0.10651641391E+03 -0.52126255465E+02 -0.22297570376E+03  0.28182953485E+03  0.12508728674E+03 0.  0.
          5    1    3    3  502    0 -0.12192734140E+03 -0.47608118957E+02 -0.12031724862E+03  0.17783847246E+03  0.41800000000E+01 0. -1.
         -5    1    3    3    0  502  0.15410927493E+02 -0.45181365079E+01 -0.10265845514E+03  0.10399106238E+03  0.41800000000E+01 0. -1.
        -11    1    1    2    0    0  0.56527735577E+02  0.37369717050E+02 -0.69134253819E+02  0.96806124253E+02  0.00000000000E+00 0.  1.
         11    1    1    2    0    0  0.49988678331E+02  0.14756538416E+02  0.26301261634E+02  0.58381330499E+02  0.00000000000E+00 0. -1.
</event>
<event>
 7    1  0.2842702E-009  0.1225597E+03  0.7561462E-02  0.1238933E+00
         -1   -1    0    0    0  501 -0.00000000000E+00  0.00000000000E+00  0.12229854043E+02  0.12229854043E+02  0.00000000000E+00 0.  1.
          1   -1    0    0  501    0  0.00000000000E+00 -0.00000000000E+00 -0.16652227418E+04  0.16652227418E+04  0.00000000000E+00 0. -1.
         25    2    1    2    0    0 -0.75300215805E+02 -0.26508941921E+02 -0.11797327883E+04  0.11890329085E+04  0.12512777156E+03 0.  0.
          5    1    3    3  502    0 -0.43372814647E+02 -0.68666366579E+02 -0.93947936843E+03  0.94299269724E+03  0.41800000000E+01 0. -1.
         -5    1    3    3    0  502 -0.31927401158E+02  0.42157424658E+02 -0.24025341988E+03  0.24604021127E+03  0.41800000000E+01 0. -1.
        -11    1    1    2    0    0 -0.15570443485E+02  0.96698799848E+01 -0.26629196146E+02  0.32327378128E+02  0.00000000000E+00 0.  1.
         11    1    1    2    0    0  0.90870659290E+02  0.16839061936E+02 -0.44663090327E+03  0.45609230916E+03  0.00000000000E+00 0. -1.
</event>
<event>
 7    1  0.2842702E-009  0.1191527E+03  0.7561462E-02  0.1244501E+00
          2   -1    0    0  501    0  0.00000000000E+00  0.00000000000E+00  0.12807746515E+03  0.12807746515E+03  0.00000000000E+00 0. -1.
         -2   -1    0    0    0  501 -0.00000000000E+00 -0.00000000000E+00 -0.15092925922E+03  0.15092925922E+03  0.00000000000E+00 0.  1.
         25    2    1    2    0    0 -0.76705214825E+02 -0.44512041787E+02 -0.16863927844E+00  0.15334107257E+03  0.12509374186E+03 0.  0.
          5    1    3    3  502    0  0.22543294248E+02  0.18260177390E+01  0.31722573812E+02  0.39183268694E+02  0.41800000000E+01 0.  1.
         -5    1    3    3    0  502 -0.99248509072E+02 -0.46338059526E+02 -0.31891213090E+02  0.11415780388E+03  0.41800000000E+01 0.  1.
        -11    1    1    2    0    0  0.47405543313E+02  0.56745476139E+02  0.15967287711E+02  0.75645812018E+02  0.00000000000E+00 0. -1.
         11    1    1    2    0    0  0.29299671512E+02 -0.12233434352E+02 -0.38650442503E+02  0.50019839788E+02  0.00000000000E+00 0.  1.
</event>
<event>
 7    1  0.2842702E-009  0.1394195E+03  0.7561462E-02  0.1214112E+00
          3   -1    0    0  501    0  0.00000000000E+00  0.00000000000E+00  0.41817274395E+03  0.41817274395E+03  0.00000000000E+00 0. -1.
         -3   -1    0    0    0  501 -0.00000000000E+00 -0.00000000000E+00 -0.66925183029E+02  0.66925183029E+02  0.00000000000E+00 0.  1.
         25    2    1    2    0    0  0.93605012819E+02  0.60445983858E+02  0.99241596395E+02  0.19471043891E+03  0.12509054791E+03 0.  0.
          5    1    3    3  502    0  0.61223129497E+02  0.99242769448E+02  0.72681518356E+02  0.13746808496E+03  0.41800000000E+01 0. -1.
         -5    1    3    3    0  502  0.32381883322E+02 -0.38796785590E+02  0.26560078039E+02  0.57242353944E+02  0.41800000000E+01 0. -1.
        -11    1    1    2    0    0 -0.37116093417E+02 -0.22645841532E+02  0.20035817640E+03  0.20502155346E+03  0.00000000000E+00 0. -1.
         11    1    1    2    0    0 -0.56488919402E+02 -0.37800142326E+02  0.51647788122E+02  0.85365934616E+02  0.00000000000E+00 0.  1.
</event>
<event>
 7    1  0.2842702E-009  0.1210278E+03  0.7561462E-02  0.1241411E+00
          1   -1    0    0  501    0  0.00000000000E+00  0.00000000000E+00  0.35377969006E+03  0.35377969006E+03  0.00000000000E+00 0. -1.
         -1   -1    0    0    0  501 -0.00000000000E+00 -0.00000000000E+00 -0.67622650290E+02  0.67622650290E+02  0.00000000000E+00 0.  1.
         25    2    1    2    0    0  0.89469979090E+02  0.66435023114E+01  0.68352541506E+02  0.16843256625E+03  0.12509374949E+03 0.  0.
          5    1    3    3  502    0  0.10246532710E+03  0.32238246023E+02  0.16140154535E+02  0.10870337967E+03  0.41800000000E+01 0.  1.
         -5    1    3    3    0  502 -0.12995348007E+02 -0.25594743711E+02  0.52212386972E+02  0.59729186574E+02  0.41800000000E+01 0.  1.
        -11    1    1    2    0    0 -0.57479381960E+02  0.23024606124E+02  0.19320042607E+03  0.20288030085E+03  0.00000000000E+00 0. -1.
         11    1    1    2    0    0 -0.31990597130E+02 -0.29668108436E+02  0.24604072194E+02  0.50089473259E+02  0.00000000000E+00 0.  1.
</event>
<event>
 7    1  0.2842702E-009  0.8905739E+02  0.7561462E-02  0.1305151E+00
          2   -1    0    0  501    0  0.00000000000E+00  0.00000000000E+00  0.33831718392E+03  0.33831718392E+03  0.00000000000E+00 0. -1.
         -2   -1    0    0    0  501 -0.00000000000E+00 -0.00000000000E+00 -0.43723655390E+02  0.43723655390E+02  0.00000000000E+00 0.  1.
         25    2    1    2    0    0 -0.39692884096E+02  0.33202393657E+02  0.21964489861E+03  0.25800891256E+03  0.12508714356E+03 0.  0.
          5    1    3    3  502    0  0.26956790430E+02  0.14564498467E+02  0.36249418737E+01  0.31135281747E+02  0.41800000000E+01 0.  1.
         -5    1    3    3    0  502 -0.66649674526E+02  0.18637895190E+02  0.21601995674E+03  0.22687363082E+03  0.41800000000E+01 0.  1.
        -11    1    1    2    0    0  0.32794964436E+02 -0.49945597239E+02  0.15275676088E+02  0.61671862757E+02  0.00000000000E+00 0.  1.
         11    1    1    2    0    0  0.68979196599E+01  0.16743203582E+02  0.59672953832E+02  0.62360063991E+02  0.00000000000E+00 0. -1.
</event>
<event>
 7    1  0.2842702E-009  0.9550795E+02  0.7561462E-02  0.1290036E+00
          2   -1    0    0  501    0  0.00000000000E+00  0.00000000000E+00  0.57260830047E+03  0.57260830047E+03  0.00000000000E+00 0. -1.
         -2   -1    0    0    0  501 -0.00000000000E+00 -0.00000000000E+00 -0.42808275108E+02  0.42808275108E+02  0.00000000000E+00 0.  1.
         25    2    1    2    0    0  0.37963482281E+02  0.64294189728E+02  0.44952218094E+03  0.47253868876E+03  0.12509057678E+03 0.  0.
          5    1    3    3  502    0 -0.26240632593E+02  0.39740637707E+01  0.18583154996E+02  0.32667568494E+02  0.41800000000E+01 0.  1.
         -5    1    3    3    0  502  0.64204114874E+02  0.60320125957E+02  0.43093902594E+03  0.43987112026E+03  0.41800000000E+01 0.  1.
        -11    1    1    2    0    0 -0.14320024993E+02 -0.12455351472E+02  0.83675197691E+02  0.85800568791E+02  0.00000000000E+00 0. -1.
         11    1    1    2    0    0 -0.23643457288E+02 -0.51838838256E+02 -0.33973532671E+01  0.57077318030E+02  0.00000000000E+00 0.  1.
</event>
<event>
 7    1  0.2842702E-009  0.8893910E+02  0.7561462E-02  0.1305441E+00
          2   -1    0    0  501    0  0.00000000000E+00  0.00000000000E+00  0.55518465802E+02  0.55518465802E+02  0.00000000000E+00 0.  1.
         -2   -1    0    0    0  501 -0.00000000000E+00 -0.00000000000E+00 -0.24244601820E+03  0.24244601820E+03  0.00000000000E+00 0. -1.
         25    2    1    2    0    0 -0.18826834641E+02 -0.16128950735E+02 -0.15119900726E+03  0.19779529626E+03  0.12508895503E+03 0.  0.
          5    1    3    3  502    0  0.54893328421E+01  0.32664805391E+02 -0.13740828242E+03  0.14140590781E+03  0.41800000000E+01 0. -1.
         -5    1    3    3    0  502 -0.24316167483E+02 -0.48793756126E+02 -0.13790724843E+02  0.56389388449E+02  0.41800000000E+01 0. -1.
        -11    1    1    2    0    0  0.10410257407E+02  0.51968557845E+02 -0.34681566513E+02  0.63339683609E+02  0.00000000000E+00 0. -1.
         11    1    1    2    0    0  0.84165772335E+01 -0.35839607110E+02 -0.10469786163E+01  0.36829504129E+02  0.00000000000E+00 0.  1.
</event>
<event>
 7    1  0.2842702E-009  0.1140160E+03  0.7561462E-02  0.1253309E+00
         -4   -1    0    0    0  501 -0.00000000000E+00  0.00000000000E+00  0.64062507095E+03  0.64062507095E+03  0.00000000000E+00 0.  1.
          4   -1    0    0  501    0  0.00000000000E+00 -0.00000000000E+00 -0.26553510133E+02  0.26553510133E+02  0.00000000000E+00 0. -1.
         25    2    1    2    0    0 -0.68142266493E+02 -0.94411271692E+01  0.28368388208E+03  0.31758130241E+03  0.12509530496E+03 0.  0.
          5    1    3    3  502    0  0.18833502931E+02 -0.42392022707E+02  0.12765788178E+03  0.13588889433E+03  0.41800000000E+01 0. -1.
         -5    1    3    3    0  502 -0.86975769424E+02  0.32950895538E+02  0.15602600030E+03  0.18169240808E+03  0.41800000000E+01 0. -1.
        -11    1    1    2    0    0  0.42882436599E+02  0.32769895175E+02  0.29631638785E+03  0.30119125337E+03  0.00000000000E+00 0.  1.
         11    1    1    2    0    0  0.25259829894E+02 -0.23328768006E+02  0.34071290890E+02  0.48406025305E+02  0.00000000000E+00 0. -1.
</event>
<event>
 7    1  0.2842702E-009  0.1451037E+03  0.7561462E-02  0.1206622E+00
          1   -1    0    0  501    0  0.00000000000E+00  0.00000000000E+00  0.28510144177E+03  0.28510144177E+03  0.00000000000E+00 0. -1.
         -1   -1    0    0    0  501 -0.00000000000E+00 -0.00000000000E+00 -0.12650553028E+03  0.12650553028E+03  0.00000000000E+00 0.  1.
         25    2    1    2    0    0  0.34128675576E+02  0.13319153339E+03  0.16102670709E+03  0.24593488168E+03  0.12509841951E+03 0.  0.
          5    1    3    3  502    0  0.15222579593E+02  0.29157704488E+01 -0.17716897819E+02  0.23907938328E+02  0.41800000000E+01 0. -1.
         -5    1    3    3    0  502  0.18906095983E+02  0.13027576295E+03  0.17874360491E+03  0.22202694335E+03  0.41800000000E+01 0. -1.
        -11    1    1    2    0    0 -0.23511419131E+01 -0.83056718319E+02 -0.43212478577E+02  0.93655029929E+02  0.00000000000E+00 0.  1.
         11    1    1    2    0    0 -0.31777533663E+02 -0.50134815075E+02  0.40781682972E+02  0.72017060439E+02  0.00000000000E+00 0. -1.
</event>
<event>
 7    1  0.2842702E-009  0.1599482E+03  0.7561462E-02  0.1188755E+00
          2   -1    0    0  501    0  0.00000000000E+00  0.00000000000E+00  0.52282498527E+02  0.52282498527E+02  0.00000000000E+00 0. -1.
         -2   -1    0    0    0  501 -0.00000000000E+00 -0.00000000000E+00 -0.53902594515E+03  0.53902594515E+03  0.00000000000E+00 0.  1.
         25    2    1    2    0    0  0.18036961022E+02  0.13042475831E+03 -0.27552626881E+03  0.32999794982E+03  0.12509185640E+03 0.  0.
          5    1    3    3  502    0  0.58292139515E+02  0.98400183318E+02 -0.11865244931E+03  0.16485280020E+03  0.41800000000E+01 0. -1.
         -5    1    3    3    0  502 -0.40255178493E+02  0.32024574997E+02 -0.15687381950E+03  0.16514514962E+03  0.41800000000E+01 0. -1.
        -11    1    1    2    0    0  0.31125298200E+02 -0.37694739136E+02 -0.65621992296E+02  0.81828622251E+02  0.00000000000E+00 0.  1.
         11    1    1    2    0    0 -0.49162259222E+02 -0.92730019179E+02 -0.14559518551E+03  0.17948187160E+03  0.00000000000E+00 0. -1.
</event>
<event>
 7    1  0.2842702E-009  0.8419547E+02  0.7561462E-02  0.1317550E+00
          1   -1    0    0  501    0  0.00000000000E+00  0.00000000000E+00  0.36767213867E+03  0.36767213867E+03  0.00000000000E+00 0. -1.
         -1   -1    0    0    0  501 -0.00000000000E+00 -0.00000000000E+00 -0.46481297201E+02  0.46481297201E+02  0.00000000000E+00 0.  1.
         25    2    1    2    0    0 -0.62829726310E+02 -0.33390670092E+02  0.20536602635E+03  0.25076751605E+03  0.12508649396E+03 0.  0.
          5    1    3    3  502    0 -0.56243240134E+02 -0.25937077106E+02  0.20189992174E+02  0.65277424991E+02  0.41800000000E+01 0.  1.
         -5    1    3    3    0  502 -0.65864861765E+01 -0.74535929859E+01  0.18517603418E+03  0.18549009106E+03  0.41800000000E+01 0.  1.
        -11    1    1    2    0    0  0.20187631387E+02 -0.19171864397E+02  0.84189479845E+02  0.88673385872E+02  0.00000000000E+00 0. -1.
         11    1    1    2    0    0  0.42642094923E+02  0.52562534488E+02  0.31635335280E+02  0.74712533952E+02  0.00000000000E+00 0.  1.
</event>
<event>
 7    1  0.2842702E-009  0.1945890E+03  0.7561462E-02  0.1154386E+00
         -2   -1    0    0    0  501 -0.00000000000E+00  0.00000000000E+00  0.25363232282E+02  0.25363232282E+02  0.00000000000E+00 0.  1.
          2   -1    0    0  501    0  0.00000000000E+00 -0.00000000000E+00 -0.16277756106E+04  0.16277756106E+04  0.00000000000E+00 0. -1.
         25    2    1    2    0    0 -0.98076148852E+02 -0.12984269987E+03 -0.10484809110E+04  0.10683816841E+04  0.12509654054E+03 0.  0.
          5    1    3    3  502    0  0.29861238300E+02 -0.28599187283E+02 -0.18466494444E+03  0.18928344136E+03  0.41800000000E+01 0. -1.
         -5    1    3    3    0  502 -0.12793738715E+03 -0.10124351259E+03 -0.86381596654E+03  0.87909824271E+03  0.41800000000E+01 0. -1.
        -11    1    1    2    0    0  0.25941818780E+02  0.10494718272E+03 -0.37405125838E+03  0.38936003008E+03  0.00000000000E+00 0. -1.
         11    1    1    2    0    0  0.72134330072E+02  0.24895517146E+02 -0.17988020893E+03  0.19539712872E+03  0.00000000000E+00 0.  1.
</event>
<event>
 7    1  0.2842702E-009  0.6481474E+02  0.7561462E-02  0.1378670E+00
         -2   -1    0    0    0  501 -0.00000000000E+00  0.00000000000E+00  0.19320890182E+03  0.19320890182E+03  0.00000000000E+00 0.  1.
          2   -1    0    0  501    0  0.00000000000E+00 -0.00000000000E+00 -0.61283496534E+02  0.61283496534E+02  0.00000000000E+00 0. -1.
         25    2    1    2    0    0 -0.14330399663E+02  0.30633658806E+02  0.73243892487E+02  0.14885226384E+03  0.12509415357E+03 0.  0.
          5    1    3    3  502    0  0.18085568200E+02  0.33601057921E+02  0.99612169267E+02  0.10675287133E+03  0.41800000000E+01 0.  1.
         -5    1    3    3    0  502 -0.32415967863E+02 -0.29673991149E+01 -0.26368276780E+02  0.42099392517E+02  0.41800000000E+01 0.  1.
        -11    1    1    2    0    0  0.34028155911E+01 -0.42301046011E+02 -0.23960603948E+01  0.42505279119E+02  0.00000000000E+00 0. -1.
         11    1    1    2    0    0  0.10927584072E+02  0.11667387206E+02  0.61077573195E+02  0.63134855391E+02  0.00000000000E+00 0.  1.
</event>
<event>
 7    1  0.2842702E-009  0.8270459E+02  0.7561462E-02  0.1321547E+00
          2   -1    0    0  501    0  0.00000000000E+00  0.00000000000E+00  0.31609201628E+03  0.31609201628E+03  0.00000000000E+00 0. -1.
         -2   -1    0    0    0  501 -0.00000000000E+00 -0.00000000000E+00 -0.87360005034E+02  0.87360005034E+02  0.00000000000E+00 0.  1.
         25    2    1    2    0    0  0.18397967535E+02 -0.31327263264E+02 -0.26632547892E+02  0.13294686270E+03  0.12508274486E+03 0.  0.
          5    1    3    3  502    0  0.34500041847E+02 -0.50253002468E+02  0.32113791348E+02  0.69024525636E+02  0.41800000000E+01 0. -1.
         -5    1    3    3    0  502 -0.16102074312E+02  0.18925739204E+02 -0.58746339240E+02  0.63922337064E+02  0.41800000000E+01 0. -1.
        -11    1    1    2    0    0 -0.29513042155E+01  0.52677557611E+02  0.22093966823E+03  0.22715187050E+03  0.00000000000E+00 0.  1.
         11    1    1    2    0    0 -0.15446663320E+02 -0.21350294347E+02  0.34424890903E+02  0.43353288111E+02  0.00000000000E+00 0. -1.
</event>
<event>
 7    1  0.2842702E-009  0.9049613E+02  0.7561462E-02  0.1301655E+00
          2   -1    0    0  501    0  0.00000000000E+00  0.00000000000E+00  0.18145168414E+03  0.18145168414E+03  0.00000000000E+00 0. -1.
         -2   -1    0    0    0  501 -0.00000000000E+00 -0.00000000000E+00 -0.68934191053E+02  0.68934191053E+02  0.00000000000E+00 0.  1.
         25    2    1    2    0    0 -0.27437904315E+02 -0.93796181444E+01  0.70786028018E+02  0.14662454640E+03  0.12508908832E+03 0.  0.
          5    1    3    3  502    0  0.19966512630E+02  0.21464174905E+02 -0.22680473024E+02  0.37299446210E+02  0.41800000000E+01 0. -1.
         -5    1    3    3    0  502 -0.47404416946E+02 -0.30843793049E+02  0.93466501042E+02  0.10932510019E+03  0.41800000000E+01 0. -1.
        -11    1    1    2    0    0  0.33023575510E+02  0.46555043461E+02  0.20911760465E+02  0.60788406270E+02  0.00000000000E+00 0. -1.
         11    1    1    2    0    0 -0.55856711949E+01 -0.37175425316E+02  0.20819704606E+02  0.42972922521E+02  0.00000000000E+00 0.  1.
</event>
<event>
 7    1  0.2842702E-009  0.1123965E+03  0.7561462E-02  0.1256195E+00
          2   -1    0    0  501    0  0.00000000000E+00  0.00000000000E+00  0.55461923818E+03  0.55461923818E+03  0.00000000000E+00 0. -1.
         -2   -1    0    0    0  501 -0.00000000000E+00 -0.00000000000E+00 -0.34135490993E+02  0.34135490993E+02  0.00000000000E+00 0.  1.
         25    2    1    2    0    0  0.50697500043E+02 -0.62329495271E+02  0.32957148608E+03  0.36155321149E+03  0.12509259695E+03 0.  0.
          5    1    3    3  502    0  0.17444181687E+02  0.24496807843E+02  0.19844637435E+03  0.20075564490E+03  0.41800000000E+01 0. -1.
         -5    1    3    3    0  502  0.33253318357E+02 -0.86826303114E+02  0.13112511174E+03  0.16079756659E+03  0.41800000000E+01 0. -1.
        -11    1    1    2    0    0 -0.65218229042E+02  0.48167307392E+02  0.78081573717E+02  0.11256215641E+03  0.00000000000E+00 0.  1.
         11    1    1    2    0    0  0.14520728998E+02  0.14162187879E+02  0.11283068739E+03  0.11463936127E+03  0.00000000000E+00 0. -1.
</event>
<event>
 7    1  0.2842702E-009  0.1152157E+03  0.7561462E-02  0.1251205E+00
         -2   -1    0    0    0  501 -0.00000000000E+00  0.00000000000E+00  0.14544153576E+02  0.14544153576E+02  0.00000000000E+00 0.  1.
          2   -1    0    0  501    0  0.00000000000E+00 -0.00000000000E+00 -0.18516399146E+04  0.18516399146E+04  0.00000000000E+00 0. -1.
         25    2    1    2    0    0  0.48396582332E+02 -0.32534858829E+02 -0.15786755283E+04  0.15846974605E+04  0.12509544937E+03 0.  0.
          5    1    3    3  502    0 -0.28228821648E+02  0.11028420684E+02 -0.87162651540E+03  0.87216325719E+03  0.41800000000E+01 0. -1.
         -5    1    3    3    0  502  0.76625403980E+02 -0.43563279513E+02 -0.70704901292E+03  0.71253420334E+03  0.41800000000E+01 0. -1.
        -11    1    1    2    0    0  0.27268607654E+02 -0.40194872814E+01 -0.64183501061E+02  0.69851664617E+02  0.00000000000E+00 0. -1.
         11    1    1    2    0    0 -0.75665189986E+02  0.36554346110E+02 -0.19423673168E+03  0.21163494307E+03  0.00000000000E+00 0.  1.
</event>
<event>
 7    1  0.2842702E-009  0.1258140E+03  0.7561462E-02  0.1233803E+00
          2   -1    0    0  501    0  0.00000000000E+00  0.00000000000E+00  0.15294099781E+04  0.15294099781E+04  0.00000000000E+00 0. -1.
         -2   -1    0    0    0  501 -0.00000000000E+00 -0.00000000000E+00 -0.22751841918E+02  0.22751841918E+02  0.00000000000E+00 0.  1.
         25    2    1    2    0    0  0.75454309431E+02  0.31452605454E+02  0.13181033645E+04  0.13265469919E+04  0.12509125918E+03 0.  0.
          5    1    3    3  502    0  0.19170428026E+02 -0.43876157145E+02  0.27167528443E+03  0.27589410114E+03  0.41800000000E+01 0.  1.
         -5    1    3    3    0  502  0.56283881405E+02  0.75328762599E+02  0.10464280801E+04  0.10506528908E+04  0.41800000000E+01 0.  1.
        -11    1    1    2    0    0  0.32859211117E+01 -0.30515918184E+02  0.13238649788E+02  0.33425744395E+02  0.00000000000E+00 0.  1.
         11    1    1    2    0    0 -0.78740230543E+02 -0.93668726941E+00  0.17531612186E+03  0.19218908365E+03  0.00000000000E+00 0. -1.
</event>
<event>
 7    1  0.2842702E-009  0.6323700E+02  0.7561462E-02  0.1384729E+00
          2   -1    0    0  501    0  0.00000000000E+00  0.00000000000E+00  0.68444752128E+02  0.68444752128E+02  0.00000000000E+00 0. -1.
         -2   -1    0    0    0  501 -0.00000000000E+00 -0.00000000000E+00 -0.27883679851E+03  0.27883679851E+03  0.00000000000E+00 0.  1.
         25    2    1    2    0    0 -0.42668273870E+02 -0.37917653363E+02 -0.35328351629E+02  0.14196661519E+03  0.12509235535E+03 0.  0.
          5    1    3    3  502    0 -0.33433074150E+01 -0.18856822563E+02 -0.78191577553E+02  0.80611119965E+02  0.41800000000E+01 0.  1.
         -5    1    3    3    0  502 -0.39324966455E+02 -0.19060830800E+02  0.42863225925E+02  0.61355495224E+02  0.41800000000E+01 0.  1.
        -11    1    1    2    0    0  0.29667842158E+02  0.40004485361E+02 -0.18319172700E+03  0.18984137734E+03  0.00000000000E+00 0.  1.
         11    1    1    2    0    0  0.13000431713E+02 -0.20868319979E+01  0.81280322479E+01  0.15473558114E+02  0.00000000000E+00 0. -1.
</event>
<event>
 7    1  0.2842702E-009  0.8471000E+02  0.7561462E-02  0.1316193E+00
         -2   -1    0    0    0  501 -0.00000000000E+00  0.00000000000E+00  0.52683019591E+02  0.52683019591E+02  0.00000000000E+00 0. -1.
          2   -1    0    0  501    0  0.00000000000E+00 -0.00000000000E+00 -0.24719492807E+03  0.24719492807E+03  0.00000000000E+00 0.  1.
         25    2    1    2    0    0 -0.11365748714E+02 -0.40085109355E+02 -0.11435822347E+03  0.17453012210E+03  0.12508782519E+03 0.  0.
          5    1    3    3  502    0  0.12379073173E+02 -0.64274388690E+02 -0.12291673885E+03  0.13932133930E+03  0.41800000000E+01 0. -1.
         -5    1    3    3    0  502 -0.23744821886E+02  0.24189279335E+02  0.85585153839E+01  0.35208782807E+02  0.41800000000E+01 0. -1.
        -11    1    1    2    0    0  0.28324639838E+00  0.52806100708E+02 -0.91055950858E+02  0.10526039468E+03  0.00000000000E+00 0.  1.
         11    1    1    2    0    0  0.11082502315E+02 -0.12720991353E+02  0.10902265850E+02  0.20087430877E+02  0.00000000000E+00 0. -1.
</event>
<event>
 7    1  0.2842702E-009  0.1082822E+03  0.7561462E-02  0.1263785E+00
          2   -1    0    0  501    0  0.00000000000E+00  0.00000000000E+00  0.16857831593E+03  0.16857831593E+03  0.00000000000E+00 0.  1.
         -2   -1    0    0    0  501 -0.00000000000E+00 -0.00000000000E+00 -0.95881813106E+02  0.95881813106E+02  0.00000000000E+00 0. -1.
         25    2    1    2    0    0 -0.31226748807E+02 -0.24834306554E+02  0.92830987442E+02  0.16079772026E+03  0.12508581849E+03 0.  0.
          5    1    3    3  502    0 -0.64080691986E+02  0.26302996062E+02  0.59145362755E+02  0.91180200826E+02  0.41800000000E+01 0. -1.
         -5    1    3    3    0  502  0.32853943179E+02 -0.51137302616E+02  0.33685624688E+02  0.69617519432E+02  0.41800000000E+01 0. -1.
        -11    1    1    2    0    0 -0.51444203550E+01  0.44568401639E+02 -0.37803748931E+02  0.58667971831E+02  0.00000000000E+00 0. -1.
         11    1    1    2    0    0  0.36371169162E+02 -0.19734095086E+02  0.17669264315E+02  0.44994436950E+02  0.00000000000E+00 0.  1.
</event>
<event>
 7    1  0.2842702E-009  0.6007444E+02  0.7561462E-02  0.1397520E+00
          1   -1    0    0  501    0  0.00000000000E+00  0.00000000000E+00  0.15596920617E+03  0.15596920617E+03  0.00000000000E+00 0. -1.
         -1   -1    0    0    0  501 -0.00000000000E+00 -0.00000000000E+00 -0.81124849356E+02  0.81124849356E+02  0.00000000000E+00 0.  1.
         25    2    1    2    0    0 -0.25305385791E+01 -0.28127452689E+02  0.45069212276E+02  0.13593275767E+03  0.12509565736E+03 0.  0.
          5    1    3    3  502    0 -0.53952433005E+01  0.25680890076E+02  0.71129942998E+02  0.75931271267E+02  0.41800000000E+01 0.  1.
         -5    1    3    3    0  502  0.28647047214E+01 -0.53808342765E+02 -0.26060730722E+02  0.60001486398E+02  0.41800000000E+01 0.  1.
        -11    1    1    2    0    0  0.14107463744E+02  0.22741033908E+02 -0.29904803348E+02  0.40130691742E+02  0.00000000000E+00 0.  1.
         11    1    1    2    0    0 -0.11576925164E+02  0.53864187817E+01  0.59679947882E+02  0.61030606115E+02  0.00000000000E+00 0. -1.
</event>
<event>
 7    1  0.2842702E-009  0.6473106E+02  0.7561462E-02  0.1378986E+00
         -2   -1    0    0    0  501 -0.00000000000E+00  0.00000000000E+00  0.21780361424E+03  0.21780361424E+03  0.00000000000E+00 0.  1.
          2   -1    0    0  501    0  0.00000000000E+00 -0.00000000000E+00 -0.46897764727E+02  0.46897764727E+02  0.00000000000E+00 0. -1.
         25    2    1    2    0    0 -0.61617756355E+01 -0.84789013903E+01  0.14086397114E+03  0.18867916922E+03  0.12508921330E+03 0.  0.
          5    1    3    3  502    0 -0.16888528565E+02 -0.37889941144E+02 -0.26050730649E+01  0.41774739289E+02  0.41800000000E+01 0.  1.
         -5    1    3    3    0  502  0.10726752930E+02  0.29411039754E+02  0.14346904421E+03  0.14690442993E+03  0.41800000000E+01 0.  1.
        -11    1    1    2    0    0  0.19508670980E+02  0.27027800504E+02  0.39153717584E+02  0.51420850286E+02  0.00000000000E+00 0.  1.
         11    1    1    2    0    0 -0.13346895344E+02 -0.18548899113E+02 -0.91118392102E+01  0.24601359463E+02  0.00000000000E+00 0. -1.
</event>
<event>
 7    1  0.2842702E-009  0.1911482E+03  0.7561462E-02  0.1157430E+00
         -2   -1    0    0    0  501 -0.00000000000E+00  0.00000000000E+00  0.75828102138E+03  0.75828102138E+03  0.00000000000E+00 0.  1.
          2   -1    0    0  501    0  0.00000000000E+00 -0.00000000000E+00 -0.66396273154E+02  0.66396273154E+02  0.00000000000E+00 0. -1.
         25    2    1    2    0    0  0.14353176961E+03 -0.10223888177E+03  0.51504924737E+03  0.55854926463E+03  0.12508955183E+03 0.  0.
          5    1    3    3  502    0  0.62788658905E+02 -0.84234851389E+02  0.14361187550E+03  0.17798811494E+03  0.41800000000E+01 0.  1.
         -5    1    3    3    0  502  0.80743110700E+02 -0.18004030381E+02  0.37143737187E+03  0.38056114969E+03  0.41800000000E+01 0.  1.
        -11    1    1    2    0    0 -0.61050650621E+02 -0.23807050414E+01  0.83489530318E+02  0.10345700252E+03  0.00000000000E+00 0.  1.
         11    1    1    2    0    0 -0.82481118984E+02  0.10461958681E+03  0.93345970543E+02  0.16267102738E+03  0.00000000000E+00 0. -1.
</event>
<event>
 7    1  0.2842702E-009  0.1147852E+03  0.7561462E-02  0.1251956E+00
          1   -1    0    0  501    0  0.00000000000E+00  0.00000000000E+00  0.45278952772E+02  0.45278952772E+02  0.00000000000E+00 0. -1.
         -1   -1    0    0    0  501 -0.00000000000E+00 -0.00000000000E+00 -0.34793760452E+03  0.34793760452E+03  0.00000000000E+00 0.  1.
         25    2    1    2    0    0 -0.41843224336E+02 -0.18478851452E+02 -0.23557055314E+03  0.27061725606E+03  0.12509152809E+03 0.  0.
          5    1    3    3  502    0 -0.65469289606E+02 -0.57572617618E+02 -0.15755893748E+03  0.18011975284E+03  0.41800000000E+01 0.  1.
         -5    1    3    3    0  502  0.23626065270E+02  0.39093766165E+02 -0.78011615652E+02  0.90497503224E+02  0.41800000000E+01 0.  1.
        -11    1    1    2    0    0 -0.15870127781E+01  0.45330055524E+02 -0.52738818836E+02  0.69560876616E+02  0.00000000000E+00 0.  1.
         11    1    1    2    0    0  0.43430237114E+02 -0.26851204071E+02 -0.14349279781E+02  0.53038424619E+02  0.00000000000E+00 0. -1.
</event>
<event>
 7    1  0.2842702E-009  0.1272972E+03  0.7561462E-02  0.1231522E+00
          1   -1    0    0  501    0  0.00000000000E+00  0.00000000000E+00  0.19941947536E+03  0.19941947536E+03  0.00000000000E+00 0. -1.
         -1   -1    0    0    0  501 -0.00000000000E+00 -0.00000000000E+00 -0.93896184317E+02  0.93896184317E+02  0.00000000000E+00 0.  1.
         25    2    1    2    0    0 -0.66358647944E+02  0.55101050292E+02  0.52039741262E+02  0.16060384857E+03  0.12508343457E+03 0.  0.
          5    1    3    3  502    0 -0.29965710412E+02 -0.31215702762E+02 -0.14274423738E+02  0.45755824465E+02  0.41800000000E+01 0.  1.
         -5    1    3    3    0  502 -0.36392937532E+02  0.86316753054E+02  0.66314164999E+02  0.11484802410E+03  0.41800000000E+01 0.  1.
        -11    1    1    2    0    0  0.19743448736E+02  0.20547847718E+02  0.28741905795E+02  0.40473632931E+02  0.00000000000E+00 0. -1.
         11    1    1    2    0    0  0.46615199208E+02 -0.75648898010E+02  0.24741643987E+02  0.92238178183E+02  0.00000000000E+00 0.  1.
</event>
<event>
 7    1  0.2842702E-009  0.1164638E+03  0.7561462E-02  0.1249047E+00
         -2   -1    0    0    0  501 -0.00000000000E+00  0.00000000000E+00  0.53473988984E+03  0.53473988984E+03  0.00000000000E+00 0.  1.
          2   -1    0    0  501    0  0.00000000000E+00 -0.00000000000E+00 -0.40775710607E+02  0.40775710607E+02  0.00000000000E+00 0. -1.
         25    2    1    2    0    0 -0.32315046678E+02 -0.47264184492E+02  0.42416649017E+03  0.44591705343E+03  0.12508653715E+03 0.  0.
          5    1    3    3  502    0 -0.61384445282E+02 -0.72018022612E+02  0.24484954718E+03  0.26253270055E+03  0.41800000000E+01 0. -1.
         -5    1    3    3    0  502  0.29069398604E+02  0.24753838121E+02  0.17931694300E+03  0.18338435288E+03  0.41800000000E+01 0. -1.
        -11    1    1    2    0    0 -0.27234939790E+02  0.77006308793E+01  0.46440468356E+02  0.54385280751E+02  0.00000000000E+00 0.  1.
         11    1    1    2    0    0  0.59549986467E+02  0.39563553613E+02  0.23357220699E+02  0.75213266260E+02  0.00000000000E+00 0. -1.
</event>
<event>
 7    1  0.2842702E-009  0.1098201E+03  0.7561462E-02  0.1260903E+00
         -2   -1    0    0    0  501 -0.00000000000E+00  0.00000000000E+00  0.71075275146E+02  0.71075275146E+02  0.00000000000E+00 0.  1.
          2   -1    0    0  501    0  0.00000000000E+00 -0.00000000000E+00 -0.24001218029E+03  0.24001218029E+03  0.00000000000E+00 0. -1.
         25    2    1    2    0    0  0.37598871531E+02  0.26201069263E+02 -0.15929608631E+03  0.20765904592E+03  0.12508742970E+03 0.  0.
          5    1    3    3  502    0  0.30720239212E+02  0.67926078545E+02 -0.14452022654E+03  0.16266915357E+03  0.41800000000E+01 0.  1.
         -5    1    3    3    0  502  0.68786323197E+01 -0.41725009281E+02 -0.14775859769E+02  0.44989892354E+02  0.41800000000E+01 0.  1.
        -11    1    1    2    0    0 -0.13914698655E+02  0.34564898755E+02 -0.84123688722E+01  0.38198416390E+02  0.00000000000E+00 0.  1.
         11    1    1    2    0    0 -0.23684172876E+02 -0.60765968019E+02 -0.12284499668E+01  0.65229993128E+02  0.00000000000E+00 0. -1.
</event>
<event>
 7    1  0.4873725E-009  0.1243451E+03  0.7561462E-02  0.1236096E+00
         -1   -1    0    0    0  501 -0.00000000000E+00  0.00000000000E+00  0.23971644797E+02  0.23971644797E+02  0.00000000000E+00 0.  1.
          1   -1    0    0  501    0  0.00000000000E+00 -0.00000000000E+00 -0.74050844564E+03  0.74050844564E+03  0.00000000000E+00 0. -1.
         25    2    1    2    0    0  0.44414815575E+02 -0.43493379385E+02 -0.26454078211E+03  0.29917273013E+03  0.12513251842E+03 0.  0.
          5    1    3    3  502    0 -0.21644674245E+02  0.31950430990E+02 -0.62428828647E+02  0.73512944505E+02  0.41800000000E+01 0. -1.
         -5    1    3    3    0  502  0.66059489819E+02 -0.75443810375E+02 -0.20211195346E+03  0.22565978563E+03  0.41800000000E+01 0. -1.
        -11    1    1    2    0    0 -0.60246837699E+02  0.61115556377E+02 -0.32618160054E+03  0.33728212110E+03  0.00000000000E+00 0. -1.
         11    1    1    2    0    0  0.15832022124E+02 -0.17622176991E+02 -0.12581441820E+03  0.12802523921E+03  0.00000000000E+00 0.  1.
</event>
<event>
 7    1  0.2842702E-009  0.1204856E+03  0.7561462E-02  0.1242298E+00
         -1   -1    0    0    0  501 -0.00000000000E+00  0.00000000000E+00  0.69677440812E+02  0.69677440812E+02  0.00000000000E+00 0.  1.
          1   -1    0    0  501    0  0.00000000000E+00 -0.00000000000E+00 -0.34041977848E+03  0.34041977848E+03  0.00000000000E+00 0. -1.
         25    2    1    2    0    0 -0.55857604752E+02  0.80779012712E+02 -0.20286290839E+03  0.25777111568E+03  0.12508903860E+03 0.  0.
          5    1    3    3  502    0 -0.74921180620E+02  0.83879182183E+02 -0.20874635149E+03  0.23715271908E+03  0.41800000000E+01 0. -1.
         -5    1    3    3    0  502  0.19063575868E+02 -0.31001694706E+01  0.58834430997E+01  0.20618396599E+02  0.41800000000E+01 0. -1.
        -11    1    1    2    0    0  0.29279170560E+02 -0.68026552038E+01 -0.67311174453E+02  0.73717977134E+02  0.00000000000E+00 0. -1.
         11    1    1    2    0    0  0.26578434192E+02 -0.73976357508E+02 -0.56825482643E+00  0.78608126475E+02  0.00000000000E+00 0.  1.
</event>
<event>
 7    1  0.2842702E-009  0.2145846E+03  0.7561462E-02  0.1137986E+00
          1   -1    0    0  501    0  0.00000000000E+00  0.00000000000E+00  0.10336764271E+04  0.10336764271E+04  0.00000000000E+00 0. -1.
         -1   -1    0    0    0  501 -0.00000000000E+00 -0.00000000000E+00 -0.54072461996E+02  0.54072461996E+02  0.00000000000E+00 0.  1.
         25    2    1    2    0    0 -0.80921007732E+02 -0.18041536494E+03  0.66673651174E+03  0.70660073445E+03  0.12509639658E+03 0.  0.
          5    1    3    3  502    0  0.14199624631E+02 -0.11223897205E+03  0.26562372087E+03  0.28874322447E+03  0.41800000000E+01 0.  1.
         -5    1    3    3    0  502 -0.95120632363E+02 -0.68176392889E+02  0.40111279087E+03  0.41785750998E+03  0.41800000000E+01 0.  1.
        -11    1    1    2    0    0  0.65744577431E+02  0.12301509466E+03  0.28111915830E+03  0.31382008243E+03  0.00000000000E+00 0. -1.
         11    1    1    2    0    0  0.15176430301E+02  0.57400270283E+02  0.31748295018E+02  0.67328072167E+02  0.00000000000E+00 0.  1.
</event>
<event>
 7    1  0.2842702E-009  0.1627468E+03  0.7561462E-02  0.1185630E+00
         -4   -1    0    0    0  501 -0.00000000000E+00  0.00000000000E+00  0.49971829229E+02  0.49971829229E+02  0.00000000000E+00 0. -1.
          4   -1    0    0  501    0  0.00000000000E+00 -0.00000000000E+00 -0.65445915708E+03  0.65445915708E+03  0.00000000000E+00 0.  1.
         25    2    1    2    0    0 -0.99418604583E+02  0.97806571064E+02 -0.24106643256E+03  0.30530411799E+03  0.12508954904E+03 0.  0.
          5    1    3    3  502    0 -0.87318290565E+02  0.12692941675E+03 -0.18446675066E+03  0.24037681919E+03  0.41800000000E+01 0.  1.
         -5    1    3    3    0  502 -0.12100314017E+02 -0.29122845682E+02 -0.56599681892E+02  0.64927298806E+02  0.41800000000E+01 0.  1.
        -11    1    1    2    0    0  0.28978588763E+02 -0.25248047036E+02 -0.22180739958E+03  0.22511273841E+03  0.00000000000E+00 0.  1.
         11    1    1    2    0    0  0.70440015819E+02 -0.72558524028E+02 -0.14161349571E+03  0.17401412990E+03  0.00000000000E+00 0. -1.
</event>
<event>
 7    1  0.2842702E-009  0.1598860E+03  0.7561462E-02  0.1188826E+00
          1   -1    0    0  501    0  0.00000000000E+00  0.00000000000E+00  0.22970833012E+03  0.22970833012E+03  0.00000000000E+00 0. -1.
         -1   -1    0    0    0  501 -0.00000000000E+00 -0.00000000000E+00 -0.11850810903E+03  0.11850810903E+03  0.00000000000E+00 0.  1.
         25    2    1    2    0    0 -0.10924690041E+03  0.51750108207E+02  0.87914813392E+02  0.19490286808E+03  0.12508059251E+03 0.  0.
          5    1    3    3  502    0  0.17468785019E+02 -0.16665189159E+02 -0.27904012239E+01  0.24660610673E+02  0.41800000000E+01 0.  1.
         -5    1    3    3    0  502 -0.12671568543E+03  0.68415297366E+02  0.90705214616E+02  0.17024225740E+03  0.41800000000E+01 0.  1.
        -11    1    1    2    0    0 -0.15673002943E+02  0.77123497600E+00  0.55573352082E+01  0.16646975679E+02  0.00000000000E+00 0. -1.
         11    1    1    2    0    0  0.12491990335E+03 -0.52521343183E+02  0.17728072493E+02  0.13666659540E+03  0.00000000000E+00 0.  1.
</event>
<event>
 7    1  0.2842702E-009  0.1028156E+03  0.7561462E-02  0.1274484E+00
         -1   -1    0    0    0  501 -0.00000000000E+00  0.00000000000E+00  0.47071853026E+02  0.47071853026E+02  0.00000000000E+00 0.  1.
          1   -1    0    0  501    0  0.00000000000E+00 -0.00000000000E+00 -0.36073202733E+03  0.36073202733E+03  0.00000000000E+00 0. -1.
         25    2    1    2    0    0 -0.57370842660E+02  0.22542679997E+02 -0.23050223209E+03  0.26940396763E+03  0.12509049831E+03 0.  0.
          5    1    3    3  502    0 -0.50582950366E+02  0.72700203820E+02 -0.14716417741E+03  0.17181013363E+03  0.41800000000E+01 0. -1.
         -5    1    3    3    0  502 -0.67878922935E+01 -0.50157523823E+02 -0.83338054681E+02  0.97593834005E+02  0.41800000000E+01 0. -1.
        -11    1    1    2    0    0  0.29412460208E+02 -0.24319568876E+02  0.11358571070E+02  0.39818982692E+02  0.00000000000E+00 0.  1.
         11    1    1    2    0    0  0.27958382451E+02  0.17768888791E+01 -0.94516513285E+02  0.98580930037E+02  0.00000000000E+00 0. -1.
</event>
<event>
 7    1  0.2842702E-009  0.1062022E+03  0.7561462E-02  0.1267769E+00
          1   -1    0    0  501    0  0.00000000000E+00  0.00000000000E+00  0.23896389219E+03  0.23896389219E+03  0.00000000000E+00 0. -1.
         -1   -1    0    0    0  501 -0.00000000000E+00 -0.00000000000E+00 -0.59437639849E+02  0.59437639849E+02  0.00000000000E+00 0.  1.
         25    2    1    2    0    0  0.40646962006E+02  0.33691276504E+02  0.79216311758E+02  0.15719434205E+03  0.12509020541E+03 0.  0.
          5    1    3    3  502    0  0.83438075873E+02  0.62333273541E+01  0.39922741372E+02  0.92801209874E+02  0.41800000000E+01 0.  1.
         -5    1    3    3    0  502 -0.42791113868E+02  0.27457949150E+02  0.39293570386E+02  0.64393132175E+02  0.41800000000E+01 0.  1.
        -11    1    1    2    0    0 -0.25887790083E+02 -0.49578203280E+02  0.10504925701E+03  0.11901059749E+03  0.00000000000E+00 0. -1.
         11    1    1    2    0    0 -0.14759171923E+02  0.15886926776E+02 -0.47393164337E+01  0.22196592497E+02  0.00000000000E+00 0.  1.
</event>
<event>
 7    1  0.2842702E-009  0.1664405E+03  0.7561462E-02  0.1181612E+00
          2   -1    0    0  501    0  0.00000000000E+00  0.00000000000E+00  0.68808454012E+03  0.68808454012E+03  0.00000000000E+00 0. -1.
         -2   -1    0    0    0  501 -0.00000000000E+00 -0.00000000000E+00 -0.52487621912E+02  0.52487621912E+02  0.00000000000E+00 0.  1.
         25    2    1    2    0    0 -0.52852985375E+02 -0.12337049344E+03  0.17758574713E+03  0.25533709475E+03  0.12508644073E+03 0.  0.
          5    1    3    3  502    0 -0.87726264173E+02 -0.11141400911E+03  0.16131740289E+03  0.21482494205E+03  0.41800000000E+01 0.  1.
         -5    1    3    3    0  502  0.34873278797E+02 -0.11956484325E+02  0.16268344238E+02  0.40512152692E+02  0.41800000000E+01 0.  1.
        -11    1    1    2    0    0  0.32530896212E+02  0.39454670813E+01  0.51362161713E+02  0.60925344272E+02  0.00000000000E+00 0.  1.
         11    1    1    2    0    0  0.20322089164E+02  0.11942502635E+03  0.40664900937E+03  0.42430972302E+03  0.00000000000E+00 0. -1.
</event>
<event>
 7    1  0.2842702E-009  0.1073200E+03  0.7561462E-02  0.1265615E+00
         -1   -1    0    0    0  501 -0.00000000000E+00  0.00000000000E+00  0.34478041766E+02  0.34478041766E+02  0.00000000000E+00 0. -1.
          1   -1    0    0  501    0  0.00000000000E+00 -0.00000000000E+00 -0.51360287452E+03  0.51360287452E+03  0.00000000000E+00 0.  1.
         25    2    1    2    0    0  0.47754801141E+02  0.57590342669E+02 -0.27759433932E+03  0.31353170583E+03  0.12508534981E+03 0.  0.
          5    1    3    3  502    0  0.42060429488E+02  0.70192507387E+02 -0.77068006214E+02  0.11248563377E+03  0.41800000000E+01 0.  1.
         -5    1    3    3    0  502  0.56943716528E+01 -0.12602164718E+02 -0.20052633310E+03  0.20104607206E+03  0.41800000000E+01 0.  1.
        -11    1    1    2    0    0 -0.58780992882E+01  0.24986545803E+02 -0.28875963603E+02  0.38635486232E+02  0.00000000000E+00 0.  1.
         11    1    1    2    0    0 -0.41876701852E+02 -0.82576888472E+02 -0.17265452983E+03  0.19591372422E+03  0.00000000000E+00 0. -1.
</event>
<event>
 6    1  0.4100152E-009  0.1072518E+03  0.7561462E-02  0.1265745E+00
         -1   -1    0    0    0  501 -0.00000000000E+00  0.00000000000E+00  0.91702266382E+02  0.91702266382E+02  0.00000000000E+00 0.  1.
          1   -1    0    0  501    0  0.00000000000E+00 -0.00000000000E+00 -0.19342291822E+03  0.19342291822E+03  0.00000000000E+00 0. -1.
          5    1    1    2  502    0  0.59245452937E+02  0.88920758508E+02 -0.76556197187E+02  0.13151140146E+03  0.41800000000E+01 0. -1.
         -5    1    1    2    0  502 -0.18256285644E+02 -0.29177145733E+02 -0.80133222090E+01  0.35584877848E+02  0.41800000000E+01 0. -1.
        -11    1    1    2    0    0 -0.33488554678E+02 -0.42591043936E+02  0.33724186787E+02  0.63818501177E+02  0.00000000000E+00 0.  1.
         11    1    1    2    0    0 -0.75006126156E+01 -0.17152568838E+02 -0.50875319226E+02  0.54210404110E+02  0.00000000000E+00 0. -1.
</event>
<event>
 7    1  0.2842702E-009  0.1689784E+03  0.7561462E-02  0.1178917E+00
         -2   -1    0    0    0  501 -0.00000000000E+00  0.00000000000E+00  0.58346137278E+02  0.58346137278E+02  0.00000000000E+00 0.  1.
          2   -1    0    0  501    0  0.00000000000E+00 -0.00000000000E+00 -0.62431641093E+03  0.62431641093E+03  0.00000000000E+00 0. -1.
         25    2    1    2    0    0 -0.52072482289E+02 -0.14755768049E+03 -0.30452786567E+03  0.36451245440E+03  0.12508915204E+03 0.  0.
          5    1    3    3  502    0 -0.19613503765E+02 -0.44013361704E+02 -0.22440990680E+03  0.22956294172E+03  0.41800000000E+01 0. -1.
         -5    1    3    3    0  502 -0.32458978524E+02 -0.10354431878E+03 -0.80117958865E+02  0.13494951268E+03  0.41800000000E+01 0. -1.
        -11    1    1    2    0    0 -0.20134156813E+02  0.78651976975E+02 -0.10826939626E+03  0.13532841505E+03  0.00000000000E+00 0. -1.
         11    1    1    2    0    0  0.72206639102E+02  0.68905703513E+02 -0.15317301172E+03  0.18282167877E+03  0.00000000000E+00 0.  1.
</event>
<event>
 7    1  0.2842702E-009  0.1184743E+03  0.7561462E-02  0.1245635E+00
          2   -1    0    0  501    0  0.00000000000E+00  0.00000000000E+00  0.40713237011E+03  0.40713237011E+03  0.00000000000E+00 0.  1.
         -2   -1    0    0    0  501 -0.00000000000E+00 -0.00000000000E+00 -0.47727645157E+02  0.47727645157E+02  0.00000000000E+00 0. -1.
         25    2    1    2    0    0 -0.41727295467E+02 -0.42258363695E+02  0.92961290818E+02  0.16678204242E+03  0.12509001396E+03 0.  0.
          5    1    3    3  502    0  0.32321197566E+02  0.16032652214E+02  0.53192817415E+02  0.64410045596E+02  0.41800000000E+01 0. -1.
         -5    1    3    3    0  502 -0.74048493033E+02 -0.58291015909E+02  0.39768473403E+02  0.10237199682E+03  0.41800000000E+01 0. -1.
        -11    1    1    2    0    0  0.15924533972E+02  0.68005379806E+02  0.13955168725E+03  0.15605446447E+03  0.00000000000E+00 0.  1.
         11    1    1    2    0    0  0.25802761495E+02 -0.25747016111E+02  0.12689174688E+03  0.13202350838E+03  0.00000000000E+00 0. -1.
</event>
<event>
 7    1  0.2842702E-009  0.4659468E+03  0.7561462E-02  0.1023070E+00
         -2   -1    0    0    0  501 -0.00000000000E+00  0.00000000000E+00  0.61428668061E+03  0.61428668061E+03  0.00000000000E+00 0.  1.
          2   -1    0    0  501    0  0.00000000000E+00 -0.00000000000E+00 -0.37052745436E+03  0.37052745436E+03  0.00000000000E+00 0. -1.
         25    2    1    2    0    0 -0.15330429994E+03 -0.43560689698E+03  0.16860590239E+03  0.50728026327E+03  0.12509891332E+03 0.  0.
          5    1    3    3  502    0 -0.64992896861E+01 -0.23824593345E+02 -0.19101312404E+02  0.31498961095E+02  0.41800000000E+01 0. -1.
         -5    1    3    3    0  502 -0.14680501025E+03 -0.41178230363E+03  0.18770721479E+03  0.47578130218E+03  0.41800000000E+01 0. -1.
        -11    1    1    2    0    0  0.52423686541E+02  0.27533130543E+03  0.23645714526E+02  0.28127333766E+03  0.00000000000E+00 0.  1.
         11    1    1    2    0    0  0.10088061339E+03  0.16027559154E+03  0.51507609336E+02  0.19626053404E+03  0.00000000000E+00 0. -1.
</event>
<event>
 7    1  0.2842702E-009  0.5775752E+02  0.7561462E-02  0.1407491E+00
         -1   -1    0    0    0  501 -0.00000000000E+00  0.00000000000E+00  0.18923702169E+03  0.18923702169E+03  0.00000000000E+00 0.  1.
          1   -1    0    0  501    0  0.00000000000E+00 -0.00000000000E+00 -0.98705807827E+02  0.98705807827E+02  0.00000000000E+00 0. -1.
         25    2    1    2    0    0  0.13127465236E+02 -0.18345564273E+02 -0.36860529051E+02  0.13234422059E+03  0.12508958409E+03 0.  0.
          5    1    3    3  502    0  0.39222339605E+02  0.32676107242E+01  0.34968796253E+02  0.52814376029E+02  0.41800000000E+01 0. -1.
         -5    1    3    3    0  502 -0.26094874370E+02 -0.21613174997E+02 -0.71829325304E+02  0.79529844558E+02  0.41800000000E+01 0. -1.
        -11    1    1    2    0    0 -0.25323381279E+02  0.11535664593E+02  0.13624711997E+03  0.13905978174E+03  0.00000000000E+00 0.  1.
         11    1    1    2    0    0  0.12195916043E+02  0.68098996797E+01 -0.88553770621E+01  0.16538827186E+02  0.00000000000E+00 0. -1.
</event>
<event>
 7    1  0.2842702E-009  0.8996893E+02  0.7561462E-02  0.1302927E+00
          1   -1    0    0  501    0  0.00000000000E+00  0.00000000000E+00  0.21353829844E+03  0.21353829844E+03  0.00000000000E+00 0. -1.
         -1   -1    0    0    0  501 -0.00000000000E+00 -0.00000000000E+00 -0.83920402434E+02  0.83920402434E+02  0.00000000000E+00 0.  1.
         25    2    1    2    0    0 -0.36628171670E+02 -0.69085798825E+02  0.69296754536E+02  0.16298937968E+03  0.12509607164E+03 0.  0.
          5    1    3    3  502    0 -0.40055424428E+01 -0.44174551357E+02  0.10137147314E+03  0.11072977614E+03  0.41800000000E+01 0. -1.
         -5    1    3    3    0  502 -0.32622629227E+02 -0.24911247468E+02 -0.32074718605E+02  0.52259603536E+02  0.41800000000E+01 0. -1.
        -11    1    1    2    0    0  0.47758503848E+02  0.67786514349E+02  0.77801459806E+02  0.11370555556E+03  0.00000000000E+00 0. -1.
         11    1    1    2    0    0 -0.11130332178E+02  0.12992844753E+01 -0.17480318331E+02  0.20763765638E+02  0.00000000000E+00 0.  1.
</event>
<event>
 7    1  0.2842702E-009  0.1511157E+03  0.7561462E-02  0.1199109E+00
          2   -1    0    0  501    0  0.00000000000E+00  0.00000000000E+00  0.48484584444E+03  0.48484584444E+03  0.00000000000E+00 0. -1.
         -2   -1    0    0    0  501 -0.00000000000E+00 -0.00000000000E+00 -0.47833045833E+02  0.47833045833E+02  0.00000000000E+00 0.  1.
         25    2    1    2    0    0  0.98740299894E+02  0.39629827093E+02  0.25223428430E+03  0.30098124200E+03  0.12508958326E+03 0.  0.
          5    1    3    3  502    0  0.46651110011E+02  0.82778215795E+02  0.12803239450E+03  0.15949396702E+03  0.41800000000E+01 0. -1.
         -5    1    3    3    0  502  0.52089189882E+02 -0.43148388703E+02  0.12420188981E+03  0.14148727498E+03  0.41800000000E+01 0. -1.
        -11    1    1    2    0    0 -0.23821668050E+02  0.29152761126E+02  0.42062060269E+02  0.56449732188E+02  0.00000000000E+00 0.  1.
         11    1    1    2    0    0 -0.74918631844E+02 -0.68782588219E+02  0.14271645404E+03  0.17524791609E+03  0.00000000000E+00 0. -1.
</event>
<event>
 7    1  0.2842702E-009  0.1061549E+03  0.7561462E-02  0.1267861E+00
          3   -1    0    0  501    0  0.00000000000E+00  0.00000000000E+00  0.13259207509E+03  0.13259207509E+03  0.00000000000E+00 0. -1.
         -3   -1    0    0    0  501 -0.00000000000E+00 -0.00000000000E+00 -0.10456234676E+03  0.10456234676E+03  0.00000000000E+00 0.  1.
         25    2    1    2    0    0  0.33532234487E+02 -0.19655502112E+02  0.40499127604E+02  0.13710958670E+03  0.12509240551E+03 0.  0.
          5    1    3    3  502    0  0.42860264573E+02 -0.63472809202E+02  0.19346124276E+00  0.76702735378E+02  0.41800000000E+01 0. -1.
         -5    1    3    3    0  502 -0.93280300860E+01  0.43817307090E+02  0.40305666361E+02  0.60406851323E+02  0.41800000000E+01 0. -1.
        -11    1    1    2    0    0 -0.43923700807E+02 -0.20975263350E+02 -0.26998059717E+02  0.55661013228E+02  0.00000000000E+00 0.  1.
         11    1    1    2    0    0  0.10391466320E+02  0.40630765462E+02  0.14528660435E+02  0.44383821922E+02  0.00000000000E+00 0. -1.
</event>
<event>
 7    1  0.2842702E-009  0.2004340E+03  0.7561462E-02  0.1149373E+00
         -1   -1    0    0    0  501 -0.00000000000E+00  0.00000000000E+00  0.17544474670E+04  0.17544474670E+04  0.00000000000E+00 0.  1.
          1   -1    0    0  501    0  0.00000000000E+00 -0.00000000000E+00 -0.54086918611E+02  0.54086918611E+02  0.00000000000E+00 0. -1.
         25    2    1    2    0    0 -0.67920944513E+02 -0.17833949675E+03  0.14972925684E+04  0.15145799407E+04  0.12509648495E+03 0.  0.
          5    1    3    3  502    0 -0.54261033778E+02 -0.57019653317E+02  0.27135579195E+03  0.28257200653E+03  0.41800000000E+01 0. -1.
         -5    1    3    3    0  502 -0.13659910734E+02 -0.12131984343E+03  0.12259367764E+04  0.12320079341E+04  0.41800000000E+01 0. -1.
        -11    1    1    2    0    0  0.41077510109E+02  0.16476268692E+03  0.12667022875E+03  0.21184770872E+03  0.00000000000E+00 0. -1.
         11    1    1    2    0    0  0.26843434404E+02  0.13576809831E+02  0.76397751244E+02  0.82106736209E+02  0.00000000000E+00 0.  1.
</event>
<event>
 7    1  0.2842702E-009  0.9333556E+02  0.7561462E-02  0.1294969E+00
         -1   -1    0    0    0  501 -0.00000000000E+00  0.00000000000E+00  0.36850162684E+02  0.36850162684E+02  0.00000000000E+00 0. -1.
          1   -1    0    0  501    0  0.00000000000E+00 -0.00000000000E+00 -0.70808163379E+03  0.70808163379E+03  0.00000000000E+00 0.  1.
         25    2    1    2    0    0  0.41385110618E+02 -0.65254535913E+02 -0.57271261574E+03  0.59128519659E+03  0.12509021399E+03 0.  0.
          5    1    3    3  502    0  0.59466157700E+02 -0.68213212067E+02 -0.21797945295E+03  0.23605461343E+03  0.41800000000E+01 0. -1.
         -5    1    3    3    0  502 -0.18081047082E+02  0.29586761541E+01 -0.35473316279E+03  0.35523058316E+03  0.41800000000E+01 0. -1.
        -11    1    1    2    0    0 -0.32198834260E+02  0.49512011354E+02 -0.11486772306E+03  0.12916190614E+03  0.00000000000E+00 0.  1.
         11    1    1    2    0    0 -0.91862763580E+01  0.15742524559E+02  0.16348867698E+02  0.24484693746E+02  0.00000000000E+00 0. -1.
</event>
<event>
 7    1  0.2842702E-009  0.1339665E+03  0.7561462E-02  0.1221686E+00
         -3   -1    0    0    0  501 -0.00000000000E+00  0.00000000000E+00  0.51915479465E+02  0.51915479465E+02  0.00000000000E+00 0.  1.
          3   -1    0    0  501    0  0.00000000000E+00 -0.00000000000E+00 -0.52770931256E+03  0.52770931256E+03  0.00000000000E+00 0. -1.
         25    2    1    2    0    0 -0.19535247294E+02 -0.91990646000E+02 -0.39567068191E+03  0.42549192574E+03  0.12507671848E+03 0.  0.
          5    1    3    3  502    0 -0.56937275144E+02 -0.10017147475E+03 -0.32737729494E+03  0.34708722722E+03  0.41800000000E+01 0. -1.
         -5    1    3    3    0  502  0.37402027851E+02  0.81808287464E+01 -0.68293386969E+02  0.78404698520E+02  0.41800000000E+01 0. -1.
        -11    1    1    2    0    0 -0.23960266957E+02  0.35399508081E+02  0.50093351233E+01  0.43038506054E+02  0.00000000000E+00 0.  1.
         11    1    1    2    0    0  0.43495514251E+02  0.56591137919E+02 -0.85132486310E+02  0.11109436024E+03  0.00000000000E+00 0. -1.
</event>
<event>
 7    1  0.2842702E-009  0.8969126E+02  0.7561462E-02  0.1303601E+00
         -4   -1    0    0    0  501 -0.00000000000E+00  0.00000000000E+00  0.23538039572E+03  0.23538039572E+03  0.00000000000E+00 0.  1.
          4   -1    0    0  501    0  0.00000000000E+00 -0.00000000000E+00 -0.50672959878E+02  0.50672959878E+02  0.00000000000E+00 0. -1.
         25    2    1    2    0    0  0.11034935118E+02  0.90160370318E+01  0.11135832338E+03  0.16807936206E+03  0.12508771742E+03 0.  0.
          5    1    3    3  502    0 -0.20093658095E+02  0.57545720636E+02  0.84664933484E+02  0.10440731977E+03  0.41800000000E+01 0.  1.
         -5    1    3    3    0  502  0.31128593213E+02 -0.48529683605E+02  0.26693389896E+02  0.63672042297E+02  0.41800000000E+01 0.  1.
        -11    1    1    2    0    0  0.17966331263E+02  0.14543612962E+02 -0.11089553763E+02  0.25637549409E+02  0.00000000000E+00 0. -1.
         11    1    1    2    0    0 -0.29001266380E+02 -0.23559649994E+02  0.84438666225E+02  0.92336444123E+02  0.00000000000E+00 0.  1.
</event>
<event>
 7    1  0.2842702E-009  0.5837183E+02  0.7561462E-02  0.1404794E+00
          2   -1    0    0  501    0  0.00000000000E+00  0.00000000000E+00  0.55232876477E+03  0.55232876477E+03  0.00000000000E+00 0. -1.
         -2   -1    0    0    0  501 -0.00000000000E+00 -0.00000000000E+00 -0.30549047957E+02  0.30549047957E+02  0.00000000000E+00 0.  1.
         25    2    1    2    0    0  0.19122539168E+02  0.10045541711E+02  0.44149681909E+03  0.45938371095E+03  0.12508944081E+03 0.  0.
          5    1    3    3  502    0  0.38359921021E+02  0.22127660760E+02  0.43220292277E+03  0.43448585220E+03  0.41800000000E+01 0.  1.
         -5    1    3    3    0  502 -0.19237381852E+02 -0.12082119049E+02  0.92938963220E+01  0.24897858745E+02  0.41800000000E+01 0.  1.
        -11    1    1    2    0    0 -0.17559526500E+02 -0.26961855804E+02 -0.83550601529E+01  0.33242828842E+02  0.00000000000E+00 0.  1.
         11    1    1    2    0    0 -0.15630126688E+01  0.16916314093E+02  0.88637957874E+02  0.90251272940E+02  0.00000000000E+00 0. -1.
</event>
<event>
 7    1  0.2842702E-009  0.1759598E+03  0.7561462E-02  0.1171771E+00
          2   -1    0    0  501    0  0.00000000000E+00  0.00000000000E+00  0.43335172950E+03  0.43335172950E+03  0.00000000000E+00 0. -1.
         -2   -1    0    0    0  501 -0.00000000000E+00 -0.00000000000E+00 -0.96536646696E+02  0.96536646696E+02  0.00000000000E+00 0.  1.
         25    2    1    2    0    0  0.44745010484E+02 -0.13857547195E+03  0.29828903259E+03  0.35472438363E+03  0.12509102283E+03 0.  0.
          5    1    3    3  502    0  0.67895709026E+02 -0.22011975689E+02  0.90734848147E+02  0.11551900037E+03  0.41800000000E+01 0.  1.
         -5    1    3    3    0  502 -0.23150698542E+02 -0.11656349626E+03  0.20755418444E+03  0.23920538326E+03  0.41800000000E+01 0.  1.
        -11    1    1    2    0    0  0.18828968779E+02  0.24316389108E+02 -0.14581326463E+02  0.34035744827E+02  0.00000000000E+00 0.  1.
         11    1    1    2    0    0 -0.63573979263E+02  0.11425908284E+03  0.53107376679E+02  0.14112824774E+03  0.00000000000E+00 0. -1.
</event>
<event>
 7    1  0.2842702E-009  0.1028986E+03  0.7561462E-02  0.1274316E+00
          1   -1    0    0  501    0  0.00000000000E+00  0.00000000000E+00  0.23597326348E+03  0.23597326348E+03  0.00000000000E+00 0. -1.
         -1   -1    0    0    0  501 -0.00000000000E+00 -0.00000000000E+00 -0.50842788375E+02  0.50842788375E+02  0.00000000000E+00 0.  1.
         25    2    1    2    0    0  0.24501742956E+01  0.27830766162E+01  0.79837164217E+02  0.14844632474E+03  0.12509432309E+03 0.  0.
          5    1    3    3  502    0 -0.18886440648E+02  0.58926718077E+02  0.56427978525E+02  0.83848940984E+02  0.41800000000E+01 0. -1.
         -5    1    3    3    0  502  0.21336614943E+02 -0.56143641461E+02  0.23409185693E+02  0.64597383759E+02  0.41800000000E+01 0. -1.
        -11    1    1    2    0    0  0.39797711470E+02 -0.91746304486E+01  0.76884533189E+02  0.87058963500E+02  0.00000000000E+00 0.  1.
         11    1    1    2    0    0 -0.42247885766E+02  0.63915538324E+01  0.28408777698E+02  0.51310763611E+02  0.00000000000E+00 0. -1.
</event>
<event>
 7    1  0.2842702E-009  0.1176570E+03  0.7561462E-02  0.1247013E+00
         -2   -1    0    0    0  501 -0.00000000000E+00  0.00000000000E+00  0.24813880771E+02  0.24813880771E+02  0.00000000000E+00 0.  1.
          2   -1    0    0  501    0  0.00000000000E+00 -0.00000000000E+00 -0.59832439343E+03  0.59832439343E+03  0.00000000000E+00 0. -1.
         25    2    1    2    0    0  0.27623318018E+02 -0.43308200143E+02 -0.35474294295E+03  0.37963765738E+03  0.12507416770E+03 0.  0.
          5    1    3    3  502    0 -0.15166288974E+02 -0.74036693486E+02 -0.14779546196E+03  0.16604944830E+03  0.41800000000E+01 0.  1.
         -5    1    3    3    0  502  0.42789606991E+02  0.30728493343E+02 -0.20694748099E+03  0.21358820908E+03  0.41800000000E+01 0.  1.
        -11    1    1    2    0    0 -0.62578365451E+02  0.25862590994E+02 -0.13248018285E+03  0.14878146485E+03  0.00000000000E+00 0. -1.
         11    1    1    2    0    0  0.34955047433E+02  0.17445609149E+02 -0.86287386862E+02  0.94719151977E+02  0.00000000000E+00 0.  1.
</event>
<event>
 7    1  0.2842702E-009  0.1744226E+03  0.7561462E-02  0.1173313E+00
         -1   -1    0    0    0  501 -0.00000000000E+00  0.00000000000E+00  0.13846337656E+03  0.13846337656E+03  0.00000000000E+00 0.  1.
          1   -1    0    0  501    0  0.00000000000E+00 -0.00000000000E+00 -0.38314479702E+03  0.38314479702E+03  0.00000000000E+00 0. -1.
         25    2    1    2    0    0  0.14097782538E+03 -0.50384078334E+02 -0.28277614782E+03  0.34354437685E+03  0.12508831479E+03 0.  0.
          5    1    3    3  502    0  0.58748615579E+02  0.41046311793E+02 -0.95700799302E+02  0.11963408766E+03  0.41800000000E+01 0. -1.
         -5    1    3    3    0  502  0.82229209798E+02 -0.91430390128E+02 -0.18707534851E+03  0.22391028919E+03  0.41800000000E+01 0. -1.
        -11    1    1    2    0    0 -0.96563444669E+02  0.16070438636E+02 -0.17067850154E+02  0.99368351869E+02  0.00000000000E+00 0. -1.
         11    1    1    2    0    0 -0.44414380707E+02  0.34313639698E+02  0.55162577508E+02  0.78695444851E+02  0.00000000000E+00 0.  1.
</event>
<event>
 7    1  0.2842702E-009  0.1883244E+03  0.7561462E-02  0.1159981E+00
          3   -1    0    0  501    0  0.00000000000E+00  0.00000000000E+00  0.48108246957E+03  0.48108246957E+03  0.00000000000E+00 0. -1.
         -3   -1    0    0    0  501 -0.00000000000E+00 -0.00000000000E+00 -0.83838576751E+02  0.83838576751E+02  0.00000000000E+00 0.  1.
         25    2    1    2    0    0 -0.87871713402E+02 -0.14539948651E+03  0.17387482923E+03  0.27339186117E+03  0.12509278485E+03 0.  0.
          5    1    3    3  502    0  0.25671040944E+02 -0.40002243659E+02  0.77133028036E+02  0.90698171177E+02  0.41800000000E+01 0. -1.
         -5    1    3    3    0  502 -0.11354275435E+03 -0.10539724285E+03  0.96741801195E+02  0.18269368999E+03  0.41800000000E+01 0. -1.
        -11    1    1    2    0    0  0.18280312185E+02  0.65485569998E+02  0.37683180373E+02  0.77733852179E+02  0.00000000000E+00 0.  1.
         11    1    1    2    0    0  0.69591401217E+02  0.79913916511E+02  0.18568588322E+03  0.21379533297E+03  0.00000000000E+00 0. -1.
</event>
<event>
 7    1  0.3859196E-009  0.9710535E+02  0.7561462E-02  0.1286504E+00
          2   -1    0    0  501    0  0.00000000000E+00  0.00000000000E+00  0.23577659150E+03  0.23577659150E+03  0.00000000000E+00 0. -1.
         -2   -1    0    0    0  501 -0.00000000000E+00 -0.00000000000E+00 -0.74865629528E+02  0.74865629528E+02  0.00000000000E+00 0.  1.
         25    2    1    2    0    0 -0.35785903412E+02  0.55223068931E+02  0.43438109568E+02  0.14786640765E+03  0.12508951564E+03 0.  0.
          5    1    3    3  502    0 -0.47764275671E+02 -0.19174649567E+02 -0.13443268822E+02  0.53359976508E+02  0.41800000000E+01 0. -1.
         -5    1    3    3    0  502  0.11978372259E+02  0.74397718498E+02  0.56881378389E+02  0.94506431142E+02  0.41800000000E+01 0. -1.
        -11    1    1    2    0    0  0.87150189710E+01 -0.25250949368E+02 -0.10408204714E+02  0.28668671491E+02  0.00000000000E+00 0.  1.
         11    1    1    2    0    0  0.27070884441E+02 -0.29972119563E+02  0.12788105712E+03  0.13410714189E+03  0.00000000000E+00 0. -1.
</event>
<event>
 7    1  0.2842702E-009  0.6101241E+02  0.7561462E-02  0.1393632E+00
          1   -1    0    0  501    0  0.00000000000E+00  0.00000000000E+00  0.13890465070E+03  0.13890465070E+03  0.00000000000E+00 0. -1.
         -1   -1    0    0    0  501 -0.00000000000E+00 -0.00000000000E+00 -0.10423367231E+03  0.10423367231E+03  0.00000000000E+00 0.  1.
         25    2    1    2    0    0  0.65274063274E+01 -0.23008862495E+02 -0.19507399375E+02  0.12884379546E+03  0.12509264651E+03 0.  0.
          5    1    3    3  502    0  0.12160396093E+02 -0.28073313050E+02  0.50018385084E+02  0.58781777662E+02  0.41800000000E+01 0. -1.
         -5    1    3    3    0  502 -0.56329897653E+01  0.50644505550E+01 -0.69525784459E+02  0.70062017797E+02  0.41800000000E+01 0. -1.
        -11    1    1    2    0    0 -0.42779098361E+02  0.96006370872E+01  0.60922746717E+02  0.75058674093E+02  0.00000000000E+00 0. -1.
         11    1    1    2    0    0  0.36251692033E+02  0.13408225408E+02 -0.67443689614E+01  0.39235853458E+02  0.00000000000E+00 0.  1.
</event>
<event>
 7    1  0.2842702E-009  0.1779230E+03  0.7561462E-02  0.1169828E+00
          1   -1    0    0  501    0  0.00000000000E+00  0.00000000000E+00  0.55878377815E+03  0.55878377815E+03  0.00000000000E+00 0. -1.
         -1   -1    0    0    0  501 -0.00000000000E+00 -0.00000000000E+00 -0.64606029463E+02  0.64606029463E+02  0.00000000000E+00 0.  1.
         25    2    1    2    0    0  0.13675231300E+03 -0.62734326783E+02  0.32668042863E+03  0.38079892234E+03  0.12510366078E+03 0.  0.
          5    1    3    3  502    0  0.50096624970E+02  0.27389159495E+02  0.45776322184E+02  0.73299263052E+02  0.41800000000E+01 0. -1.
         -5    1    3    3    0  502  0.86655688033E+02 -0.90123486278E+02  0.28090410644E+03  0.30749965929E+03  0.41800000000E+01 0. -1.
        -11    1    1    2    0    0 -0.87596557949E+02 -0.73431149698E+01  0.66656935229E+02  0.11031874417E+03  0.00000000000E+00 0.  1.
         11    1    1    2    0    0 -0.49155755055E+02  0.70077441753E+02  0.10084038483E+03  0.13227214110E+03  0.00000000000E+00 0. -1.
</event>
<event>
 7    1  0.2842702E-009  0.1086406E+03  0.7561462E-02  0.1263108E+00
         -2   -1    0    0    0  501 -0.00000000000E+00  0.00000000000E+00  0.51714304036E+02  0.51714304036E+02  0.00000000000E+00 0.  1.
          2   -1    0    0  501    0  0.00000000000E+00 -0.00000000000E+00 -0.28734573983E+03  0.28734573983E+03  0.00000000000E+00 0. -1.
         25    2    1    2    0    0 -0.38355737814E+02  0.10672242359E+02 -0.83617954655E+02  0.15564121914E+03  0.12508863807E+03 0.  0.
          5    1    3    3  502    0 -0.37588110874E+02  0.64462042182E+02 -0.33147812671E+02  0.81758613285E+02  0.41800000000E+01 0.  1.
         -5    1    3    3    0  502 -0.76762694047E+00 -0.53789799823E+02 -0.50470141984E+02  0.73882605856E+02  0.41800000000E+01 0.  1.
        -11    1    1    2    0    0  0.34591454400E+02 -0.43481007744E+02 -0.45226881865E+02  0.71642428736E+02  0.00000000000E+00 0.  1.
         11    1    1    2    0    0  0.37642834143E+01  0.32808765385E+02 -0.10678659928E+03  0.11177639599E+03  0.00000000000E+00 0. -1.
</event>
<event>
 7    1  0.2842702E-009  0.1490037E+03  0.7561462E-02  0.1201703E+00
         -2   -1    0    0    0  501 -0.00000000000E+00  0.00000000000E+00  0.23809657829E+03  0.23809657829E+03  0.00000000000E+00 0.  1.
          2   -1    0    0  501    0  0.00000000000E+00 -0.00000000000E+00 -0.17524044926E+03  0.17524044926E+03  0.00000000000E+00 0. -1.
         25    2    1    2    0    0 -0.12062446470E+03  0.26358201338E+02  0.15501781185E+03  0.23436344213E+03  0.12510269682E+03 0.  0.
          5    1    3    3  502    0 -0.11001020601E+03  0.51052711865E+02  0.16549049719E+03  0.20521501377E+03  0.41800000000E+01 0.  1.
         -5    1    3    3    0  502 -0.10614258692E+02 -0.24694510527E+02 -0.10472685336E+02  0.29148428361E+02  0.41800000000E+01 0.  1.
        -11    1    1    2    0    0  0.10070847517E+02 -0.37040914349E+02 -0.70111403048E+01  0.39020602172E+02  0.00000000000E+00 0.  1.
         11    1    1    2    0    0  0.11055361719E+03  0.10682713011E+02 -0.85150542515E+02  0.13995298325E+03  0.00000000000E+00 0. -1.
</event>
<event>
 7    1  0.2842702E-009  0.1105488E+03  0.7561462E-02  0.1259557E+00
          2   -1    0    0  501    0  0.00000000000E+00  0.00000000000E+00  0.96637304653E+03  0.96637304653E+03  0.00000000000E+00 0. -1.
         -2   -1    0    0    0  501 -0.00000000000E+00 -0.00000000000E+00 -0.17404524644E+02  0.17404524644E+02  0.00000000000E+00 0.  1.
         25    2    1    2    0    0 -0.60651424288E+02  0.29521728447E+02  0.60985011599E+03  0.62619051785E+03  0.12508906008E+03 0.  0.
          5    1    3    3  502    0 -0.36244163572E+02 -0.39668450433E+02  0.12974393122E+03  0.14049265262E+03  0.41800000000E+01 0.  1.
         -5    1    3    3    0  502 -0.24407260715E+02  0.69190178880E+02  0.48010618477E+03  0.48569786523E+03  0.41800000000E+01 0.  1.
        -11    1    1    2    0    0 -0.14096264947E+02 -0.30893576375E+01  0.68197912956E+01  0.15961151882E+02  0.00000000000E+00 0.  1.
         11    1    1    2    0    0  0.74747689235E+02 -0.26432370810E+02  0.33229861460E+03  0.34162590144E+03  0.00000000000E+00 0. -1.
</event>
<event>
 7    1  0.2842702E-009  0.7331676E+02  0.7561462E-02  0.1349164E+00
         -2   -1    0    0    0  501 -0.00000000000E+00  0.00000000000E+00  0.10013404993E+02  0.10013404993E+02  0.00000000000E+00 0.  1.
          2   -1    0    0  501    0  0.00000000000E+00 -0.00000000000E+00 -0.14270562698E+04  0.14270562698E+04  0.00000000000E+00 0. -1.
         25    2    1    2    0    0  0.33969634285E+02 -0.15642129278E+02 -0.10358848379E+04  0.10440805175E+04  0.12509243532E+03 0.  0.
          5    1    3    3  502    0  0.26274180859E+02  0.71284496653E+01 -0.44092429492E+02  0.51988095877E+02  0.41800000000E+01 0.  1.
         -5    1    3    3    0  502  0.76954534261E+01 -0.22770578943E+02 -0.99179240836E+03  0.99209242158E+03  0.41800000000E+01 0.  1.
        -11    1    1    2    0    0  0.13692027819E+01 -0.33851405284E+02 -0.16481227415E+03  0.16825836700E+03  0.00000000000E+00 0. -1.
         11    1    1    2    0    0 -0.35338837067E+02  0.49493534561E+02 -0.21634575284E+03  0.22473079037E+03  0.00000000000E+00 0.  1.
</event>
<event>
 7    1  0.2842702E-009  0.1190018E+03  0.7561462E-02  0.1244753E+00
          1   -1    0    0  501    0  0.00000000000E+00  0.00000000000E+00  0.22349461497E+03  0.22349461497E+03  0.00000000000E+00 0. -1.
         -1   -1    0    0    0  501 -0.00000000000E+00 -0.00000000000E+00 -0.80542716626E+02  0.80542716626E+02  0.00000000000E+00 0.  1.
         25    2    1    2    0    0  0.47998891138E+01  0.60874700429E+02  0.13661406873E+03  0.19503646128E+03  0.12508816636E+03 0.  0.
          5    1    3    3  502    0  0.32793056518E+01 -0.38863408229E+02  0.34727664564E+02  0.52388943784E+02  0.41800000000E+01 0. -1.
         -5    1    3    3    0  502  0.15205834620E+01  0.99738108658E+02  0.10188640417E+03  0.14264751749E+03  0.41800000000E+01 0. -1.
        -11    1    1    2    0    0 -0.36320794410E+02 -0.56430298926E+02 -0.17357680188E+02  0.69317153757E+02  0.00000000000E+00 0.  1.
         11    1    1    2    0    0  0.31520905296E+02 -0.44444015029E+01  0.23695509798E+02  0.39683716560E+02  0.00000000000E+00 0. -1.
</event>
<event>
 7    1  0.2842702E-009  0.8745865E+02  0.7561462E-02  0.1309125E+00
          1   -1    0    0  501    0  0.00000000000E+00  0.00000000000E+00  0.35663656914E+03  0.35663656914E+03  0.00000000000E+00 0.  1.
         -1   -1    0    0    0  501 -0.00000000000E+00 -0.00000000000E+00 -0.35520477930E+02  0.35520477930E+02  0.00000000000E+00 0. -1.
         25    2    1    2    0    0 -0.42418379530E+01  0.30967226820E+02  0.19377800794E+03  0.23277462247E+03  0.12512851866E+03 0.  0.
          5    1    3    3  502    0  0.38661656498E+02 -0.24286087127E+02  0.30426493766E+02  0.55025281771E+02  0.41800000000E+01 0. -1.
         -5    1    3    3    0  502 -0.42903494451E+02  0.55253313947E+02  0.16335151417E+03  0.17774934070E+03  0.41800000000E+01 0. -1.
        -11    1    1    2    0    0  0.22901249245E+02 -0.76517238869E-01  0.12049303769E+03  0.12265009256E+03  0.00000000000E+00 0.  1.
         11    1    1    2    0    0 -0.18659411292E+02 -0.30890709581E+02  0.68450455841E+01  0.36732332042E+02  0.00000000000E+00 0. -1.
</event>
<event>
 7    1  0.2842702E-009  0.1124679E+03  0.7561462E-02  0.1256067E+00
          1   -1    0    0  501    0  0.00000000000E+00  0.00000000000E+00  0.47430819124E+02  0.47430819124E+02  0.00000000000E+00 0. -1.
         -1   -1    0    0    0  501 -0.00000000000E+00 -0.00000000000E+00 -0.30303070108E+03  0.30303070108E+03  0.00000000000E+00 0.  1.
         25    2    1    2    0    0  0.50218301135E+00  0.44146879375E+02 -0.18247717182E+03  0.22559666499E+03  0.12508692127E+03 0.  0.
          5    1    3    3  502    0 -0.57901923395E+02  0.80962410170E+01 -0.53139976596E+02  0.79117073783E+02  0.41800000000E+01 0.  1.
         -5    1    3    3    0  502  0.58404106406E+02  0.36050638358E+02 -0.12933719522E+03  0.14647959120E+03  0.41800000000E+01 0.  1.
        -11    1    1    2    0    0  0.68186043604E+01 -0.70183300913E+02 -0.66709650049E+02  0.97068875043E+02  0.00000000000E+00 0.  1.
         11    1    1    2    0    0 -0.73207873718E+01  0.26036421538E+02 -0.64130600913E+01  0.27795980177E+02  0.00000000000E+00 0. -1.
</event>
<event>
 7    1  0.2842702E-009  0.3607674E+03  0.7561462E-02  0.1058280E+00
          1   -1    0    0  501    0  0.00000000000E+00  0.00000000000E+00  0.15570221163E+03  0.15570221163E+03  0.00000000000E+00 0. -1.
         -1   -1    0    0    0  501 -0.00000000000E+00 -0.00000000000E+00 -0.88194071847E+03  0.88194071847E+03  0.00000000000E+00 0.  1.
         25    2    1    2    0    0  0.24197329074E+03  0.24871858705E+03 -0.46615335495E+03  0.59443932539E+03  0.12508857768E+03 0.  0.
          5    1    3    3  502    0  0.13799292382E+03  0.21199673586E+03 -0.27460329375E+03  0.37337528624E+03  0.41800000000E+01 0.  1.
         -5    1    3    3    0  502  0.10398036691E+03  0.36721851194E+02 -0.19155006120E+03  0.22106403915E+03  0.41800000000E+01 0.  1.
        -11    1    1    2    0    0 -0.12066454731E+03 -0.18579062208E+03 -0.17390756984E+03  0.28164149389E+03  0.00000000000E+00 0. -1.
         11    1    1    2    0    0 -0.12130874343E+03 -0.62927964969E+02 -0.86177582042E+02  0.16156211082E+03  0.00000000000E+00 0.  1.
</event>
<event>
 7    1  0.2842702E-009  0.5727734E+02  0.7561462E-02  0.1409626E+00
         -2   -1    0    0    0  501 -0.00000000000E+00  0.00000000000E+00  0.35369926581E+02  0.35369926581E+02  0.00000000000E+00 0. -1.
          2   -1    0    0  501    0  0.00000000000E+00 -0.00000000000E+00 -0.39564881897E+03  0.39564881897E+03  0.00000000000E+00 0.  1.
         25    2    1    2    0    0 -0.15325076282E+02  0.38855347510E+02 -0.23879576790E+03  0.27279163536E+03  0.12508901456E+03 0.  0.
          5    1    3    3  502    0  0.61893247327E+01  0.31468515571E+02  0.53388764182E+00  0.32347065538E+02  0.41800000000E+01 0.  1.
         -5    1    3    3    0  502 -0.21514401014E+02  0.73868319390E+01 -0.23932965554E+03  0.24044456983E+03  0.41800000000E+01 0.  1.
        -11    1    1    2    0    0  0.26058842518E+02 -0.93477562234E+01  0.48010434717E+01  0.28097932988E+02  0.00000000000E+00 0. -1.
         11    1    1    2    0    0 -0.10733766236E+02 -0.29507591286E+02 -0.12628416796E+03  0.13012917720E+03  0.00000000000E+00 0.  1.
</event>
<event>
 7    1  0.2842702E-009  0.1294315E+03  0.7561462E-02  0.1228302E+00
         -1   -1    0    0    0  501 -0.00000000000E+00  0.00000000000E+00  0.13252000894E+03  0.13252000894E+03  0.00000000000E+00 0.  1.
          1   -1    0    0  501    0  0.00000000000E+00 -0.00000000000E+00 -0.30309183481E+03  0.30309183481E+03  0.00000000000E+00 0. -1.
         25    2    1    2    0    0  0.91413487386E+02 -0.31371908324E+01  0.64077278218E+02  0.16769187951E+03  0.12509356989E+03 0.  0.
          5    1    3    3  502    0  0.87052093366E+02 -0.54588743297E+02  0.47688556501E+02  0.11335637907E+03  0.41800000000E+01 0. -1.
         -5    1    3    3    0  502  0.43613940202E+01  0.51451552464E+02  0.16388721717E+02  0.54335500442E+02  0.41800000000E+01 0. -1.
        -11    1    1    2    0    0 -0.79545947732E+02 -0.16534884750E+02 -0.23072604671E+03  0.24461289591E+03  0.00000000000E+00 0. -1.
         11    1    1    2    0    0 -0.11867539654E+02  0.19672075583E+02 -0.39230573732E+01  0.23307068334E+02  0.00000000000E+00 0.  1.
</event>
<event>
 7    1  0.2842702E-009  0.7618858E+02  0.7561462E-02  0.1340229E+00
          2   -1    0    0  501    0  0.00000000000E+00  0.00000000000E+00  0.63481778008E+03  0.63481778008E+03  0.00000000000E+00 0. -1.
         -2   -1    0    0    0  501 -0.00000000000E+00 -0.00000000000E+00 -0.25567768468E+02  0.25567768468E+02  0.00000000000E+00 0.  1.
         25    2    1    2    0    0 -0.52063663425E+01  0.16358276811E+01  0.51699997470E+03  0.53194413831E+03  0.12508321335E+03 0.  0.
          5    1    3    3  502    0  0.32182138991E+02  0.38903264853E+02  0.10531036771E+03  0.11686274015E+03  0.41800000000E+01 0. -1.
         -5    1    3    3    0  502 -0.37388505333E+02 -0.37267437172E+02  0.41168960699E+03  0.41508139817E+03  0.41800000000E+01 0. -1.
        -11    1    1    2    0    0  0.26969573764E+02 -0.92685270507E+00  0.10132082024E+03  0.10485287588E+03  0.00000000000E+00 0. -1.
         11    1    1    2    0    0 -0.21763207422E+02 -0.70897497605E+00 -0.90707833326E+01  0.23588534356E+02  0.00000000000E+00 0.  1.
</event>
<event>
 7    1  0.2842702E-009  0.1062929E+03  0.7561462E-02  0.1267593E+00
         -1   -1    0    0    0  501 -0.00000000000E+00  0.00000000000E+00  0.14300773059E+03  0.14300773059E+03  0.00000000000E+00 0.  1.
          1   -1    0    0  501    0  0.00000000000E+00 -0.00000000000E+00 -0.15253893323E+03  0.15253893323E+03  0.00000000000E+00 0. -1.
         25    2    1    2    0    0 -0.59178479710E+02 -0.57612807923E+02  0.51077564069E+02  0.15835504915E+03  0.12508427536E+03 0.  0.
          5    1    3    3  502    0  0.26358741296E+02 -0.36800139206E+01 -0.20955484877E+02  0.34131078090E+02  0.41800000000E+01 0.  1.
         -5    1    3    3    0  502 -0.85537221005E+02 -0.53932794002E+02  0.72033048946E+02  0.12422397106E+03  0.41800000000E+01 0.  1.
        -11    1    1    2    0    0  0.26906942887E+01  0.10630385508E+02 -0.62737114336E+02  0.63688228480E+02  0.00000000000E+00 0. -1.
         11    1    1    2    0    0  0.56487785421E+02  0.46982422415E+02  0.21283476332E+01  0.73503386190E+02  0.00000000000E+00 0.  1.
</event>
<event>
 7    1  0.2842702E-009  0.9844099E+02  0.7561462E-02  0.1283609E+00
         -2   -1    0    0    0  501 -0.00000000000E+00  0.00000000000E+00  0.67264779509E+02  0.67264779509E+02  0.00000000000E+00 0.  1.
          2   -1    0    0  501    0  0.00000000000E+00 -0.00000000000E+00 -0.33753202396E+03  0.33753202396E+03  0.00000000000E+00 0. -1.
         25    2    1    2    0    0 -0.31044046286E+02  0.47387296450E+02 -0.28446614773E+02  0.14024321272E+03  0.12509860171E+03 0.  0.
          5    1    3    3  502    0 -0.66373958202E+02  0.20621824588E+02 -0.54711484727E+02  0.88552701471E+02  0.41800000000E+01 0.  1.
         -5    1    3    3    0  502  0.35329911916E+02  0.26765471862E+02  0.26264869954E+02  0.51690511254E+02  0.41800000000E+01 0.  1.
        -11    1    1    2    0    0  0.46981003440E+02 -0.20032466525E+02 -0.54949638075E+02  0.75019844867E+02  0.00000000000E+00 0.  1.
         11    1    1    2    0    0 -0.15936957154E+02 -0.27354829925E+02 -0.18687099160E+03  0.18953374588E+03  0.00000000000E+00 0. -1.
</event>
<event>
 7    1  0.2842702E-009  0.1346296E+03  0.7561462E-02  0.1220744E+00
          2   -1    0    0  501    0  0.00000000000E+00  0.00000000000E+00  0.29912198196E+03  0.29912198196E+03  0.00000000000E+00 0. -1.
         -2   -1    0    0    0  501 -0.00000000000E+00 -0.00000000000E+00 -0.14560315000E+03  0.14560315000E+03  0.00000000000E+00 0.  1.
         25    2    1    2    0    0  0.12042470025E+03  0.42558464259E+01  0.22988100719E+03  0.28811998793E+03  0.12509048452E+03 0.  0.
          5    1    3    3  502    0  0.79813978989E+02  0.33156607073E+02  0.46891038848E+02  0.98416836765E+02  0.41800000000E+01 0.  1.
         -5    1    3    3    0  502  0.40610721260E+02 -0.28900760647E+02  0.18298996835E+03  0.18970315117E+03  0.41800000000E+01 0.  1.
        -11    1    1    2    0    0 -0.73738590541E+02 -0.29754998068E+02 -0.26832376664E+02  0.83920891812E+02  0.00000000000E+00 0. -1.
         11    1    1    2    0    0 -0.46686109708E+02  0.25499151642E+02 -0.49529798568E+02  0.72684252217E+02  0.00000000000E+00 0.  1.
</event>
<event>
 7    1  0.2842702E-009  0.1121604E+03  0.7561462E-02  0.1256621E+00
         -1   -1    0    0    0  501 -0.00000000000E+00  0.00000000000E+00  0.12332137681E+03  0.12332137681E+03  0.00000000000E+00 0.  1.
          1   -1    0    0  501    0  0.00000000000E+00 -0.00000000000E+00 -0.14287462144E+03  0.14287462144E+03  0.00000000000E+00 0. -1.
         25    2    1    2    0    0  0.37180738798E+02  0.65161843705E+02 -0.31156836660E+02  0.14914663476E+03  0.12508196104E+03 0.  0.
          5    1    3    3  502    0  0.59147983710E+02  0.29220429618E+02 -0.66674534303E+02  0.93889740699E+02  0.41800000000E+01 0. -1.
         -5    1    3    3    0  502 -0.21967244912E+02  0.35941414088E+02  0.35517697643E+02  0.55256894063E+02  0.41800000000E+01 0. -1.
        -11    1    1    2    0    0  0.94983597411E+01 -0.68436773745E+02  0.12662703337E+02  0.70243539875E+02  0.00000000000E+00 0.  1.
         11    1    1    2    0    0 -0.46679098539E+02  0.32749300396E+01 -0.10591113143E+01  0.46805823611E+02  0.00000000000E+00 0. -1.
</event>
<event>
 7    1  0.2842702E-009  0.1046949E+03  0.7561462E-02  0.1270722E+00
         -2   -1    0    0    0  501 -0.00000000000E+00  0.00000000000E+00  0.34504124043E+02  0.34504124043E+02  0.00000000000E+00 0. -1.
          2   -1    0    0  501    0  0.00000000000E+00 -0.00000000000E+00 -0.43984094375E+03  0.43984094375E+03  0.00000000000E+00 0.  1.
         25    2    1    2    0    0 -0.59858841236E+02  0.61339265891E+01 -0.22978536861E+03  0.26845522538E+03  0.12508471720E+03 0.  0.
          5    1    3    3  502    0  0.31090540665E+02  0.15303565505E+02 -0.12285124237E+03  0.12771343308E+03  0.41800000000E+01 0.  1.
         -5    1    3    3    0  502 -0.90949381901E+02 -0.91696389156E+01 -0.10693412624E+03  0.14074179230E+03  0.41800000000E+01 0.  1.
        -11    1    1    2    0    0  0.70858876125E+02 -0.10623035804E+01 -0.17963401624E+03  0.19310745352E+03  0.00000000000E+00 0.  1.
         11    1    1    2    0    0 -0.11000034889E+02 -0.50716230087E+01  0.40825651498E+01  0.12782388889E+02  0.00000000000E+00 0. -1.
</event>
<event>
 7    1  0.2842702E-009  0.8680018E+02  0.7561462E-02  0.1310791E+00
          4   -1    0    0  501    0  0.00000000000E+00  0.00000000000E+00  0.12991393718E+03  0.12991393718E+03  0.00000000000E+00 0. -1.
         -4   -1    0    0    0  501 -0.00000000000E+00 -0.00000000000E+00 -0.10371481734E+03  0.10371481734E+03  0.00000000000E+00 0.  1.
         25    2    1    2    0    0  0.25041889868E+02  0.24927018426E+02 -0.77997834150E+01  0.13021114760E+03  0.12508258809E+03 0.  0.
          5    1    3    3  502    0 -0.38381922532E+02 -0.22604411938E+02  0.15737551266E+02  0.47426515117E+02  0.41800000000E+01 0.  1.
         -5    1    3    3    0  502  0.63423812400E+02  0.47531430364E+02 -0.23537334681E+02  0.82784632485E+02  0.41800000000E+01 0.  1.
        -11    1    1    2    0    0 -0.18576781260E+02 -0.33767879610E+02 -0.23330101907E+02  0.45051749692E+02  0.00000000000E+00 0.  1.
         11    1    1    2    0    0 -0.64651086082E+01  0.88408611842E+01  0.57329005164E+02  0.58365857219E+02  0.00000000000E+00 0. -1.
</event>
<event>
 7    1  0.2842702E-009  0.1183782E+03  0.7561462E-02  0.1245797E+00
          2   -1    0    0  501    0  0.00000000000E+00  0.00000000000E+00  0.12423666382E+03  0.12423666382E+03  0.00000000000E+00 0. -1.
         -2   -1    0    0    0  501 -0.00000000000E+00 -0.00000000000E+00 -0.11643538025E+03  0.11643538025E+03  0.00000000000E+00 0.  1.
         25    2    1    2    0    0 -0.49941066510E+02  0.14097142591E+02 -0.55230069712E-01  0.13542903558E+03  0.12509268993E+03 0.  0.
          5    1    3    3  502    0  0.25194516927E+02 -0.35092858141E+02 -0.11238338836E+02  0.44833525798E+02  0.41800000000E+01 0. -1.
         -5    1    3    3    0  502 -0.75135583436E+02  0.49190000732E+02  0.11183108767E+02  0.90595509779E+02  0.41800000000E+01 0. -1.
        -11    1    1    2    0    0 -0.25500484694E+02 -0.11478021047E+02 -0.57232371301E+01  0.28544266150E+02  0.00000000000E+00 0. -1.
         11    1    1    2    0    0  0.75441551204E+02 -0.26191215443E+01  0.13579750768E+02  0.76698742341E+02  0.00000000000E+00 0.  1.
</event>
<event>
 7    1  0.2842702E-009  0.1397948E+03  0.7561462E-02  0.1213605E+00
         -1   -1    0    0    0  501 -0.00000000000E+00  0.00000000000E+00  0.60762666787E+02  0.60762666787E+02  0.00000000000E+00 0.  1.
          1   -1    0    0  501    0  0.00000000000E+00 -0.00000000000E+00 -0.44810391613E+03  0.44810391613E+03  0.00000000000E+00 0. -1.
         25    2    1    2    0    0 -0.11338412734E+03  0.40277931198E+02 -0.15833200814E+03  0.23493508482E+03  0.12508875730E+03 0.  0.
          5    1    3    3  502    0 -0.10345199832E+03 -0.13494528911E+02 -0.55145209849E+02  0.11807999338E+03  0.41800000000E+01 0.  1.
         -5    1    3    3    0  502 -0.99321290121E+01  0.53772460109E+02 -0.10318679829E+03  0.11685509144E+03  0.41800000000E+01 0.  1.
        -11    1    1    2    0    0  0.16259256710E+02 -0.51930489569E+01  0.53020518087E+01  0.17872966727E+02  0.00000000000E+00 0.  1.
         11    1    1    2    0    0  0.97124870627E+02 -0.35084882241E+02 -0.23431129301E+03  0.25605853137E+03  0.00000000000E+00 0. -1.
</event>
<event>
 7    1  0.2842702E-009  0.1241462E+03  0.7561462E-02  0.1236410E+00
          2   -1    0    0  501    0  0.00000000000E+00  0.00000000000E+00  0.13507371893E+04  0.13507371893E+04  0.00000000000E+00 0. -1.
         -2   -1    0    0    0  501 -0.00000000000E+00 -0.00000000000E+00 -0.11422973915E+02  0.11422973915E+02  0.00000000000E+00 0.  1.
         25    2    1    2    0    0 -0.56745906828E+02 -0.17710901683E+02  0.74411135856E+03  0.75689225352E+03  0.12510154082E+03 0.  0.
          5    1    3    3  502    0 -0.95520968845E+02 -0.24983768895E+02  0.53547609111E+03  0.54451865051E+03  0.41800000000E+01 0.  1.
         -5    1    3    3    0  502  0.38775062017E+02  0.72728672128E+01  0.20863526745E+03  0.21237360301E+03  0.41800000000E+01 0.  1.
        -11    1    1    2    0    0 -0.23896177737E+02 -0.79294370589E+01  0.14894615944E+03  0.15105913310E+03  0.00000000000E+00 0. -1.
         11    1    1    2    0    0  0.80642084565E+02  0.25640338742E+02  0.44625669737E+03  0.45420877658E+03  0.00000000000E+00 0.  1.
</event>
<event>
 7    1  0.2842702E-009  0.1195562E+03  0.7561462E-02  0.1243831E+00
          2   -1    0    0  501    0  0.00000000000E+00  0.00000000000E+00  0.48725024375E+03  0.48725024375E+03  0.00000000000E+00 0. -1.
         -2   -1    0    0    0  501 -0.00000000000E+00 -0.00000000000E+00 -0.52017339424E+02  0.52017339424E+02  0.00000000000E+00 0.  1.
         25    2    1    2    0    0 -0.10346530781E+02  0.37530715974E+02  0.71025373252E+02  0.14902141628E+03  0.12508866266E+03 0.  0.
          5    1    3    3  502    0 -0.40875910706E+02 -0.10053649800E+02 -0.15944575771E+02  0.45206391659E+02  0.41800000000E+01 0. -1.
         -5    1    3    3    0  502  0.30529379925E+02  0.47584365774E+02  0.86969949023E+02  0.10381502462E+03  0.41800000000E+01 0. -1.
        -11    1    1    2    0    0 -0.61985033343E+02 -0.24360780659E+02  0.16849274822E+03  0.18117780823E+03  0.00000000000E+00 0.  1.
         11    1    1    2    0    0  0.72331564124E+02 -0.13169935315E+02  0.19571478285E+03  0.20906835866E+03  0.00000000000E+00 0. -1.
</event>
<event>
 6    1  0.2842702E-009  0.2349096E+03  0.7561462E-02  0.1123231E+00
         -1   -1    0    0    0  501 -0.00000000000E+00  0.00000000000E+00  0.62636321092E+02  0.62636321092E+02  0.00000000000E+00 0.  1.
          1   -1    0    0  501    0  0.00000000000E+00 -0.00000000000E+00 -0.91710076585E+03  0.91710076585E+03  0.00000000000E+00 0. -1.
          5    1    1    2  502    0  0.16082853297E+03 -0.97201254374E+02 -0.29377317020E+03  0.34876073288E+03  0.41800000000E+01 0.  1.
         -5    1    1    2    0  502 -0.14201282066E+02 -0.56437175571E+02 -0.10267220577E+03  0.11809269849E+03  0.41800000000E+01 0.  1.
        -11    1    1    2    0    0 -0.49878462711E+02  0.10268988205E+03 -0.29758028852E+03  0.31872731454E+03  0.00000000000E+00 0. -1.
         11    1    1    2    0    0 -0.96748788195E+02  0.50948547894E+02 -0.16043878028E+03  0.19415634104E+03  0.00000000000E+00 0.  1.
</event>
<event>
 7    1  0.2842702E-009  0.9097343E+02  0.7561462E-02  0.1300511E+00
         -1   -1    0    0    0  501 -0.00000000000E+00  0.00000000000E+00  0.30849401715E+03  0.30849401715E+03  0.00000000000E+00 0.  1.
          1   -1    0    0  501    0  0.00000000000E+00 -0.00000000000E+00 -0.54824527963E+02  0.54824527963E+02  0.00000000000E+00 0. -1.
         25    2    1    2    0    0  0.49886765285E+02  0.11015064623E+02  0.71776035660E+02  0.15299622611E+03  0.12508407136E+03 0.  0.
          5    1    3    3  502    0  0.45722304850E+02 -0.30635097319E+02  0.91247342744E+02  0.10664233825E+03  0.41800000000E+01 0. -1.
         -5    1    3    3    0  502  0.41644604355E+01  0.41650161941E+02 -0.19471307084E+02  0.46353887863E+02  0.41800000000E+01 0. -1.
        -11    1    1    2    0    0 -0.12053288137E+02  0.27911332649E+02  0.13564145354E+03  0.13900693567E+03  0.00000000000E+00 0.  1.
         11    1    1    2    0    0 -0.37833477148E+02 -0.38926397271E+02  0.46251999982E+02  0.71315383334E+02  0.00000000000E+00 0. -1.
</event>
<event>
 7    1  0.2842702E-009  0.1228102E+03  0.7561462E-02  0.1238532E+00
          2   -1    0    0  501    0  0.00000000000E+00  0.00000000000E+00  0.48487767092E+03  0.48487767092E+03  0.00000000000E+00 0. -1.
         -2   -1    0    0    0  501 -0.00000000000E+00 -0.00000000000E+00 -0.37978709350E+02  0.37978709350E+02  0.00000000000E+00 0.  1.
         25    2    1    2    0    0  0.14571470939E+02 -0.80783930347E+02  0.25037470823E+03  0.29167428908E+03  0.12509206698E+03 0.  0.
          5    1    3    3  502    0  0.67509507036E+02 -0.35688486583E+02  0.99527074525E+02  0.12551618453E+03  0.41800000000E+01 0. -1.
         -5    1    3    3    0  502 -0.52938036097E+02 -0.45095443763E+02  0.15084763370E+03  0.16615810455E+03  0.41800000000E+01 0. -1.
        -11    1    1    2    0    0 -0.35423992923E+02  0.62024981390E+02  0.18913977061E+03  0.20217767042E+03  0.00000000000E+00 0.  1.
         11    1    1    2    0    0  0.20852521984E+02  0.18758948957E+02  0.73844827350E+01  0.29004420772E+02  0.00000000000E+00 0. -1.
</event>
<event>
 7    1  0.2842702E-009  0.1688273E+03  0.7561462E-02  0.1179076E+00
          2   -1    0    0  501    0  0.00000000000E+00  0.00000000000E+00  0.14893225599E+04  0.14893225599E+04  0.00000000000E+00 0. -1.
         -2   -1    0    0    0  501 -0.00000000000E+00 -0.00000000000E+00 -0.22585274242E+02  0.22585274242E+02  0.00000000000E+00 0.  1.
         25    2    1    2    0    0 -0.17310084677E+02 -0.14665059881E+03  0.82659902091E+03  0.84895247623E+03  0.12509327866E+03 0.  0.
          5    1    3    3  502    0  0.92047124819E+01  0.55154170764E+01  0.29826825488E+03  0.29849048699E+03  0.41800000000E+01 0.  1.
         -5    1    3    3    0  502 -0.26514797158E+02 -0.15216601589E+03  0.52833076603E+03  0.55046198924E+03  0.41800000000E+01 0.  1.
        -11    1    1    2    0    0 -0.35206477398E+02  0.44304691173E+02  0.24226669048E+03  0.24878816496E+03  0.00000000000E+00 0. -1.
         11    1    1    2    0    0  0.52516562075E+02  0.10234590764E+03  0.39787157431E+03  0.41416719299E+03  0.00000000000E+00 0.  1.
</event>
<event>
 7    1  0.2842702E-009  0.1465383E+03  0.7561462E-02  0.1204792E+00
         -1   -1    0    0    0  501 -0.00000000000E+00  0.00000000000E+00  0.46778085649E+03  0.46778085649E+03  0.00000000000E+00 0.  1.
          1   -1    0    0  501    0  0.00000000000E+00 -0.00000000000E+00 -0.82672372112E+02  0.82672372112E+02  0.00000000000E+00 0. -1.
         25    2    1    2    0    0  0.97306763384E+02  0.40386983103E+02  0.27456868863E+02  0.16583365529E+03  0.12508879636E+03 0.  0.
          5    1    3    3  502    0 -0.22105735402E+02  0.37674899325E+02  0.42630209965E+01  0.44087496241E+02  0.41800000000E+01 0. -1.
         -5    1    3    3    0  502  0.11941249879E+03  0.27120837785E+01  0.23193847867E+02  0.12174615905E+03  0.41800000000E+01 0. -1.
        -11    1    1    2    0    0 -0.10068166993E+03 -0.12345940153E+02  0.32942859834E+03  0.34469177870E+03  0.00000000000E+00 0.  1.
         11    1    1    2    0    0  0.33749065491E+01 -0.28041042950E+02  0.28223017174E+02  0.39927794609E+02  0.00000000000E+00 0. -1.
</event>
<event>
 7    1  0.2842702E-009  0.1237432E+03  0.7561462E-02  0.1237047E+00
         -1   -1    0    0    0  501 -0.00000000000E+00  0.00000000000E+00  0.85512336882E+02  0.85512336882E+02  0.00000000000E+00 0.  1.
          1   -1    0    0  501    0  0.00000000000E+00 -0.00000000000E+00 -0.26708767895E+03  0.26708767895E+03  0.00000000000E+00 0. -1.
         25    2    1    2    0    0  0.41017081029E+00  0.10498280108E+03 -0.10311931952E+03  0.19313536110E+03  0.12508443903E+03 0.  0.
          5    1    3    3  502    0 -0.24593344076E+02  0.10983259046E+03 -0.31417710992E+02  0.11692978860E+03  0.41800000000E+01 0. -1.
         -5    1    3    3    0  502  0.25003514886E+02 -0.48497893790E+01 -0.71701608528E+02  0.76205572494E+02  0.41800000000E+01 0. -1.
        -11    1    1    2    0    0  0.14232248470E+02 -0.62856926522E+02 -0.92473085737E+02  0.11271566747E+03  0.00000000000E+00 0. -1.
         11    1    1    2    0    0 -0.14642419280E+02 -0.42125874555E+02  0.14017063189E+02  0.46748987260E+02  0.00000000000E+00 0.  1.
</event>
<event>
 7    1  0.2842702E-009  0.1022777E+03  0.7561462E-02  0.1275578E+00
         -1   -1    0    0    0  501 -0.00000000000E+00  0.00000000000E+00  0.35736815568E+03  0.35736815568E+03  0.00000000000E+00 0.  1.
          1   -1    0    0  501    0  0.00000000000E+00 -0.00000000000E+00 -0.46028042656E+02  0.46028042656E+02  0.00000000000E+00 0. -1.
         25    2    1    2    0    0  0.51560238422E+02  0.35431978218E+02  0.12568740551E+03  0.18803938895E+03  0.12509038582E+03 0.  0.
          5    1    3    3  502    0  0.23468654720E+01  0.68098167455E+02  0.27958155460E+02  0.73769906093E+02  0.41800000000E+01 0.  1.
         -5    1    3    3    0  502  0.49213372950E+02 -0.32666189237E+02  0.97729250050E+02  0.11426948285E+03  0.41800000000E+01 0.  1.
        -11    1    1    2    0    0 -0.42551637330E+02 -0.21636924150E+01  0.21688361045E+02  0.47809082914E+02  0.00000000000E+00 0. -1.
         11    1    1    2    0    0 -0.90086010927E+01 -0.33268285803E+02  0.16396434647E+03  0.16754772647E+03  0.00000000000E+00 0.  1.
</event>
<event>
 7    1  0.2842702E-009  0.8732644E+02  0.7561462E-02  0.1309458E+00
         -1   -1    0    0    0  501 -0.00000000000E+00  0.00000000000E+00  0.38880260304E+03  0.38880260304E+03  0.00000000000E+00 0.  1.
          1   -1    0    0  501    0  0.00000000000E+00 -0.00000000000E+00 -0.32689300897E+02  0.32689300897E+02  0.00000000000E+00 0. -1.
         25    2    1    2    0    0 -0.22814389275E+02 -0.95584414904E+01  0.21421847707E+03  0.24929669602E+03  0.12508967411E+03 0.  0.
          5    1    3    3  502    0  0.15471821225E+01  0.33252208027E+02  0.19232895717E+03  0.19523320229E+03  0.41800000000E+01 0. -1.
         -5    1    3    3    0  502 -0.24361571398E+02 -0.42810649518E+02  0.21889519901E+02  0.54063493733E+02  0.41800000000E+01 0. -1.
        -11    1    1    2    0    0  0.56976938008E+02  0.71168922633E+01  0.58170398551E+02  0.81736264215E+02  0.00000000000E+00 0. -1.
         11    1    1    2    0    0 -0.34162548733E+02  0.24415492271E+01  0.83724426519E+02  0.90458943695E+02  0.00000000000E+00 0.  1.
</event>
<event>
 7    1  0.2842702E-009  0.6724808E+02  0.7561462E-02  0.1369709E+00
         -1   -1    0    0    0  501 -0.00000000000E+00  0.00000000000E+00  0.23986102313E+03  0.23986102313E+03  0.00000000000E+00 0.  1.
          1   -1    0    0  501    0  0.00000000000E+00 -0.00000000000E+00 -0.48841122670E+02  0.48841122670E+02  0.00000000000E+00 0. -1.
         25    2    1    2    0    0  0.91939288396E-01  0.15069221099E+01  0.91450940017E+02  0.15491638656E+03  0.12503412785E+03 0.  0.
          5    1    3    3  502    0 -0.18977920552E+02 -0.11738012595E+02 -0.26347180614E+02  0.34779142233E+02  0.41800000000E+01 0.  1.
         -5    1    3    3    0  502  0.19069859841E+02  0.13244934705E+02  0.11779812063E+03  0.12013724432E+03  0.41800000000E+01 0.  1.
        -11    1    1    2    0    0  0.43330914516E+02  0.71712822432E+01  0.38865452149E+02  0.58647410962E+02  0.00000000000E+00 0.  1.
         11    1    1    2    0    0 -0.43422853804E+02 -0.86782043532E+01  0.60703508295E+02  0.75138348283E+02  0.00000000000E+00 0. -1.
</event>
<event>
 7    1  0.2842702E-009  0.2057418E+03  0.7561462E-02  0.1144983E+00
         -2   -1    0    0    0  501 -0.00000000000E+00  0.00000000000E+00  0.80390135393E+02  0.80390135393E+02  0.00000000000E+00 0.  1.
          2   -1    0    0  501    0  0.00000000000E+00 -0.00000000000E+00 -0.62966186895E+03  0.62966186895E+03  0.00000000000E+00 0. -1.
         25    2    1    2    0    0  0.17837386010E+03  0.70249571582E+02 -0.35710578503E+03  0.42417028087E+03  0.12507457453E+03 0.  0.
          5    1    3    3  502    0  0.16579936721E+03  0.79842381633E+02 -0.22338323451E+03  0.28945082127E+03  0.41800000000E+01 0.  1.
         -5    1    3    3    0  502  0.12574492884E+02 -0.95928100511E+01 -0.13372255053E+03  0.13471945960E+03  0.41800000000E+01 0.  1.
        -11    1    1    2    0    0 -0.11048332252E+03  0.38581839546E+01 -0.89827490152E+02  0.14244447383E+03  0.00000000000E+00 0.  1.
         11    1    1    2    0    0 -0.67890537576E+02 -0.74107755536E+02 -0.10233845837E+03  0.14343724964E+03  0.00000000000E+00 0. -1.
</event>
<event>
 7    1  0.2842702E-009  0.1080736E+03  0.7561462E-02  0.1264179E+00
          1   -1    0    0  501    0  0.00000000000E+00  0.00000000000E+00  0.17287575170E+03  0.17287575170E+03  0.00000000000E+00 0. -1.
         -1   -1    0    0    0  501 -0.00000000000E+00 -0.00000000000E+00 -0.12500195761E+03  0.12500195761E+03  0.00000000000E+00 0.  1.
         25    2    1    2    0    0  0.55854511615E+02 -0.80724551620E+02  0.14137787002E+02  0.15963010261E+03  0.12508282430E+03 0.  0.
          5    1    3    3  502    0  0.53159512896E+02 -0.20427800771E+02 -0.46746769439E+02  0.73796759473E+02  0.41800000000E+01 0.  1.
         -5    1    3    3    0  502  0.26949987190E+01 -0.60296750848E+02  0.60884556441E+02  0.85833343137E+02  0.41800000000E+01 0.  1.
        -11    1    1    2    0    0 -0.39615889095E+02  0.50006210863E+02 -0.26200784561E+02  0.68967535154E+02  0.00000000000E+00 0.  1.
         11    1    1    2    0    0 -0.16238622521E+02  0.30718340756E+02  0.59936791645E+02  0.69280071542E+02  0.00000000000E+00 0. -1.
</event>
<event>
 7    1  0.2842702E-009  0.1163309E+03  0.7561462E-02  0.1249276E+00
          4   -1    0    0  501    0  0.00000000000E+00  0.00000000000E+00  0.32971026211E+03  0.32971026211E+03  0.00000000000E+00 0. -1.
         -4   -1    0    0    0  501 -0.00000000000E+00 -0.00000000000E+00 -0.50730171752E+02  0.50730171752E+02  0.00000000000E+00 0.  1.
         25    2    1    2    0    0  0.35705281064E+02 -0.58480203821E+02  0.15951510327E+03  0.21398005265E+03  0.12509034106E+03 0.  0.
          5    1    3    3  502    0 -0.38964461268E+02 -0.45843041772E+02  0.10313253616E+03  0.11947219817E+03  0.41800000000E+01 0. -1.
         -5    1    3    3    0  502  0.74669742332E+02 -0.12637162049E+02  0.56382567114E+02  0.94507854483E+02  0.41800000000E+01 0. -1.
        -11    1    1    2    0    0 -0.54660614312E+02  0.54395723487E+02  0.44510799398E+02  0.89038692453E+02  0.00000000000E+00 0.  1.
         11    1    1    2    0    0  0.18955333248E+02  0.40844803343E+01  0.74954187689E+02  0.77421688758E+02  0.00000000000E+00 0. -1.
</event>
<event>
 7    1  0.2842702E-009  0.1312867E+03  0.7561462E-02  0.1225559E+00
          1   -1    0    0  501    0  0.00000000000E+00  0.00000000000E+00  0.19582240587E+03  0.19582240587E+03  0.00000000000E+00 0. -1.
         -1   -1    0    0    0  501 -0.00000000000E+00 -0.00000000000E+00 -0.12679360757E+03  0.12679360757E+03  0.00000000000E+00 0.  1.
         25    2    1    2    0    0  0.31895824240E+02 -0.72571085214E+02  0.12111652677E+03  0.19131229525E+03  0.12508906924E+03 0.  0.
          5    1    3    3  502    0 -0.10245430800E+01  0.32964717965E+02  0.10490037587E+02  0.34860229598E+02  0.41800000000E+01 0.  1.
         -5    1    3    3    0  502  0.32920367320E+02 -0.10553580318E+03  0.11062648919E+03  0.15645206565E+03  0.41800000000E+01 0.  1.
        -11    1    1    2    0    0  0.11132166597E+02  0.74789704870E+02 -0.21987566671E+02  0.78745654964E+02  0.00000000000E+00 0. -1.
         11    1    1    2    0    0 -0.43027990836E+02 -0.22186196558E+01 -0.30100161804E+02  0.52558063218E+02  0.00000000000E+00 0.  1.
</event>
<event>
 7    1  0.2842702E-009  0.1022687E+03  0.7561462E-02  0.1275596E+00
          3   -1    0    0  501    0  0.00000000000E+00  0.00000000000E+00  0.50617663945E+03  0.50617663945E+03  0.00000000000E+00 0. -1.
         -3   -1    0    0    0  501 -0.00000000000E+00 -0.00000000000E+00 -0.25019122474E+02  0.25019122474E+02  0.00000000000E+00 0.  1.
         25    2    1    2    0    0 -0.21482453416E+02 -0.15633272050E+02  0.31443514307E+03  0.33944428910E+03  0.12508825366E+03 0.  0.
          5    1    3    3  502    0 -0.32397205256E+02 -0.66535729914E+02  0.20960093527E+03  0.22232095432E+03  0.41800000000E+01 0.  1.
         -5    1    3    3    0  502  0.10914751839E+02  0.50902457864E+02  0.10483420780E+03  0.11712333478E+03  0.41800000000E+01 0.  1.
        -11    1    1    2    0    0  0.31497448921E+02  0.40543294275E+02  0.48874854356E+02  0.70884408635E+02  0.00000000000E+00 0.  1.
         11    1    1    2    0    0 -0.10014995505E+02 -0.24910022226E+02  0.11784751955E+03  0.12086706419E+03  0.00000000000E+00 0. -1.
</event>
<event>
 7    1  0.2842702E-009  0.1001059E+03  0.7561462E-02  0.1280073E+00
         -1   -1    0    0    0  501 -0.00000000000E+00  0.00000000000E+00  0.48845442123E+03  0.48845442123E+03  0.00000000000E+00 0.  1.
          1   -1    0    0  501    0  0.00000000000E+00 -0.00000000000E+00 -0.37036038728E+02  0.37036038728E+02  0.00000000000E+00 0. -1.
         25    2    1    2    0    0  0.60586478232E+02  0.24999544873E+02  0.16213346226E+03  0.21501328891E+03  0.12509099182E+03 0.  0.
          5    1    3    3  502    0  0.77883225480E+02  0.30366708025E+02  0.42361562068E+02  0.93807825411E+02  0.41800000000E+01 0. -1.
         -5    1    3    3    0  502 -0.17296747248E+02 -0.53671631517E+01  0.11977190019E+03  0.12120546350E+03  0.41800000000E+01 0. -1.
        -11    1    1    2    0    0  0.16630356976E+02  0.41427626092E+00  0.95758500479E+01  0.19194720683E+02  0.00000000000E+00 0.  1.
         11    1    1    2    0    0 -0.77216835208E+02 -0.25413821134E+02  0.27970907019E+03  0.29128245036E+03  0.00000000000E+00 0. -1.
</event>
<event>
 7    1  0.2842702E-009  0.1128473E+03  0.7561462E-02  0.1255386E+00
          1   -1    0    0  501    0  0.00000000000E+00  0.00000000000E+00  0.47436571253E+03  0.47436571253E+03  0.00000000000E+00 0. -1.
         -1   -1    0    0    0  501 -0.00000000000E+00 -0.00000000000E+00 -0.35873071373E+02  0.35873071373E+02  0.00000000000E+00 0.  1.
         25    2    1    2    0    0  0.56221180689E+02  0.44462584535E+02  0.24531930648E+03  0.28454635435E+03  0.12508926036E+03 0.  0.
          5    1    3    3  502    0  0.34682126851E+02  0.84353499021E+02  0.11711431941E+03  0.14849780783E+03  0.41800000000E+01 0.  1.
         -5    1    3    3    0  502  0.21539053838E+02 -0.39890914486E+02  0.12820498707E+03  0.13604854651E+03  0.41800000000E+01 0.  1.
        -11    1    1    2    0    0 -0.56284026247E+02 -0.54784763952E+02  0.19892901833E+03  0.21387383268E+03  0.00000000000E+00 0. -1.
         11    1    1    2    0    0  0.62845557384E-01  0.10322179417E+02 -0.57556836640E+01  0.11818596868E+02  0.00000000000E+00 0.  1.
</event>
<event>
 7    1  0.4010997E-009  0.1210399E+03  0.7561462E-02  0.1241391E+00
         -3   -1    0    0    0  501 -0.00000000000E+00  0.00000000000E+00  0.14311104291E+03  0.14311104291E+03  0.00000000000E+00 0.  1.
          3   -1    0    0  501    0  0.00000000000E+00 -0.00000000000E+00 -0.13377135238E+03  0.13377135238E+03  0.00000000000E+00 0. -1.
         25    2    1    2    0    0  0.36896430772E+02 -0.74838538396E+02  0.24788347134E+02  0.15238809672E+03  0.12508203882E+03 0.  0.
          5    1    3    3  502    0 -0.77293671639E+01 -0.98942780809E+02  0.13330881062E+02  0.10022276079E+03  0.41800000000E+01 0.  1.
         -5    1    3    3    0  502  0.44625797936E+02  0.24104242413E+02  0.11457466072E+02  0.52165335928E+02  0.41800000000E+01 0.  1.
        -11    1    1    2    0    0 -0.42827829660E+02  0.47822783705E+02  0.30335891159E+02  0.71003576861E+02  0.00000000000E+00 0.  1.
         11    1    1    2    0    0  0.59313988881E+01  0.27015754691E+02 -0.45784547764E+02  0.53490721702E+02  0.00000000000E+00 0. -1.
</event>
<event>
 6    1  0.2842702E-009  0.9907467E+02  0.7561462E-02  0.1282254E+00
         -1   -1    0    0    0  501 -0.00000000000E+00  0.00000000000E+00  0.45934247928E+02  0.45934247928E+02  0.00000000000E+00 0.  1.
          1   -1    0    0  501    0  0.00000000000E+00 -0.00000000000E+00 -0.34471531317E+03  0.34471531317E+03  0.00000000000E+00 0. -1.
          5    1    1    2  502    0 -0.72695747797E+01  0.51442411254E+02 -0.64570535181E+02  0.82981894451E+02  0.41800000000E+01 0. -1.
         -5    1    1    2    0  502  0.36419508100E+01 -0.64109660014E+02 -0.19640320112E+03  0.20667608019E+03  0.41800000000E+01 0. -1.
        -11    1    1    2    0    0  0.12347180198E+02 -0.32975247730E+02  0.75996777849E+01  0.36021867305E+02  0.00000000000E+00 0. -1.
         11    1    1    2    0    0 -0.87195562286E+01  0.45642496490E+02 -0.45407006720E+02  0.64969719146E+02  0.00000000000E+00 0.  1.
</event>
<event>
 7    1  0.2842702E-009  0.1289701E+03  0.7561462E-02  0.1228992E+00
          1   -1    0    0  501    0  0.00000000000E+00  0.00000000000E+00  0.18313304344E+02  0.18313304344E+02  0.00000000000E+00 0. -1.
         -1   -1    0    0    0  501 -0.00000000000E+00 -0.00000000000E+00 -0.98685934923E+03  0.98685934923E+03  0.00000000000E+00 0.  1.
         25    2    1    2    0    0 -0.32074403663E+02  0.73420879786E+02 -0.51251214086E+03  0.53360075228E+03  0.12506668357E+03 0.  0.
          5    1    3    3  502    0 -0.71684474317E+02  0.87122581203E+01 -0.23570600445E+03  0.24655498420E+03  0.41800000000E+01 0. -1.
         -5    1    3    3    0  502  0.39610070655E+02  0.64708621666E+02 -0.27680613642E+03  0.28704576808E+03  0.41800000000E+01 0. -1.
        -11    1    1    2    0    0  0.45754007792E+02 -0.81695576115E+02 -0.43599710722E+03  0.44593841939E+03  0.00000000000E+00 0. -1.
         11    1    1    2    0    0 -0.13679604129E+02  0.82746963292E+01 -0.20036796805E+02  0.25633481907E+02  0.00000000000E+00 0.  1.
</event>
<event>
 7    1  0.2842702E-009  0.1149185E+03  0.7561462E-02  0.1251723E+00
          2   -1    0    0  501    0  0.00000000000E+00  0.00000000000E+00  0.13434497099E+03  0.13434497099E+03  0.00000000000E+00 0.  1.
         -2   -1    0    0    0  501 -0.00000000000E+00 -0.00000000000E+00 -0.13078683136E+03  0.13078683136E+03  0.00000000000E+00 0. -1.
         25    2    1    2    0    0  0.55857516746E+02 -0.41629525743E+02 -0.28682566495E+02  0.14602369642E+03  0.12508857144E+03 0.  0.
          5    1    3    3  502    0  0.80160687616E+02 -0.68254714997E+02 -0.11884348741E+02  0.10603373097E+03  0.41800000000E+01 0.  1.
         -5    1    3    3    0  502 -0.24303170870E+02  0.26625189255E+02 -0.16798217754E+02  0.39989965453E+02  0.41800000000E+01 0.  1.
        -11    1    1    2    0    0  0.16433755818E+01  0.29333784764E+02  0.49731054296E+02  0.57761140685E+02  0.00000000000E+00 0.  1.
         11    1    1    2    0    0 -0.57500892327E+02  0.12295740979E+02 -0.17490348176E+02  0.61346965239E+02  0.00000000000E+00 0. -1.
</event>
<event>
 7    1  0.2842702E-009  0.9005754E+02  0.7561462E-02  0.1302712E+00
         -2   -1    0    0    0  501 -0.00000000000E+00  0.00000000000E+00  0.22463742600E+02  0.22463742600E+02  0.00000000000E+00 0.  1.
          2   -1    0    0  501    0  0.00000000000E+00 -0.00000000000E+00 -0.66560265093E+03  0.66560265093E+03  0.00000000000E+00 0. -1.
         25    2    1    2    0    0  0.56818219719E+02  0.41229740039E+01 -0.35328487767E+03  0.37908199975E+03  0.12509056214E+03 0.  0.
          5    1    3    3  502    0  0.51779140203E+02 -0.19172421360E+02 -0.49311094103E+02  0.74146594679E+02  0.41800000000E+01 0. -1.
         -5    1    3    3    0  502  0.50390795158E+01  0.23295395364E+02 -0.30397378357E+03  0.30493540507E+03  0.41800000000E+01 0. -1.
        -11    1    1    2    0    0 -0.28455305573E+02  0.39396570203E+02 -0.87723015226E+02  0.10028520110E+03  0.00000000000E+00 0.  1.
         11    1    1    2    0    0 -0.28362914146E+02 -0.43519544207E+02 -0.20213101543E+03  0.20869919268E+03  0.00000000000E+00 0. -1.
</event>
<event>
 7    1  0.2842702E-009  0.9659966E+02  0.7561462E-02  0.1287613E+00
         -3   -1    0    0    0  501 -0.00000000000E+00  0.00000000000E+00  0.71756244395E+03  0.71756244395E+03  0.00000000000E+00 0.  1.
          3   -1    0    0  501    0  0.00000000000E+00 -0.00000000000E+00 -0.39364590543E+02  0.39364590543E+02  0.00000000000E+00 0. -1.
         25    2    1    2    0    0  0.70719630393E+02 -0.15464003902E+01  0.60428745866E+03  0.62113929431E+03  0.12508810002E+03 0.  0.
          5    1    3    3  502    0  0.27581438057E+02  0.47160580205E+02  0.45432414269E+03  0.45761638420E+03  0.41800000000E+01 0.  1.
         -5    1    3    3    0  502  0.43138192336E+02 -0.48706980595E+02  0.14996331596E+03  0.16352291011E+03  0.41800000000E+01 0.  1.
        -11    1    1    2    0    0 -0.42897914700E+02 -0.83035798712E+01 -0.11699352232E+02  0.45233343531E+02  0.00000000000E+00 0. -1.
         11    1    1    2    0    0 -0.27821715693E+02  0.98499802614E+01  0.85609746985E+02  0.90554396658E+02  0.00000000000E+00 0.  1.
</event>
<event>
 7    1  0.2842702E-009  0.1129207E+03  0.7561462E-02  0.1255255E+00
          1   -1    0    0  501    0  0.00000000000E+00  0.00000000000E+00  0.44179760191E+02  0.44179760191E+02  0.00000000000E+00 0. -1.
         -1   -1    0    0    0  501 -0.00000000000E+00 -0.00000000000E+00 -0.33001167802E+03  0.33001167802E+03  0.00000000000E+00 0.  1.
         25    2    1    2    0    0 -0.45466623573E+02 -0.23856923230E+02 -0.16256820047E+03  0.21145398357E+03  0.12509196904E+03 0.  0.
          5    1    3    3  502    0 -0.12227206938E+02 -0.68182872613E+02 -0.48781327611E+02  0.84826287380E+02  0.41800000000E+01 0.  1.
         -5    1    3    3    0  502 -0.33239416634E+02  0.44325949382E+02 -0.11378687286E+03  0.12662769619E+03  0.41800000000E+01 0.  1.
        -11    1    1    2    0    0  0.67437006858E+02 -0.13430309158E+01 -0.10456161876E+03  0.12442944082E+03  0.00000000000E+00 0.  1.
         11    1    1    2    0    0 -0.21970383286E+02  0.25199954146E+02 -0.18702098598E+02  0.38308013818E+02  0.00000000000E+00 0. -1.
</event>
<event>
 7    1  0.2842702E-009  0.1113357E+03  0.7561462E-02  0.1258116E+00
         -1   -1    0    0    0  501 -0.00000000000E+00  0.00000000000E+00  0.26091922308E+03  0.26091922308E+03  0.00000000000E+00 0.  1.
          1   -1    0    0  501    0  0.00000000000E+00 -0.00000000000E+00 -0.71289389495E+02  0.71289389495E+02  0.00000000000E+00 0. -1.
         25    2    1    2    0    0  0.47511869446E+02  0.64613605792E+01  0.21024816725E+02  0.13559459099E+03  0.12507886819E+03 0.  0.
          5    1    3    3  502    0 -0.33393989739E+02  0.23677279076E+02  0.31893229574E+02  0.52061719025E+02  0.41800000000E+01 0.  1.
         -5    1    3    3    0  502  0.80905859186E+02 -0.17215918497E+02 -0.10868412849E+02  0.83532871961E+02  0.41800000000E+01 0.  1.
        -11    1    1    2    0    0 -0.40347422921E+02 -0.44455919630E+02  0.12266924996E+03  0.13657228200E+03  0.00000000000E+00 0.  1.
         11    1    1    2    0    0 -0.71644465250E+01  0.37994559051E+02  0.45935766899E+02  0.60041739583E+02  0.00000000000E+00 0. -1.
</event>
<event>
 7    1  0.2842702E-009  0.2501743E+03  0.7561462E-02  0.1113195E+00
         -1   -1    0    0    0  501 -0.00000000000E+00  0.00000000000E+00  0.10300508918E+04  0.10300508918E+04  0.00000000000E+00 0.  1.
          1   -1    0    0  501    0  0.00000000000E+00 -0.00000000000E+00 -0.10552579905E+03  0.10552579905E+03  0.00000000000E+00 0. -1.
         25    2    1    2    0    0 -0.76929443927E+01  0.23549363116E+03  0.81898545458E+03  0.86133822379E+03  0.12509967719E+03 0.  0.
          5    1    3    3  502    0 -0.27158880009E+02  0.10227942163E+01  0.14156901922E+03  0.14421480671E+03  0.41800000000E+01 0. -1.
         -5    1    3    3    0  502  0.19465935616E+02  0.23447083694E+03  0.67741643536E+03  0.71712341708E+03  0.41800000000E+01 0. -1.
        -11    1    1    2    0    0  0.12107674072E+02 -0.35763116378E+02  0.57460168627E+02  0.68755125214E+02  0.00000000000E+00 0. -1.
         11    1    1    2    0    0 -0.44147296791E+01 -0.19973051478E+03  0.48079469501E+02  0.20548334181E+03  0.00000000000E+00 0.  1.
</event>
<event>
 7    1  0.2842702E-009  0.1686822E+03  0.7561462E-02  0.1179229E+00
         -1   -1    0    0    0  501 -0.00000000000E+00  0.00000000000E+00  0.87711718592E+02  0.87711718592E+02  0.00000000000E+00 0.  1.
          1   -1    0    0  501    0  0.00000000000E+00 -0.00000000000E+00 -0.51624820211E+03  0.51624820211E+03  0.00000000000E+00 0. -1.
         25    2    1    2    0    0  0.29986165678E+02 -0.13474593930E+03 -0.53175894597E+02  0.19372864891E+03  0.12508986911E+03 0.  0.
          5    1    3    3  502    0 -0.41297489983E+02 -0.79663479792E+02 -0.16078222227E+01  0.89843253412E+02  0.41800000000E+01 0. -1.
         -5    1    3    3    0  502  0.71283655660E+02 -0.55082459506E+02 -0.51568072374E+02  0.10388539550E+03  0.41800000000E+01 0. -1.
        -11    1    1    2    0    0 -0.55583878018E+02  0.95455466187E+02 -0.19747998658E+03  0.22627341563E+03  0.00000000000E+00 0.  1.
         11    1    1    2    0    0  0.25597712340E+02  0.39290473110E+02 -0.17788060234E+03  0.18395785616E+03  0.00000000000E+00 0. -1.
</event>
<event>
 7    1  0.2842702E-009  0.9434979E+02  0.7561462E-02  0.1292647E+00
          3   -1    0    0  501    0  0.00000000000E+00  0.00000000000E+00  0.63914679786E+02  0.63914679786E+02  0.00000000000E+00 0. -1.
         -3   -1    0    0    0  501 -0.00000000000E+00 -0.00000000000E+00 -0.47623041601E+03  0.47623041601E+03  0.00000000000E+00 0.  1.
         25    2    1    2    0    0 -0.39236573164E+02  0.56872330736E+02 -0.34766481040E+02  0.14708050888E+03  0.12509994888E+03 0.  0.
          5    1    3    3  502    0 -0.54825723824E+02  0.80866386643E+01 -0.66515189275E+02  0.86677543355E+02  0.41800000000E+01 0. -1.
         -5    1    3    3    0  502  0.15589150659E+02  0.48785692072E+02  0.31748708236E+02  0.60402965522E+02  0.41800000000E+01 0. -1.
        -11    1    1    2    0    0  0.16655057261E+02  0.37271533495E+01 -0.98167054199E+01  0.19688837187E+02  0.00000000000E+00 0. -1.
         11    1    1    2    0    0  0.22581515903E+02 -0.60599484086E+02 -0.36773254977E+03  0.37337574974E+03  0.00000000000E+00 0.  1.
</event>
<event>
 7    1  0.2987661E-009  0.7451667E+02  0.7561462E-02  0.1345374E+00
          2   -1    0    0  501    0  0.00000000000E+00  0.00000000000E+00  0.56701870977E+03  0.56701870977E+03  0.00000000000E+00 0. -1.
         -2   -1    0    0    0  501 -0.00000000000E+00 -0.00000000000E+00 -0.29774940351E+02  0.29774940351E+02  0.00000000000E+00 0.  1.
         25    2    1    2    0    0 -0.25462895765E+02  0.47347763005E+02  0.18889402360E+03  0.23285468089E+03  0.12510068161E+03 0.  0.
          5    1    3    3  502    0 -0.83381153554E+01  0.97652346449E+01  0.19082156419E+03  0.19129878655E+03  0.41800000000E+01 0. -1.
         -5    1    3    3    0  502 -0.17124780409E+02  0.37582528360E+02 -0.19275405857E+01  0.41555894344E+02  0.41800000000E+01 0. -1.
        -11    1    1    2    0    0  0.43224539727E+02  0.23853689271E+00  0.81048724890E+02  0.91854850394E+02  0.00000000000E+00 0.  1.
         11    1    1    2    0    0 -0.17761643963E+02 -0.47586299898E+02  0.26730102092E+03  0.27208411883E+03  0.00000000000E+00 0. -1.
</event>
<event>
 7    1  0.2842702E-009  0.2588095E+03  0.7561462E-02  0.1107861E+00
         -2   -1    0    0    0  501 -0.00000000000E+00  0.00000000000E+00  0.36006683584E+02  0.36006683584E+02  0.00000000000E+00 0.  1.
          2   -1    0    0  501    0  0.00000000000E+00 -0.00000000000E+00 -0.19884112531E+04  0.19884112531E+04  0.00000000000E+00 0. -1.
         25    2    1    2    0    0 -0.23708397100E+03 -0.55268641438E+02 -0.10234437780E+04  0.10594093680E+04  0.12509040834E+03 0.  0.
          5    1    3    3  502    0 -0.15826642632E+03 -0.86277579909E+02 -0.80808910891E+03  0.82795987996E+03  0.41800000000E+01 0. -1.
         -5    1    3    3    0  502 -0.78817544686E+02  0.31008938471E+02 -0.21535466910E+03  0.23144948805E+03  0.41800000000E+01 0. -1.
        -11    1    1    2    0    0  0.98481065758E+02  0.57219418612E+02 -0.54547218028E+03  0.55723646833E+03  0.00000000000E+00 0.  1.
         11    1    1    2    0    0  0.13860290524E+03 -0.19507771731E+01 -0.38348861125E+03  0.40777210036E+03  0.00000000000E+00 0. -1.
</event>
<event>
 7    1  0.3126113E-009  0.7405962E+02  0.7561462E-02  0.1346808E+00
         -2   -1    0    0    0  501 -0.00000000000E+00  0.00000000000E+00  0.63842390002E+02  0.63842390002E+02  0.00000000000E+00 0.  1.
          2   -1    0    0  501    0  0.00000000000E+00 -0.00000000000E+00 -0.26716474937E+03  0.26716474937E+03  0.00000000000E+00 0. -1.
         25    2    1    2    0    0 -0.65503992533E+02  0.21389725726E+02 -0.14054749866E+03  0.20037652879E+03  0.12509540561E+03 0.  0.
          5    1    3    3  502    0 -0.53047452749E+02  0.18243925573E+02 -0.16396225881E+03  0.17334349649E+03  0.41800000000E+01 0. -1.
         -5    1    3    3    0  502 -0.12456539784E+02  0.31458001530E+01  0.23414760151E+02  0.27033032292E+02  0.41800000000E+01 0. -1.
        -11    1    1    2    0    0  0.12159757714E+02  0.10620488335E+02  0.20870761325E+02  0.26386419962E+02  0.00000000000E+00 0.  1.
         11    1    1    2    0    0  0.53344234819E+02 -0.32010214062E+02 -0.83645622033E+02  0.10424419062E+03  0.00000000000E+00 0. -1.
</event>
<event>
 7    1  0.2842702E-009  0.9931923E+02  0.7561462E-02  0.1281734E+00
         -1   -1    0    0    0  501 -0.00000000000E+00  0.00000000000E+00  0.55871531051E+02  0.55871531051E+02  0.00000000000E+00 0.  1.
          1   -1    0    0  501    0  0.00000000000E+00 -0.00000000000E+00 -0.22086001786E+03  0.22086001786E+03  0.00000000000E+00 0. -1.
         25    2    1    2    0    0  0.12611181039E+01 -0.28107216679E+02 -0.10087322648E+03  0.16314002008E+03  0.12509057632E+03 0.  0.
          5    1    3    3  502    0 -0.46059672292E+02 -0.47884386094E+02 -0.87549888807E+02  0.10998574123E+03  0.41800000000E+01 0. -1.
         -5    1    3    3    0  502  0.47320790396E+02  0.19777169415E+02 -0.13323337671E+02  0.53154278854E+02  0.41800000000E+01 0. -1.
        -11    1    1    2    0    0 -0.38343298863E+02  0.11978792053E+02 -0.60993269171E+02  0.73033409553E+02  0.00000000000E+00 0. -1.
         11    1    1    2    0    0  0.37082180759E+02  0.16128424626E+02 -0.31219911631E+01  0.40558119281E+02  0.00000000000E+00 0.  1.
</event>
<event>
 7    1  0.2842702E-009  0.2317140E+03  0.7561462E-02  0.1125439E+00
         -1   -1    0    0    0  501 -0.00000000000E+00  0.00000000000E+00  0.28317851446E+03  0.28317851446E+03  0.00000000000E+00 0.  1.
          1   -1    0    0  501    0  0.00000000000E+00 -0.00000000000E+00 -0.40006539283E+03  0.40006539283E+03  0.00000000000E+00 0. -1.
         25    2    1    2    0    0 -0.20199022422E+03  0.38271325244E+02 -0.30645556903E+03  0.38964999619E+03  0.12508940293E+03 0.  0.
          5    1    3    3  502    0 -0.10649638994E+03 -0.42896628562E+02 -0.13584927348E+03  0.17791598950E+03  0.41800000000E+01 0.  1.
         -5    1    3    3    0  502 -0.95493834278E+02  0.81167953806E+02 -0.17060629555E+03  0.21173400669E+03  0.41800000000E+01 0.  1.
        -11    1    1    2    0    0  0.18646762724E+03 -0.51212735925E+01  0.16841628529E+03  0.25131742599E+03  0.00000000000E+00 0.  1.
         11    1    1    2    0    0  0.15522596981E+02 -0.33150051651E+02  0.21152405367E+02  0.42276485123E+02  0.00000000000E+00 0. -1.
</event>
<event>
 7    1  0.2842702E-009  0.2221808E+03  0.7561462E-02  0.1132268E+00
          2   -1    0    0  501    0  0.00000000000E+00  0.00000000000E+00  0.11499179772E+04  0.11499179772E+04  0.00000000000E+00 0.  1.
         -2   -1    0    0    0  501 -0.00000000000E+00 -0.00000000000E+00 -0.54652444486E+02  0.54652444486E+02  0.00000000000E+00 0. -1.
         25    2    1    2    0    0  0.17577425120E+03 -0.13265147804E+03  0.67945433053E+03  0.72512018975E+03  0.12509236708E+03 0.  0.
          5    1    3    3  502    0  0.13170609892E+02 -0.21514702099E+02  0.10294019725E+02  0.27564227060E+02  0.41800000000E+01 0.  1.
         -5    1    3    3    0  502  0.16260364131E+03 -0.11113677595E+03  0.66916031080E+03  0.69755596269E+03  0.41800000000E+01 0.  1.
        -11    1    1    2    0    0 -0.13312358486E+03  0.85513631994E+02  0.20318111686E+03  0.25752094352E+03  0.00000000000E+00 0. -1.
         11    1    1    2    0    0 -0.42650666337E+02  0.47137846050E+02  0.21263008532E+03  0.22192928841E+03  0.00000000000E+00 0.  1.
</event>
<event>
 7    1  0.2842702E-009  0.1859736E+03  0.7561462E-02  0.1162144E+00
          1   -1    0    0  501    0  0.00000000000E+00  0.00000000000E+00  0.13511892395E+03  0.13511892395E+03  0.00000000000E+00 0. -1.
         -1   -1    0    0    0  501 -0.00000000000E+00 -0.00000000000E+00 -0.28773790560E+03  0.28773790560E+03  0.00000000000E+00 0.  1.
         25    2    1    2    0    0  0.13920401493E+03 -0.88467212879E+02 -0.10330675883E+03  0.23135158330E+03  0.12508822145E+03 0.  0.
          5    1    3    3  502    0  0.80356768408E+01 -0.74441293299E+02 -0.39414989356E+02  0.84717719730E+02  0.41800000000E+01 0.  1.
         -5    1    3    3    0  502  0.13116833809E+03 -0.14025919580E+02 -0.63891769478E+02  0.14663386357E+03  0.41800000000E+01 0.  1.
        -11    1    1    2    0    0 -0.70707513475E+02  0.42852238826E+02  0.18671333794E+02  0.84761344609E+02  0.00000000000E+00 0.  1.
         11    1    1    2    0    0 -0.68496501455E+02  0.45614974053E+02 -0.67983556613E+02  0.10674390165E+03  0.00000000000E+00 0. -1.
</event>
<event>
 7    1  0.2842702E-009  0.1283003E+03  0.7561462E-02  0.1230000E+00
          1   -1    0    0  501    0  0.00000000000E+00  0.00000000000E+00  0.82505313876E+02  0.82505313876E+02  0.00000000000E+00 0. -1.
         -1   -1    0    0    0  501 -0.00000000000E+00 -0.00000000000E+00 -0.24537030372E+03  0.24537030372E+03  0.00000000000E+00 0.  1.
         25    2    1    2    0    0 -0.80179545944E+02 -0.21860288125E+02 -0.13796524405E+03  0.20393308702E+03  0.12509062168E+03 0.  0.
          5    1    3    3  502    0  0.14195054518E+02  0.27628298692E+02 -0.72024748447E+02  0.78548451609E+02  0.41800000000E+01 0. -1.
         -5    1    3    3    0  502 -0.94374600462E+02 -0.49488586817E+02 -0.65940495602E+02  0.12538463541E+03  0.41800000000E+01 0. -1.
        -11    1    1    2    0    0  0.79753614313E+02  0.47594972997E+02 -0.81470814250E+01  0.93232480318E+02  0.00000000000E+00 0. -1.
         11    1    1    2    0    0  0.42593163115E+00 -0.25734684872E+02 -0.16752664371E+02  0.30710050256E+02  0.00000000000E+00 0.  1.
</event>
<event>
 7    1  0.2842702E-009  0.5922474E+02  0.7561462E-02  0.1401114E+00
         -4   -1    0    0    0  501 -0.00000000000E+00  0.00000000000E+00  0.24565885943E+03  0.24565885943E+03  0.00000000000E+00 0.  1.
          4   -1    0    0  501    0  0.00000000000E+00 -0.00000000000E+00 -0.51697038416E+02  0.51697038416E+02  0.00000000000E+00 0. -1.
         25    2    1    2    0    0 -0.15003881780E+02  0.12086397255E+02  0.14715012584E+03  0.19409921961E+03  0.12510055975E+03 0.  0.
          5    1    3    3  502    0 -0.19035270374E+02  0.11126794165E+02 -0.18046667699E+02  0.28797598539E+02  0.41800000000E+01 0.  1.
         -5    1    3    3    0  502  0.40313885940E+01  0.95960309000E+00  0.16519679354E+03  0.16530162107E+03  0.41800000000E+01 0.  1.
        -11    1    1    2    0    0 -0.40930540784E+01 -0.48676436560E+02  0.35730612546E+02  0.60521279239E+02  0.00000000000E+00 0.  1.
         11    1    1    2    0    0  0.19096935858E+02  0.36590039305E+02  0.11081082629E+02  0.42735399000E+02  0.00000000000E+00 0. -1.
</event>
<event>
 7    1  0.2842702E-009  0.2664918E+03  0.7561462E-02  0.1103304E+00
         -2   -1    0    0    0  501 -0.00000000000E+00  0.00000000000E+00  0.32735854532E+03  0.32735854532E+03  0.00000000000E+00 0. -1.
          2   -1    0    0  501    0  0.00000000000E+00 -0.00000000000E+00 -0.24264762944E+03  0.24264762944E+03  0.00000000000E+00 0.  1.
         25    2    1    2    0    0  0.86637764227E+01  0.25830405064E+03  0.83610111374E+02  0.29905455698E+03  0.12508770413E+03 0.  0.
          5    1    3    3  502    0  0.70224355062E+01  0.62049330086E+01  0.42333334537E+02  0.43559148374E+02  0.41800000000E+01 0.  1.
         -5    1    3    3    0  502  0.16413409165E+01  0.25209911763E+03  0.41276776837E+02  0.25549540860E+03  0.41800000000E+01 0.  1.
        -11    1    1    2    0    0 -0.44419419551E+02 -0.12936822293E+03  0.75948279223E+01  0.13699234777E+03  0.00000000000E+00 0. -1.
         11    1    1    2    0    0  0.35755643128E+02 -0.12893582771E+03 -0.64940234139E+01  0.13395927002E+03  0.00000000000E+00 0.  1.
</event>
<event>
 7    1  0.2842702E-009  0.1984545E+03  0.7561462E-02  0.1151050E+00
          1   -1    0    0  501    0  0.00000000000E+00  0.00000000000E+00  0.35470016791E+02  0.35470016791E+02  0.00000000000E+00 0. -1.
         -1   -1    0    0    0  501 -0.00000000000E+00 -0.00000000000E+00 -0.17309385551E+04  0.17309385551E+04  0.00000000000E+00 0.  1.
         25    2    1    2    0    0 -0.18606509282E+03 -0.34692592414E+01 -0.13072322573E+04  0.13263244492E+04  0.12509242782E+03 0.  0.
          5    1    3    3  502    0 -0.15277007617E+03  0.37921010262E+02 -0.73842578256E+03  0.75502768688E+03  0.41800000000E+01 0. -1.
         -5    1    3    3    0  502 -0.33295016653E+02 -0.41390269503E+02 -0.56880647473E+03  0.57129676232E+03  0.41800000000E+01 0. -1.
        -11    1    1    2    0    0  0.74360899426E+02 -0.10394084403E+01 -0.67539622753E+02  0.10046006358E+03  0.00000000000E+00 0. -1.
         11    1    1    2    0    0  0.11170419340E+03  0.45086676817E+01 -0.32069665823E+03  0.33962405908E+03  0.00000000000E+00 0.  1.
</event>
<event>
 7    1  0.2842702E-009  0.1412404E+03  0.7561462E-02  0.1211670E+00
         -2   -1    0    0    0  501 -0.00000000000E+00  0.00000000000E+00  0.21398360484E+02  0.21398360484E+02  0.00000000000E+00 0.  1.
          2   -1    0    0  501    0  0.00000000000E+00 -0.00000000000E+00 -0.11928129319E+04  0.11928129319E+04  0.00000000000E+00 0. -1.
         25    2    1    2    0    0  0.93656177806E+02 -0.69211815672E+02 -0.71093209452E+03  0.73118581236E+03  0.12508594688E+03 0.  0.
          5    1    3    3  502    0  0.89759909172E+01 -0.60964115838E+02 -0.49849294916E+03  0.50230457354E+03  0.41800000000E+01 0. -1.
         -5    1    3    3    0  502  0.84680186889E+02 -0.82476998339E+01 -0.21243914536E+03  0.22888123882E+03  0.41800000000E+01 0. -1.
        -11    1    1    2    0    0 -0.29048331156E+01  0.40133163039E+02 -0.23204098650E+03  0.23550398775E+03  0.00000000000E+00 0. -1.
         11    1    1    2    0    0 -0.90751344690E+02  0.29078652633E+02 -0.22844149039E+03  0.24752149226E+03  0.00000000000E+00 0.  1.
</event>
<event>
 7    1  0.2842702E-009  0.1236386E+03  0.7561462E-02  0.1237212E+00
          1   -1    0    0  501    0  0.00000000000E+00  0.00000000000E+00  0.73630976558E+03  0.73630976558E+03  0.00000000000E+00 0. -1.
         -1   -1    0    0    0  501 -0.00000000000E+00 -0.00000000000E+00 -0.23686598548E+02  0.23686598548E+02  0.00000000000E+00 0.  1.
         25    2    1    2    0    0  0.34392217425E+02  0.62726500116E+02  0.33658548921E+03  0.36613304133E+03  0.12508466721E+03 0.  0.
          5    1    3    3  502    0 -0.39844286324E+02  0.52958771391E+02  0.12325684466E+03  0.14000685975E+03  0.41800000000E+01 0. -1.
         -5    1    3    3    0  502  0.74236503750E+02  0.97677287253E+01  0.21332864455E+03  0.22612618159E+03  0.41800000000E+01 0. -1.
        -11    1    1    2    0    0 -0.51084045704E+02 -0.11997143812E+02  0.27094648347E+03  0.27598099226E+03  0.00000000000E+00 0.  1.
         11    1    1    2    0    0  0.16691828278E+02 -0.50729356304E+02  0.10509119436E+03  0.11788233054E+03  0.00000000000E+00 0. -1.
</event>
<event>
 7    1  0.2842702E-009  0.1365197E+03  0.7561462E-02  0.1218090E+00
         -4   -1    0    0    0  501 -0.00000000000E+00  0.00000000000E+00  0.58836883279E+03  0.58836883279E+03  0.00000000000E+00 0.  1.
          4   -1    0    0  501    0  0.00000000000E+00 -0.00000000000E+00 -0.33360117996E+02  0.33360117996E+02  0.00000000000E+00 0. -1.
         25    2    1    2    0    0 -0.80149683001E+02 -0.59796679005E+02  0.33468579529E+03  0.37102873254E+03  0.12509246299E+03 0.  0.
          5    1    3    3  502    0 -0.53238873906E+02  0.29090737933E+02  0.18583227332E+03  0.19552942218E+03  0.41800000000E+01 0. -1.
         -5    1    3    3    0  502 -0.26910809095E+02 -0.88887416938E+02  0.14885352196E+03  0.17549931036E+03  0.41800000000E+01 0. -1.
        -11    1    1    2    0    0  0.64909465302E+02  0.73996405485E+02  0.18877275253E+03  0.21289400839E+03  0.00000000000E+00 0.  1.
         11    1    1    2    0    0  0.15240217699E+02 -0.14199726480E+02  0.31550166974E+02  0.37806209856E+02  0.00000000000E+00 0. -1.
</event>
<event>
 7    1  0.2842702E-009  0.2391867E+03  0.7561462E-02  0.1120336E+00
         -1   -1    0    0    0  501 -0.00000000000E+00  0.00000000000E+00  0.45540452577E+02  0.45540452577E+02  0.00000000000E+00 0.  1.
          1   -1    0    0  501    0  0.00000000000E+00 -0.00000000000E+00 -0.14700932302E+04  0.14700932302E+04  0.00000000000E+00 0. -1.
         25    2    1    2    0    0 -0.22000086357E+03 -0.28838627818E+01 -0.95654953959E+03  0.98946673388E+03  0.12509476056E+03 0.  0.
          5    1    3    3  502    0 -0.84702177311E+02 -0.61846547736E+02 -0.36754475778E+03  0.38223824465E+03  0.41800000000E+01 0.  1.
         -5    1    3    3    0  502 -0.13529868626E+03  0.58962684954E+02 -0.58900478182E+03  0.60722848922E+03  0.41800000000E+01 0.  1.
        -11    1    1    2    0    0  0.35226493084E+02  0.19466307143E+02 -0.17346684629E+03  0.17807467448E+03  0.00000000000E+00 0. -1.
         11    1    1    2    0    0  0.18477437049E+03 -0.16582444361E+02 -0.29453639171E+03  0.34809227439E+03  0.00000000000E+00 0.  1.
</event>
<event>
 7    1  0.2842702E-009  0.3515111E+03  0.7561462E-02  0.1061997E+00
          2   -1    0    0  501    0  0.00000000000E+00  0.00000000000E+00  0.25853240722E+03  0.25853240722E+03  0.00000000000E+00 0. -1.
         -2   -1    0    0    0  501 -0.00000000000E+00 -0.00000000000E+00 -0.50391472164E+03  0.50391472164E+03  0.00000000000E+00 0.  1.
         25    2    1    2    0    0 -0.62163389895E+02  0.33325054498E+03 -0.62551401822E+02  0.36671620575E+03  0.12509150617E+03 0.  0.
          5    1    3    3  502    0 -0.44093423380E+02  0.33489449850E+03 -0.72649546237E+02  0.34553434573E+03  0.41800000000E+01 0.  1.
         -5    1    3    3    0  502 -0.18069966515E+02 -0.16439535244E+01  0.10098144415E+02  0.21181860015E+02  0.41800000000E+01 0.  1.
        -11    1    1    2    0    0 -0.85121705192E+01 -0.14912683247E+03 -0.10995142387E+03  0.18547394648E+03  0.00000000000E+00 0.  1.
         11    1    1    2    0    0  0.70675560414E+02 -0.18412371251E+03 -0.72879488725E+02  0.21025697663E+03  0.00000000000E+00 0. -1.
</event>
<event>
 7    1  0.2842702E-009  0.1073281E+03  0.7561462E-02  0.1265599E+00
         -2   -1    0    0    0  501 -0.00000000000E+00  0.00000000000E+00  0.31368510405E+03  0.31368510405E+03  0.00000000000E+00 0.  1.
          2   -1    0    0  501    0  0.00000000000E+00 -0.00000000000E+00 -0.50616691701E+02  0.50616691701E+02  0.00000000000E+00 0. -1.
         25    2    1    2    0    0 -0.35771052547E+00  0.53467964389E+02  0.94290632758E+02  0.16552477075E+03  0.12509506439E+03 0.  0.
          5    1    3    3  502    0 -0.57509230518E+02  0.37826663836E+02  0.77620225363E+02  0.10382937868E+03  0.41800000000E+01 0.  1.
         -5    1    3    3    0  502  0.57151519992E+02  0.15641300553E+02  0.16670407395E+02  0.61695392074E+02  0.41800000000E+01 0.  1.
        -11    1    1    2    0    0 -0.25570613884E+02 -0.54652969517E+02  0.16060450328E+03  0.17156517667E+03  0.00000000000E+00 0.  1.
         11    1    1    2    0    0  0.25928324409E+02  0.11850051282E+01  0.81732763122E+01  0.27211848330E+02  0.00000000000E+00 0. -1.
</event>
<event>
 7    1  0.2842702E-009  0.1285300E+03  0.7561462E-02  0.1229653E+00
          1   -1    0    0  501    0  0.00000000000E+00  0.00000000000E+00  0.23033928400E+03  0.23033928400E+03  0.00000000000E+00 0. -1.
         -1   -1    0    0    0  501 -0.00000000000E+00 -0.00000000000E+00 -0.99446038550E+02  0.99446038550E+02  0.00000000000E+00 0.  1.
         25    2    1    2    0    0 -0.58139631442E+02  0.82212491347E+02  0.38437638297E+02  0.16512467042E+03  0.12509833838E+03 0.  0.
          5    1    3    3  502    0  0.11149439048E+02 -0.25329407309E+02 -0.77594101977E+01  0.29044271593E+02  0.41800000000E+01 0.  1.
         -5    1    3    3    0  502 -0.69289070489E+02  0.10754189866E+03  0.46197048494E+02  0.13608039883E+03  0.41800000000E+01 0.  1.
        -11    1    1    2    0    0  0.64628603352E+01 -0.14654122523E+02  0.76452023254E+02  0.78111610727E+02  0.00000000000E+00 0. -1.
         11    1    1    2    0    0  0.51676771107E+02 -0.67558368823E+02  0.16003583901E+02  0.86549041403E+02  0.00000000000E+00 0.  1.
</event>
<event>
 7    1  0.2842702E-009  0.1527157E+03  0.7561462E-02  0.1197175E+00
         -2   -1    0    0    0  501 -0.00000000000E+00  0.00000000000E+00  0.72360122867E+02  0.72360122867E+02  0.00000000000E+00 0.  1.
          2   -1    0    0  501    0  0.00000000000E+00 -0.00000000000E+00 -0.45599641356E+03  0.45599641356E+03  0.00000000000E+00 0. -1.
         25    2    1    2    0    0  0.63602783970E+02  0.10423020437E+03 -0.88072916494E+02  0.19574650778E+03  0.12510238630E+03 0.  0.
          5    1    3    3  502    0 -0.32290275751E+02  0.11532352048E+02 -0.42442021388E+02  0.54721610277E+02  0.41800000000E+01 0.  1.
         -5    1    3    3    0  502  0.95893059721E+02  0.92697852325E+02 -0.45630895107E+02  0.14102489751E+03  0.41800000000E+01 0.  1.
        -11    1    1    2    0    0 -0.10338170588E+02 -0.76885602732E+02 -0.23488684137E+03  0.24736633143E+03  0.00000000000E+00 0. -1.
         11    1    1    2    0    0 -0.53264613382E+02 -0.27344601641E+02 -0.60676532827E+02  0.85243697207E+02  0.00000000000E+00 0.  1.
</event>
<event>
 6    1  0.2842702E-009  0.1007725E+03  0.7561462E-02  0.1278680E+00
          1   -1    0    0  501    0  0.00000000000E+00  0.00000000000E+00  0.29227284528E+03  0.29227284528E+03  0.00000000000E+00 0. -1.
         -1   -1    0    0    0  501 -0.00000000000E+00 -0.00000000000E+00 -0.47972973601E+02  0.47972973601E+02  0.00000000000E+00 0.  1.
          5    1    1    2  502    0 -0.62365714419E+02 -0.18921404017E+01  0.50250600593E+02  0.80222551632E+02  0.41800000000E+01 0. -1.
         -5    1    1    2    0  502  0.60540887767E+02 -0.12109906494E+02  0.26427975480E+02  0.67288626193E+02  0.41800000000E+01 0. -1.
        -11    1    1    2    0    0  0.96608511558E+01  0.44553437038E+02  0.14963642098E+03  0.15642697747E+03  0.00000000000E+00 0.  1.
         11    1    1    2    0    0 -0.78360245038E+01 -0.30551390143E+02  0.17984874624E+02  0.36307663584E+02  0.00000000000E+00 0. -1.
</event>
<event>
 7    1  0.2842702E-009  0.1136993E+03  0.7561462E-02  0.1253869E+00
         -2   -1    0    0    0  501 -0.00000000000E+00  0.00000000000E+00  0.44322117552E+02  0.44322117552E+02  0.00000000000E+00 0.  1.
          2   -1    0    0  501    0  0.00000000000E+00 -0.00000000000E+00 -0.44377163351E+03  0.44377163351E+03  0.00000000000E+00 0. -1.
         25    2    1    2    0    0  0.47256077379E+02 -0.20801201639E+02 -0.94007921233E+02  0.16477611821E+03  0.12509137875E+03 0.  0.
          5    1    3    3  502    0  0.79672984120E+02 -0.33402698053E+02 -0.96583807893E+02  0.12965118196E+03  0.41800000000E+01 0.  1.
         -5    1    3    3    0  502 -0.32416906742E+02  0.12601496414E+02  0.25758866598E+01  0.35124936251E+02  0.41800000000E+01 0.  1.
        -11    1    1    2    0    0  0.20431855629E+02  0.31299750194E+02 -0.99956724838E+02  0.10671683057E+03  0.00000000000E+00 0. -1.
         11    1    1    2    0    0 -0.67687933008E+02 -0.10498548555E+02 -0.20548486989E+03  0.21660080228E+03  0.00000000000E+00 0.  1.
</event>
<event>
 7    1  0.2842702E-009  0.1170770E+03  0.7561462E-02  0.1247998E+00
          1   -1    0    0  501    0  0.00000000000E+00  0.00000000000E+00  0.19856301700E+04  0.19856301700E+04  0.00000000000E+00 0.  1.
         -1   -1    0    0    0  501 -0.00000000000E+00 -0.00000000000E+00 -0.15865193066E+02  0.15865193066E+02  0.00000000000E+00 0. -1.
         25    2    1    2    0    0  0.87920906872E+02 -0.44735822026E+02  0.16020724093E+04  0.16099733572E+04  0.12508727628E+03 0.  0.
          5    1    3    3  502    0  0.24028077239E+02 -0.65743689306E+01  0.12424782141E+04  0.12427349499E+04  0.41800000000E+01 0.  1.
         -5    1    3    3    0  502  0.63892829633E+02 -0.38161453096E+02  0.35959419520E+03  0.36723840730E+03  0.41800000000E+01 0.  1.
        -11    1    1    2    0    0 -0.29358193544E+02  0.65853861952E+02  0.18808412428E+03  0.20143056488E+03  0.00000000000E+00 0.  1.
         11    1    1    2    0    0 -0.58562713327E+02 -0.21118039925E+02  0.17960844332E+03  0.19009144093E+03  0.00000000000E+00 0. -1.
</event>
<event>
 7    1  0.2842702E-009  0.9684551E+02  0.7561462E-02  0.1287073E+00
          1   -1    0    0  501    0  0.00000000000E+00  0.00000000000E+00  0.34191874558E+02  0.34191874558E+02  0.00000000000E+00 0. -1.
         -1   -1    0    0    0  501 -0.00000000000E+00 -0.00000000000E+00 -0.50559365412E+03  0.50559365412E+03  0.00000000000E+00 0.  1.
         25    2    1    2    0    0  0.57804755351E+02  0.40702617792E+02 -0.24012315245E+03  0.27982807053E+03  0.12508608187E+03 0.  0.
          5    1    3    3  502    0  0.31266816894E+02 -0.11968512484E+02 -0.21143324040E+03  0.21410825924E+03  0.41800000000E+01 0. -1.
         -5    1    3    3    0  502  0.26537938457E+02  0.52671130276E+02 -0.28689912044E+02  0.65719811284E+02  0.41800000000E+01 0. -1.
        -11    1    1    2    0    0  0.36064713956E+01 -0.39230732201E+02 -0.30013083498E+02  0.49526176574E+02  0.00000000000E+00 0. -1.
         11    1    1    2    0    0 -0.61411226746E+02 -0.14718855907E+01 -0.20126554362E+03  0.21043128158E+03  0.00000000000E+00 0.  1.
</event>
<event>
 7    1  0.2842702E-009  0.1110975E+03  0.7561462E-02  0.1258551E+00
          2   -1    0    0  501    0  0.00000000000E+00  0.00000000000E+00  0.12734955861E+03  0.12734955861E+03  0.00000000000E+00 0. -1.
         -2   -1    0    0    0  501 -0.00000000000E+00 -0.00000000000E+00 -0.15549177192E+03  0.15549177192E+03  0.00000000000E+00 0.  1.
         25    2    1    2    0    0 -0.32932720926E+01  0.39105578220E+02  0.65424899173E+02  0.14652081891E+03  0.12509133085E+03 0.  0.
          5    1    3    3  502    0  0.52564427198E+02 -0.12865543024E+02  0.21465416741E+02  0.58367608481E+02  0.41800000000E+01 0. -1.
         -5    1    3    3    0  502 -0.55857699291E+02  0.51971121244E+02  0.43959482432E+02  0.88153210430E+02  0.41800000000E+01 0. -1.
        -11    1    1    2    0    0  0.36762980390E+02  0.39482723918E+01 -0.64944849283E+02  0.74732449648E+02  0.00000000000E+00 0.  1.
         11    1    1    2    0    0 -0.33469708298E+02 -0.43053850612E+02 -0.28622263207E+02  0.61588061969E+02  0.00000000000E+00 0. -1.
</event>
<event>
 7    1  0.2842702E-009  0.9330176E+02  0.7561462E-02  0.1295047E+00
         -1   -1    0    0    0  501 -0.00000000000E+00  0.00000000000E+00  0.11544917659E+03  0.11544917659E+03  0.00000000000E+00 0.  1.
          1   -1    0    0  501    0  0.00000000000E+00 -0.00000000000E+00 -0.14801640922E+03  0.14801640922E+03  0.00000000000E+00 0. -1.
         25    2    1    2    0    0  0.54603048374E+02 -0.26668650224E+02 -0.57052886018E+02  0.15030860390E+03  0.12507971381E+03 0.  0.
          5    1    3    3  502    0  0.64093026544E+02 -0.58306135404E+02 -0.73016163333E+02  0.11338586325E+03  0.41800000000E+01 0.  1.
         -5    1    3    3    0  502 -0.94899781697E+01  0.31637485180E+02  0.15963277315E+02  0.36922740646E+02  0.41800000000E+01 0.  1.
        -11    1    1    2    0    0 -0.28040140200E+02 -0.11966155814E+01  0.56500350673E+02  0.63087011163E+02  0.00000000000E+00 0.  1.
         11    1    1    2    0    0 -0.26562908174E+02  0.27865265805E+02 -0.32014697278E+02  0.50069970749E+02  0.00000000000E+00 0. -1.
</event>
<event>
 7    1  0.2842702E-009  0.1866869E+03  0.7561462E-02  0.1161484E+00
         -1   -1    0    0    0  501 -0.00000000000E+00  0.00000000000E+00  0.18823131572E+03  0.18823131572E+03  0.00000000000E+00 0.  1.
          1   -1    0    0  501    0  0.00000000000E+00 -0.00000000000E+00 -0.26173691686E+03  0.26173691686E+03  0.00000000000E+00 0. -1.
         25    2    1    2    0    0 -0.16160342957E+03  0.88850655768E+01  0.68591249219E+02  0.21574535170E+03  0.12508670781E+03 0.  0.
          5    1    3    3  502    0  0.16038999539E+02 -0.10472622524E+02  0.24986815168E+02  0.31760646419E+02  0.41800000000E+01 0.  1.
         -5    1    3    3    0  502 -0.17764242911E+03  0.19357688101E+02  0.43604434051E+02  0.18398470528E+03  0.41800000000E+01 0.  1.
        -11    1    1    2    0    0  0.37970613870E+02 -0.31506070607E+02 -0.72234995765E+01  0.49865608880E+02  0.00000000000E+00 0.  1.
         11    1    1    2    0    0  0.12363281570E+03  0.22621005030E+02 -0.13487335078E+03  0.18435727200E+03  0.00000000000E+00 0. -1.
</event>
<event>
 7    1  0.2842702E-009  0.9313333E+02  0.7561462E-02  0.1295436E+00
          2   -1    0    0  501    0  0.00000000000E+00  0.00000000000E+00  0.91656567604E+03  0.91656567604E+03  0.00000000000E+00 0. -1.
         -2   -1    0    0    0  501 -0.00000000000E+00 -0.00000000000E+00 -0.15853965536E+02  0.15853965536E+02  0.00000000000E+00 0.  1.
         25    2    1    2    0    0  0.40846834267E+02 -0.27801964481E+02  0.55466666280E+03  0.57074012672E+03  0.12509105614E+03 0.  0.
          5    1    3    3  502    0  0.41303342084E+02 -0.47242300586E+02  0.54501602544E+03  0.54863261060E+03  0.41800000000E+01 0.  1.
         -5    1    3    3    0  502 -0.45650781659E+00  0.19440336105E+02  0.96506373596E+01  0.22107516114E+02  0.41800000000E+01 0.  1.
        -11    1    1    2    0    0  0.20137627981E+02  0.36693918195E+02  0.17286628707E+03  0.17786152169E+03  0.00000000000E+00 0. -1.
         11    1    1    2    0    0 -0.60984462248E+02 -0.88919537145E+01  0.17317876064E+03  0.18381799317E+03  0.00000000000E+00 0.  1.
</event>
<event>
 6    1  0.2842702E-009  0.1133004E+03  0.7561462E-02  0.1254577E+00
          3   -1    0    0  501    0  0.00000000000E+00  0.00000000000E+00  0.19369250255E+02  0.19369250255E+02  0.00000000000E+00 0. -1.
         -3   -1    0    0    0  501 -0.00000000000E+00 -0.00000000000E+00 -0.84115042314E+03  0.84115042314E+03  0.00000000000E+00 0.  1.
          5    1    1    2  502    0 -0.32378296653E+02  0.34911587130E+02 -0.10616692644E+03  0.11643050150E+03  0.41800000000E+01 0. -1.
         -5    1    1    2    0  502 -0.95949563633E+01 -0.79099854499E+02 -0.44390319749E+03  0.45101704104E+03  0.41800000000E+01 0. -1.
        -11    1    1    2    0    0  0.60803596941E+02  0.50618247856E+02 -0.25530626558E+03  0.26728369510E+03  0.00000000000E+00 0.  1.
         11    1    1    2    0    0 -0.18830343925E+02 -0.64299804868E+01 -0.16404783376E+02  0.25788435761E+02  0.00000000000E+00 0. -1.
</event>
<event>
 7    1  0.2842702E-009  0.1121481E+03  0.7561462E-02  0.1256643E+00
         -1   -1    0    0    0  501 -0.00000000000E+00  0.00000000000E+00  0.43671917067E+03  0.43671917067E+03  0.00000000000E+00 0.  1.
          1   -1    0    0  501    0  0.00000000000E+00 -0.00000000000E+00 -0.37973066386E+02  0.37973066386E+02  0.00000000000E+00 0. -1.
         25    2    1    2    0    0 -0.50807439394E+02  0.49944376057E+02  0.27186615280E+03  0.30763065999E+03  0.12509828670E+03 0.  0.
          5    1    3    3  502    0 -0.89718116630E+02  0.34310067257E+02  0.14527365455E+03  0.17420800289E+03  0.41800000000E+01 0. -1.
         -5    1    3    3    0  502  0.38910677235E+02  0.15634308800E+02  0.12659249825E+03  0.13342265710E+03  0.41800000000E+01 0. -1.
        -11    1    1    2    0    0  0.24757454803E+02 -0.54224771932E+02  0.12740159590E+03  0.14065711534E+03  0.00000000000E+00 0.  1.
         11    1    1    2    0    0  0.26049984591E+02  0.42803958750E+01 -0.52164440527E+00  0.26404461724E+02  0.00000000000E+00 0. -1.
</event>
<event>
 7    1  0.2842702E-009  0.9978671E+02  0.7561462E-02  0.1280745E+00
         -1   -1    0    0    0  501 -0.00000000000E+00  0.00000000000E+00  0.26781010713E+03  0.26781010713E+03  0.00000000000E+00 0.  1.
          1   -1    0    0  501    0  0.00000000000E+00 -0.00000000000E+00 -0.63345463735E+02  0.63345463735E+02  0.00000000000E+00 0. -1.
         25    2    1    2    0    0  0.44266612291E+02  0.38130179858E+02  0.62726371513E+02  0.15164140232E+03  0.12508826338E+03 0.  0.
          5    1    3    3  502    0  0.34872424428E+02  0.82852531264E+02  0.28501946862E+02  0.94395239802E+02  0.41800000000E+01 0. -1.
         -5    1    3    3    0  502  0.93941878627E+01 -0.44722351405E+02  0.34224424650E+02  0.57246162522E+02  0.41800000000E+01 0. -1.
        -11    1    1    2    0    0 -0.89782857996E+01 -0.24102870753E+02 -0.64669450544E+01  0.26521300359E+02  0.00000000000E+00 0. -1.
         11    1    1    2    0    0 -0.35288326491E+02 -0.14027309106E+02  0.14820521694E+03  0.15299286819E+03  0.00000000000E+00 0.  1.
</event>
<event>
 7    1  0.2842702E-009  0.1021927E+03  0.7561462E-02  0.1275751E+00
          1   -1    0    0  501    0  0.00000000000E+00  0.00000000000E+00  0.48403517220E+02  0.48403517220E+02  0.00000000000E+00 0. -1.
         -1   -1    0    0    0  501 -0.00000000000E+00 -0.00000000000E+00 -0.32366011994E+03  0.32366011994E+03  0.00000000000E+00 0.  1.
         25    2    1    2    0    0  0.46261101453E+02  0.94164999195E+01 -0.99711006237E+02  0.16678967454E+03  0.12509097005E+03 0.  0.
          5    1    3    3  502    0  0.63789483882E+01 -0.44451046375E+02  0.17305881369E+01  0.45133732857E+02  0.41800000000E+01 0.  1.
         -5    1    3    3    0  502  0.39882153065E+02  0.53867546294E+02 -0.10144159437E+03  0.12165594168E+03  0.41800000000E+01 0.  1.
        -11    1    1    2    0    0 -0.65108067907E+02  0.90619984436E+01 -0.68167478125E+02  0.94699447709E+02  0.00000000000E+00 0. -1.
         11    1    1    2    0    0  0.18846966454E+02 -0.18478498363E+02 -0.10737811836E+03  0.11057451491E+03  0.00000000000E+00 0.  1.
</event>
<event>
 7    1  0.2842702E-009  0.9752865E+02  0.7561462E-02  0.1285580E+00
         -2   -1    0    0    0  501 -0.00000000000E+00  0.00000000000E+00  0.16553037782E+03  0.16553037782E+03  0.00000000000E+00 0.  1.
          2   -1    0    0  501    0  0.00000000000E+00 -0.00000000000E+00 -0.78478704044E+02  0.78478704044E+02  0.00000000000E+00 0. -1.
         25    2    1    2    0    0  0.75596359239E+00  0.32432255505E+02  0.38369316463E+02  0.13481663912E+03  0.12510355335E+03 0.  0.
          5    1    3    3  502    0 -0.15901048691E+02 -0.39324280986E+02  0.43441520617E+02  0.60859514770E+02  0.41800000000E+01 0. -1.
         -5    1    3    3    0  502  0.16657012284E+02  0.71756536491E+02 -0.50722041532E+01  0.73957124352E+02  0.41800000000E+01 0. -1.
        -11    1    1    2    0    0  0.32739070892E+02 -0.10561538809E+01  0.53826308926E+02  0.63009790957E+02  0.00000000000E+00 0.  1.
         11    1    1    2    0    0 -0.33495034484E+02 -0.31376101624E+02 -0.51439516087E+01  0.46182651790E+02  0.00000000000E+00 0. -1.
</event>
<event>
 7    1  0.2842702E-009  0.1164376E+03  0.7561462E-02  0.1249092E+00
          2   -1    0    0  501    0  0.00000000000E+00  0.00000000000E+00  0.60758702270E+03  0.60758702270E+03  0.00000000000E+00 0. -1.
         -2   -1    0    0    0  501 -0.00000000000E+00 -0.00000000000E+00 -0.46851742489E+02  0.46851742489E+02  0.00000000000E+00 0.  1.
         25    2    1    2    0    0 -0.36243194660E+02 -0.61574969025E+02  0.50602599588E+03  0.52613181791E+03  0.12508930946E+03 0.  0.
          5    1    3    3  502    0 -0.79262360674E+02 -0.62065941752E+02  0.36175471232E+03  0.37552449618E+03  0.41800000000E+01 0.  1.
         -5    1    3    3    0  502  0.43019166014E+02  0.49097272752E+00  0.14427128356E+03  0.15060732173E+03  0.41800000000E+01 0.  1.
        -11    1    1    2    0    0  0.47103511464E+02  0.30855586071E+02  0.72012775000E+02  0.91414702030E+02  0.00000000000E+00 0. -1.
         11    1    1    2    0    0 -0.10860316804E+02  0.30719382954E+02 -0.17303490669E+02  0.36892245248E+02  0.00000000000E+00 0.  1.
</event>
<event>
 7    1  0.2842702E-009  0.1047348E+03  0.7561462E-02  0.1270643E+00
         -1   -1    0    0    0  501 -0.00000000000E+00  0.00000000000E+00  0.61186550133E+03  0.61186550133E+03  0.00000000000E+00 0.  1.
          1   -1    0    0  501    0  0.00000000000E+00 -0.00000000000E+00 -0.21798688307E+02  0.21798688307E+02  0.00000000000E+00 0. -1.
         25    2    1    2    0    0 -0.18709031874E+02 -0.35855371995E+02  0.32546806858E+03  0.35101681010E+03  0.12509077397E+03 0.  0.
          5    1    3    3  502    0  0.44838440110E+02 -0.74724340484E+00  0.20831716097E+03  0.21313037334E+03  0.41800000000E+01 0.  1.
         -5    1    3    3    0  502 -0.63547471985E+02 -0.35108128590E+02  0.11715090761E+03  0.13788643676E+03  0.41800000000E+01 0.  1.
        -11    1    1    2    0    0  0.39189731202E+02 -0.10889881312E+02  0.17372908674E+03  0.17842707229E+03  0.00000000000E+00 0.  1.
         11    1    1    2    0    0 -0.20480699327E+02  0.46745253307E+02  0.90869657699E+02  0.10422030724E+03  0.00000000000E+00 0. -1.
</event>
<event>
 7    1  0.2842702E-009  0.2030042E+03  0.7561462E-02  0.1147229E+00
          1   -1    0    0  501    0  0.00000000000E+00  0.00000000000E+00  0.46599656994E+02  0.46599656994E+02  0.00000000000E+00 0. -1.
         -1   -1    0    0    0  501 -0.00000000000E+00 -0.00000000000E+00 -0.10190997405E+04  0.10190997405E+04  0.00000000000E+00 0.  1.
         25    2    1    2    0    0  0.17956055892E+03  0.29033824670E+02 -0.62190976041E+03  0.65992728261E+03  0.12508921196E+03 0.  0.
          5    1    3    3  502    0  0.11427875870E+03  0.60389680398E+02 -0.51314913210E+03  0.52919377582E+03  0.41800000000E+01 0. -1.
         -5    1    3    3    0  502  0.65281800221E+02 -0.31355855729E+02 -0.10876062831E+03  0.13073350679E+03  0.41800000000E+01 0. -1.
        -11    1    1    2    0    0 -0.12861369231E+03  0.23746063396E+02 -0.21701093664E+03  0.25337542106E+03  0.00000000000E+00 0.  1.
         11    1    1    2    0    0 -0.50946866604E+02 -0.52779888066E+02 -0.13357938645E+03  0.15239669381E+03  0.00000000000E+00 0. -1.
</event>
<event>
 7    1  0.2842702E-009  0.6828342E+02  0.7561462E-02  0.1366030E+00
         -1   -1    0    0    0  501 -0.00000000000E+00  0.00000000000E+00  0.17496622665E+02  0.17496622665E+02  0.00000000000E+00 0.  1.
          1   -1    0    0  501    0  0.00000000000E+00 -0.00000000000E+00 -0.72313518135E+03  0.72313518135E+03  0.00000000000E+00 0. -1.
         25    2    1    2    0    0 -0.26002642103E+02  0.11617413186E+02 -0.42645374070E+03  0.44533261601E+03  0.12508894529E+03 0.  0.
          5    1    3    3  502    0 -0.14949936830E+02  0.22083301490E+02 -0.10318947485E+02  0.28898544827E+02  0.41800000000E+01 0. -1.
         -5    1    3    3    0  502 -0.11052705273E+02 -0.10465888304E+02 -0.41613479322E+03  0.41643407118E+03  0.41800000000E+01 0. -1.
        -11    1    1    2    0    0 -0.29228013674E+02 -0.23248039727E+02 -0.14488706660E+03  0.14962289331E+03  0.00000000000E+00 0. -1.
         11    1    1    2    0    0  0.55230655777E+02  0.11630626541E+02 -0.13429775138E+03  0.14567629470E+03  0.00000000000E+00 0.  1.
</event>
<event>
 7    1  0.2842702E-009  0.1694703E+03  0.7561462E-02  0.1178401E+00
          2   -1    0    0  501    0  0.00000000000E+00  0.00000000000E+00  0.10446039481E+04  0.10446039481E+04  0.00000000000E+00 0. -1.
         -2   -1    0    0    0  501 -0.00000000000E+00 -0.00000000000E+00 -0.32999732643E+02  0.32999732643E+02  0.00000000000E+00 0.  1.
         25    2    1    2    0    0 -0.12480606096E+03 -0.79062062686E+02  0.45076169653E+03  0.49057002898E+03  0.12508190779E+03 0.  0.
          5    1    3    3  502    0 -0.96987066264E+02 -0.18397514974E+02  0.38233168715E+03  0.39489232834E+03  0.41800000000E+01 0.  1.
         -5    1    3    3    0  502 -0.27818994697E+02 -0.60664547712E+02  0.68430009380E+02  0.95677700635E+02  0.41800000000E+01 0.  1.
        -11    1    1    2    0    0  0.45096940211E+02  0.81912096826E+02  0.31371916417E+03  0.32735766310E+03  0.00000000000E+00 0.  1.
         11    1    1    2    0    0  0.79709120750E+02 -0.28500341402E+01  0.24712335473E+03  0.25967598864E+03  0.00000000000E+00 0. -1.
</event>
<event>
 7    1  0.2842702E-009  0.1003879E+03  0.7561462E-02  0.1279482E+00
          1   -1    0    0  501    0  0.00000000000E+00  0.00000000000E+00  0.40039651370E+02  0.40039651370E+02  0.00000000000E+00 0. -1.
         -1   -1    0    0    0  501 -0.00000000000E+00 -0.00000000000E+00 -0.30777707948E+03  0.30777707948E+03  0.00000000000E+00 0.  1.
         25    2    1    2    0    0 -0.11505783612E+02  0.19783383487E+01 -0.12745063108E+03  0.17896267755E+03  0.12509068597E+03 0.  0.
          5    1    3    3  502    0 -0.19443314028E+02 -0.50715718913E+02 -0.18370140635E+02  0.57489660568E+02  0.41800000000E+01 0.  1.
         -5    1    3    3    0  502  0.79375304165E+01  0.52694057262E+02 -0.10908049045E+03  0.12147301699E+03  0.41800000000E+01 0.  1.
        -11    1    1    2    0    0  0.38818133912E+02  0.31250992336E+02 -0.88176281705E+02  0.10128439513E+03  0.00000000000E+00 0.  1.
         11    1    1    2    0    0 -0.27312350300E+02 -0.33229330685E+02 -0.52110515319E+02  0.67569658158E+02  0.00000000000E+00 0. -1.
</event>
<event>
 7    1  0.2842702E-009  0.1056183E+03  0.7561462E-02  0.1268906E+00
         -1   -1    0    0    0  501 -0.00000000000E+00  0.00000000000E+00  0.18301751567E+02  0.18301751567E+02  0.00000000000E+00 0.  1.
          1   -1    0    0  501    0  0.00000000000E+00 -0.00000000000E+00 -0.79234525042E+03  0.79234525042E+03  0.00000000000E+00 0. -1.
         25    2    1    2    0    0 -0.26883843179E+02  0.26417361159E+02 -0.55578239311E+03  0.57093145309E+03  0.12509211665E+03 0.  0.
          5    1    3    3  502    0 -0.14845204939E+02 -0.49710708204E+02 -0.26606530953E+03  0.27110838415E+03  0.41800000000E+01 0. -1.
         -5    1    3    3    0  502 -0.12038638240E+02  0.76128069363E+02 -0.28971708357E+03  0.29982306894E+03  0.41800000000E+01 0. -1.
        -11    1    1    2    0    0  0.42661937806E+02  0.86658872335E+01 -0.46492530670E+02  0.63692181208E+02  0.00000000000E+00 0.  1.
         11    1    1    2    0    0 -0.15778094627E+02 -0.35083248393E+02 -0.17176857508E+03  0.17602336769E+03  0.00000000000E+00 0. -1.
</event>
<event>
 7    1  0.2842702E-009  0.9903263E+02  0.7561462E-02  0.1282343E+00
         -2   -1    0    0    0  501 -0.00000000000E+00  0.00000000000E+00  0.15320440432E+02  0.15320440432E+02  0.00000000000E+00 0.  1.
          2   -1    0    0  501    0  0.00000000000E+00 -0.00000000000E+00 -0.97674993691E+03  0.97674993691E+03  0.00000000000E+00 0. -1.
         25    2    1    2    0    0  0.23915462451E+02 -0.49573306852E+02 -0.49678122380E+03  0.51523907995E+03  0.12510101155E+03 0.  0.
          5    1    3    3  502    0 -0.26313536262E+02 -0.20464066178E+02 -0.40608799458E+03  0.40747528997E+03  0.41800000000E+01 0.  1.
         -5    1    3    3    0  502  0.50228998713E+02 -0.29109240674E+02 -0.90693229217E+02  0.10776378998E+03  0.41800000000E+01 0.  1.
        -11    1    1    2    0    0  0.31202851916E+02  0.39328260489E+02 -0.19007613550E+03  0.19659416911E+03  0.00000000000E+00 0.  1.
         11    1    1    2    0    0 -0.55118314367E+02  0.10245046362E+02 -0.27457213718E+03  0.28023712829E+03  0.00000000000E+00 0. -1.
</event>
<event>
 7    1  0.3768686E-009  0.1180148E+03  0.7561462E-02  0.1246408E+00
         -3   -1    0    0    0  501 -0.00000000000E+00  0.00000000000E+00  0.31303163518E+03  0.31303163518E+03  0.00000000000E+00 0.  1.
          3   -1    0    0  501    0  0.00000000000E+00 -0.00000000000E+00 -0.49372955632E+02  0.49372955632E+02  0.00000000000E+00 0. -1.
         25    2    1    2    0    0 -0.45640483218E+02 -0.27225903253E+02  0.10480984290E+03  0.17162953824E+03  0.12508913506E+03 0.  0.
          5    1    3    3  502    0 -0.63338114056E+02 -0.66414676350E+02  0.79938359909E+02  0.12177947164E+03  0.41800000000E+01 0. -1.
         -5    1    3    3    0  502  0.17697630838E+02  0.39188773097E+02  0.24871482993E+02  0.49850066604E+02  0.41800000000E+01 0. -1.
        -11    1    1    2    0    0  0.55076116956E+02 -0.15489041487E+02  0.11698595935E+03  0.13022673977E+03  0.00000000000E+00 0.  1.
         11    1    1    2    0    0 -0.94356337378E+01  0.42714944739E+02  0.41862877294E+02  0.60548312804E+02  0.00000000000E+00 0. -1.
</event>
<event>
 7    1  0.2842702E-009  0.9053378E+02  0.7561462E-02  0.1301564E+00
         -2   -1    0    0    0  501 -0.00000000000E+00  0.00000000000E+00  0.17690161489E+02  0.17690161489E+02  0.00000000000E+00 0.  1.
          2   -1    0    0  501    0  0.00000000000E+00 -0.00000000000E+00 -0.73312940983E+03  0.73312940983E+03  0.00000000000E+00 0. -1.
         25    2    1    2    0    0 -0.17959533404E+01  0.31713207417E+02 -0.35786052691E+03  0.38042268358E+03  0.12509319921E+03 0.  0.
          5    1    3    3  502    0  0.30700498065E+02 -0.10285746178E+02 -0.19779208696E+02  0.38170756509E+02  0.41800000000E+01 0.  1.
         -5    1    3    3    0  502 -0.32496451405E+02  0.41998953595E+02 -0.33808131822E+03  0.34225192707E+03  0.41800000000E+01 0.  1.
        -11    1    1    2    0    0 -0.39810349670E+02 -0.35547497309E+02 -0.16823590258E+03  0.17649874624E+03  0.00000000000E+00 0.  1.
         11    1    1    2    0    0  0.41606303011E+02  0.38342898923E+01 -0.18934281885E+03  0.19389814150E+03  0.00000000000E+00 0. -1.
</event>
<event>
 7    1  0.2842702E-009  0.2165413E+03  0.7561462E-02  0.1136488E+00
          2   -1    0    0  501    0  0.00000000000E+00  0.00000000000E+00  0.93227392578E+03  0.93227392578E+03  0.00000000000E+00 0. -1.
         -2   -1    0    0    0  501 -0.00000000000E+00 -0.00000000000E+00 -0.57942939298E+02  0.57942939298E+02  0.00000000000E+00 0.  1.
         25    2    1    2    0    0 -0.34248530648E+02  0.19781518577E+03  0.54744226262E+03  0.59635933702E+03  0.12509044077E+03 0.  0.
          5    1    3    3  502    0 -0.62462520624E+02  0.17435636709E+03  0.51463054265E+03  0.54695866120E+03  0.41800000000E+01 0.  1.
         -5    1    3    3    0  502  0.28213989976E+02  0.23458818680E+02  0.32811719967E+02  0.49400675819E+02  0.41800000000E+01 0.  1.
        -11    1    1    2    0    0  0.48573780206E+02 -0.91234208044E+02  0.10529108184E+03  0.14754424677E+03  0.00000000000E+00 0. -1.
         11    1    1    2    0    0 -0.14325249558E+02 -0.10658097773E+03  0.22159764203E+03  0.24631328129E+03  0.00000000000E+00 0.  1.
</event>
<event>
 7    1  0.2842702E-009  0.2473527E+03  0.7561462E-02  0.1114989E+00
         -1   -1    0    0    0  501 -0.00000000000E+00  0.00000000000E+00  0.10158379324E+03  0.10158379324E+03  0.00000000000E+00 0.  1.
          1   -1    0    0  501    0  0.00000000000E+00 -0.00000000000E+00 -0.63550885274E+03  0.63550885274E+03  0.00000000000E+00 0. -1.
         25    2    1    2    0    0 -0.52115508357E+02  0.22327784787E+03 -0.27477670839E+03  0.37910768388E+03  0.12510544731E+03 0.  0.
          5    1    3    3  502    0 -0.69720300501E+02  0.51019164082E+02 -0.72971197946E+02  0.11316423258E+03  0.41800000000E+01 0. -1.
         -5    1    3    3    0  502  0.17604792144E+02  0.17225868379E+03 -0.20180551044E+03  0.26594345130E+03  0.41800000000E+01 0. -1.
        -11    1    1    2    0    0 -0.79074930253E+01 -0.69159055214E+02 -0.13249185175E+03  0.14966493960E+03  0.00000000000E+00 0. -1.
         11    1    1    2    0    0  0.60023001383E+02 -0.15411879265E+03 -0.12665649936E+03  0.20832002250E+03  0.00000000000E+00 0.  1.
</event>
<event>
 7    1  0.2842702E-009  0.3002011E+03  0.7561462E-02  0.1085140E+00
          2   -1    0    0  501    0  0.00000000000E+00  0.00000000000E+00  0.65144100260E+02  0.65144100260E+02  0.00000000000E+00 0. -1.
         -2   -1    0    0    0  501 -0.00000000000E+00 -0.00000000000E+00 -0.13946342720E+04  0.13946342720E+04  0.00000000000E+00 0.  1.
         25    2    1    2    0    0  0.79090957515E+02  0.26961485607E+03 -0.68079452681E+03  0.74704496539E+03  0.12508973740E+03 0.  0.
          5    1    3    3  502    0 -0.12012484624E+02  0.17744092570E+03 -0.39445715926E+03  0.43271642538E+03  0.41800000000E+01 0. -1.
         -5    1    3    3    0  502  0.91103442138E+02  0.92173930371E+02 -0.28633736755E+03  0.31432854001E+03  0.41800000000E+01 0. -1.
        -11    1    1    2    0    0 -0.43177558962E+02 -0.35250260419E+02 -0.16275153518E+03  0.17203181293E+03  0.00000000000E+00 0.  1.
         11    1    1    2    0    0 -0.35913398552E+02 -0.23436459565E+03 -0.48594410978E+03  0.54070159397E+03  0.00000000000E+00 0. -1.
</event>
<event>
 7    1  0.2842702E-009  0.1191564E+03  0.7561462E-02  0.1244495E+00
          1   -1    0    0  501    0  0.00000000000E+00  0.00000000000E+00  0.11361941936E+03  0.11361941936E+03  0.00000000000E+00 0. -1.
         -1   -1    0    0    0  501 -0.00000000000E+00 -0.00000000000E+00 -0.15866152306E+03  0.15866152306E+03  0.00000000000E+00 0.  1.
         25    2    1    2    0    0  0.38116345331E+02  0.69447710202E+02 -0.14370139327E+02  0.14876409936E+03  0.12509362942E+03 0.  0.
          5    1    3    3  502    0  0.69058122732E+02  0.89041068036E+01  0.19859669285E+02  0.72527141798E+02  0.41800000000E+01 0. -1.
         -5    1    3    3    0  502 -0.30941777401E+02  0.60543603398E+02 -0.34229808612E+02  0.76236957565E+02  0.41800000000E+01 0. -1.
        -11    1    1    2    0    0 -0.28602308928E+01 -0.64814850703E+02  0.14049100740E+02  0.66381646741E+02  0.00000000000E+00 0. -1.
         11    1    1    2    0    0 -0.35256114438E+02 -0.46328594986E+01 -0.44721065119E+02  0.57135196314E+02  0.00000000000E+00 0.  1.
</event>
<event>
 7    1  0.2842702E-009  0.1246300E+03  0.7561462E-02  0.1235649E+00
         -1   -1    0    0    0  501 -0.00000000000E+00  0.00000000000E+00  0.13278533907E+03  0.13278533907E+03  0.00000000000E+00 0.  1.
          1   -1    0    0  501    0  0.00000000000E+00 -0.00000000000E+00 -0.14134305130E+03  0.14134305130E+03  0.00000000000E+00 0. -1.
         25    2    1    2    0    0  0.28460865339E+02 -0.71984634413E+02  0.26737012506E+02  0.14951105255E+03  0.12508748359E+03 0.  0.
          5    1    3    3  502    0  0.40412196946E+02 -0.96604671292E+02 -0.79839427947E+01  0.10510387205E+03  0.41800000000E+01 0.  1.
         -5    1    3    3    0  502 -0.11951331607E+02  0.24620036880E+02  0.34720955300E+02  0.44407180502E+02  0.41800000000E+01 0.  1.
        -11    1    1    2    0    0 -0.37456552424E+02  0.89534565825E+02 -0.18690525419E+02  0.98837075722E+02  0.00000000000E+00 0.  1.
         11    1    1    2    0    0  0.89956870853E+01 -0.17549931412E+02 -0.16604199321E+02  0.25780262097E+02  0.00000000000E+00 0. -1.
</event>
<event>
 7    1  0.2842702E-009  0.1461508E+03  0.7561462E-02  0.1205284E+00
          1   -1    0    0  501    0  0.00000000000E+00  0.00000000000E+00  0.13237892534E+04  0.13237892534E+04  0.00000000000E+00 0. -1.
         -1   -1    0    0    0  501 -0.00000000000E+00 -0.00000000000E+00 -0.24306782164E+02  0.24306782164E+02  0.00000000000E+00 0.  1.
         25    2    1    2    0    0  0.12969048236E+03  0.59646134136E+02  0.71163000012E+03  0.73650656007E+03  0.12508946170E+03 0.  0.
          5    1    3    3  502    0  0.75477049167E+02  0.12035620459E+02  0.59060211379E+03  0.59554174524E+03  0.41800000000E+01 0.  1.
         -5    1    3    3    0  502  0.54213433193E+02  0.47610513677E+02  0.12102788633E+03  0.14096481483E+03  0.41800000000E+01 0.  1.
        -11    1    1    2    0    0 -0.87828166722E+02 -0.32798599677E+02  0.51447165798E+03  0.52294418619E+03  0.00000000000E+00 0.  1.
         11    1    1    2    0    0 -0.41862315638E+02 -0.26847534460E+02  0.73380813106E+02  0.88645289266E+02  0.00000000000E+00 0. -1.
</event>
<event>
 7    1  0.2842702E-009  0.1062809E+03  0.7561462E-02  0.1267616E+00
          2   -1    0    0  501    0  0.00000000000E+00  0.00000000000E+00  0.18469197493E+04  0.18469197493E+04  0.00000000000E+00 0. -1.
         -2   -1    0    0    0  501 -0.00000000000E+00 -0.00000000000E+00 -0.13094848157E+02  0.13094848157E+02  0.00000000000E+00 0.  1.
         25    2    1    2    0    0 -0.12882816435E+02  0.41678675128E+02  0.15569107876E+04  0.15625370351E+04  0.12509079258E+03 0.  0.
          5    1    3    3  502    0 -0.13959482240E+02  0.81226824523E+02  0.72613563641E+03  0.73080989253E+03  0.41800000000E+01 0. -1.
         -5    1    3    3    0  502  0.10766658052E+01 -0.39548149394E+02  0.83077515123E+03  0.83172714254E+03  0.41800000000E+01 0. -1.
        -11    1    1    2    0    0 -0.32385528337E+02 -0.28414300358E+02  0.21693164818E+03  0.22116856669E+03  0.00000000000E+00 0. -1.
         11    1    1    2    0    0  0.45268344772E+02 -0.13264374770E+02  0.59982465298E+02  0.76308995667E+02  0.00000000000E+00 0.  1.
</event>
<event>
 7    1  0.2842702E-009  0.1689864E+03  0.7561462E-02  0.1178909E+00
         -1   -1    0    0    0  501 -0.00000000000E+00  0.00000000000E+00  0.26584967491E+02  0.26584967491E+02  0.00000000000E+00 0.  1.
          1   -1    0    0  501    0  0.00000000000E+00 -0.00000000000E+00 -0.11354683435E+04  0.11354683435E+04  0.00000000000E+00 0. -1.
         25    2    1    2    0    0  0.16498340442E+02 -0.12965829117E+03 -0.70196174374E+03  0.72490059589E+03  0.12508843488E+03 0.  0.
          5    1    3    3  502    0 -0.12475100061E+02  0.21182040658E+02 -0.14518194467E+03  0.14730776091E+03  0.41800000000E+01 0. -1.
         -5    1    3    3    0  502  0.28973440504E+02 -0.15084033183E+03 -0.55677979907E+03  0.57759283497E+03  0.41800000000E+01 0. -1.
        -11    1    1    2    0    0  0.26476354426E+02  0.10811659438E+03 -0.27038721789E+03  0.29240287776E+03  0.00000000000E+00 0.  1.
         11    1    1    2    0    0 -0.42974694868E+02  0.21541696789E+02 -0.13653441439E+03  0.14474983734E+03  0.00000000000E+00 0. -1.
</event>
<event>
 7    1  0.2842702E-009  0.9081943E+02  0.7561462E-02  0.1300879E+00
          3   -1    0    0  501    0  0.00000000000E+00  0.00000000000E+00  0.25354701695E+03  0.25354701695E+03  0.00000000000E+00 0. -1.
         -3   -1    0    0    0  501 -0.00000000000E+00 -0.00000000000E+00 -0.51757236969E+02  0.51757236969E+02  0.00000000000E+00 0.  1.
         25    2    1    2    0    0 -0.11559725679E+02 -0.39928599641E+01  0.16667018316E+03  0.20874909766E+03  0.12509062968E+03 0.  0.
          5    1    3    3  502    0  0.56331562749E+02 -0.73389872343E+01  0.65640184762E+02  0.86909216720E+02  0.41800000000E+01 0.  1.
         -5    1    3    3    0  502 -0.67891288428E+02  0.33461272703E+01  0.10102999839E+03  0.12183988094E+03  0.41800000000E+01 0.  1.
        -11    1    1    2    0    0  0.10230251362E+02  0.29402375065E+02 -0.19196967355E+02  0.36574325120E+02  0.00000000000E+00 0.  1.
         11    1    1    2    0    0  0.13294743171E+01 -0.25409515101E+02  0.54316564179E+02  0.59980831137E+02  0.00000000000E+00 0. -1.
</event>
<event>
 7    1  0.2842702E-009  0.8481200E+02  0.7561462E-02  0.1315925E+00
         -1   -1    0    0    0  501 -0.00000000000E+00  0.00000000000E+00  0.18902255757E+02  0.18902255757E+02  0.00000000000E+00 0.  1.
          1   -1    0    0  501    0  0.00000000000E+00 -0.00000000000E+00 -0.13199838694E+04  0.13199838694E+04  0.00000000000E+00 0. -1.
         25    2    1    2    0    0  0.28971121395E+02  0.28743709499E+01 -0.11646978442E+04  0.11717580185E+04  0.12509275638E+03 0.  0.
          5    1    3    3  502    0 -0.41362493731E+01  0.29711432679E+02 -0.70601686880E+02  0.76824139312E+02  0.41800000000E+01 0. -1.
         -5    1    3    3    0  502  0.33107370768E+02 -0.26837061729E+02 -0.10940961574E+04  0.10949338792E+04  0.41800000000E+01 0. -1.
        -11    1    1    2    0    0 -0.39198341630E+02 -0.41187448057E+02 -0.83778172780E+02  0.10125066962E+03  0.00000000000E+00 0. -1.
         11    1    1    2    0    0  0.10227220235E+02  0.38313077107E+02 -0.52605596582E+02  0.65877436979E+02  0.00000000000E+00 0.  1.
</event>
<event>
 7    1  0.2842702E-009  0.1721270E+03  0.7561462E-02  0.1175648E+00
         -1   -1    0    0    0  501 -0.00000000000E+00  0.00000000000E+00  0.33832294662E+02  0.33832294662E+02  0.00000000000E+00 0.  1.
          1   -1    0    0  501    0  0.00000000000E+00 -0.00000000000E+00 -0.12139633262E+04  0.12139633262E+04  0.00000000000E+00 0. -1.
         25    2    1    2    0    0 -0.64210117972E+02 -0.11629623254E+03 -0.28774276064E+03  0.34072145702E+03  0.12508981580E+03 0.  0.
          5    1    3    3  502    0 -0.94588625088E+02 -0.11772668788E+03 -0.24959048347E+03  0.29175239995E+03  0.41800000000E+01 0. -1.
         -5    1    3    3    0  502  0.30378507116E+02  0.14304553358E+01 -0.38152277172E+02  0.48969057071E+02  0.41800000000E+01 0. -1.
        -11    1    1    2    0    0  0.47656146213E+02  0.27526058582E+01 -0.27559850597E+03  0.27970202288E+03  0.00000000000E+00 0.  1.
         11    1    1    2    0    0  0.16553971759E+02  0.11354362668E+03 -0.61678976497E+03  0.62737214101E+03  0.00000000000E+00 0. -1.
</event>
<event>
 7    1  0.2842702E-009  0.2163119E+03  0.7561462E-02  0.1136663E+00
          2   -1    0    0  501    0  0.00000000000E+00  0.00000000000E+00  0.74073734938E+03  0.74073734938E+03  0.00000000000E+00 0. -1.
         -2   -1    0    0    0  501 -0.00000000000E+00 -0.00000000000E+00 -0.78273047809E+02  0.78273047809E+02  0.00000000000E+00 0.  1.
         25    2    1    2    0    0 -0.15664968782E+03  0.13760157487E+03  0.43795307095E+03  0.50092228959E+03  0.12508768822E+03 0.  0.
          5    1    3    3  502    0 -0.84424043986E+02  0.64066194441E+02  0.34882889154E+03  0.36459698908E+03  0.41800000000E+01 0.  1.
         -5    1    3    3    0  502 -0.72225643833E+02  0.73535380428E+02  0.89124179416E+02  0.13632530051E+03  0.41800000000E+01 0.  1.
        -11    1    1    2    0    0  0.82524687253E+02 -0.12258137384E+03  0.16756078664E+03  0.22341247601E+03  0.00000000000E+00 0.  1.
         11    1    1    2    0    0  0.74125000566E+02 -0.15020201029E+02  0.56950443974E+02  0.94675631589E+02  0.00000000000E+00 0. -1.
</event>
<event>
 7    1  0.2842702E-009  0.1261840E+03  0.7561462E-02  0.1233230E+00
         -1   -1    0    0    0  501 -0.00000000000E+00  0.00000000000E+00  0.44486684390E+03  0.44486684390E+03  0.00000000000E+00 0.  1.
          1   -1    0    0  501    0  0.00000000000E+00 -0.00000000000E+00 -0.48041860328E+02  0.48041860328E+02  0.00000000000E+00 0. -1.
         25    2    1    2    0    0 -0.74304564628E+02 -0.61680439239E+02  0.18838668524E+03  0.24589036788E+03  0.12508750909E+03 0.  0.
          5    1    3    3  502    0  0.11648793944E+02 -0.23685381656E+02 -0.82019779069E+01  0.27954186559E+02  0.41800000000E+01 0. -1.
         -5    1    3    3    0  502 -0.85953358572E+02 -0.37995057583E+02  0.19658866315E+03  0.21793618132E+03  0.41800000000E+01 0. -1.
        -11    1    1    2    0    0  0.86696039550E+02  0.21214436130E+02  0.12680397071E+03  0.15506612319E+03  0.00000000000E+00 0. -1.
         11    1    1    2    0    0 -0.12391474923E+02  0.40466003109E+02  0.81634327619E+02  0.91952213156E+02  0.00000000000E+00 0.  1.
</event>
<event>
 7    1  0.2842702E-009  0.1119503E+03  0.7561462E-02  0.1257000E+00
          2   -1    0    0  501    0  0.00000000000E+00  0.00000000000E+00  0.16357442353E+04  0.16357442353E+04  0.00000000000E+00 0. -1.
         -2   -1    0    0    0  501 -0.00000000000E+00 -0.00000000000E+00 -0.88468700258E+01  0.88468700258E+01  0.00000000000E+00 0.  1.
         25    2    1    2    0    0 -0.40406595981E+01 -0.33707614291E+02  0.11752082019E+04  0.11823342201E+04  0.12508940856E+03 0.  0.
          5    1    3    3  502    0 -0.39149419502E+02  0.32271591140E+02  0.34169242288E+03  0.34546391548E+03  0.41800000000E+01 0.  1.
         -5    1    3    3    0  502  0.35108759904E+02 -0.65979205432E+02  0.83351577899E+03  0.83687030464E+03  0.41800000000E+01 0.  1.
        -11    1    1    2    0    0 -0.14275752795E+02 -0.29261602702E+02  0.13847423315E+03  0.14225031373E+03  0.00000000000E+00 0. -1.
         11    1    1    2    0    0  0.18316412393E+02  0.62969216993E+02  0.31321493027E+03  0.32000657149E+03  0.00000000000E+00 0.  1.
</event>
<event>
 7    1  0.2842702E-009  0.9046855E+02  0.7561462E-02  0.1301721E+00
          2   -1    0    0  501    0  0.00000000000E+00  0.00000000000E+00  0.14569977586E+04  0.14569977586E+04  0.00000000000E+00 0. -1.
         -2   -1    0    0    0  501 -0.00000000000E+00 -0.00000000000E+00 -0.87540707832E+01  0.87540707832E+01  0.00000000000E+00 0.  1.
         25    2    1    2    0    0  0.10515448277E+02 -0.21266779832E+02  0.92116379062E+03  0.92992107805E+03  0.12509049393E+03 0.  0.
          5    1    3    3  502    0  0.27873714965E+02  0.23341437968E+02  0.87115858025E+02  0.94490273741E+02  0.41800000000E+01 0. -1.
         -5    1    3    3    0  502 -0.17358266688E+02 -0.44608217800E+02  0.83404793259E+03  0.83543080431E+03  0.41800000000E+01 0. -1.
        -11    1    1    2    0    0 -0.49749075337E+02  0.27062413261E+02  0.32459449963E+03  0.32949800287E+03  0.00000000000E+00 0.  1.
         11    1    1    2    0    0  0.39233627061E+02 -0.57956334291E+01  0.20248539754E+03  0.20633274844E+03  0.00000000000E+00 0. -1.
</event>
<event>
 7    1  0.2842702E-009  0.1944239E+03  0.7561462E-02  0.1154531E+00
          2   -1    0    0  501    0  0.00000000000E+00  0.00000000000E+00  0.61331318701E+03  0.61331318701E+03  0.00000000000E+00 0. -1.
         -2   -1    0    0    0  501 -0.00000000000E+00 -0.00000000000E+00 -0.77553777370E+02  0.77553777370E+02  0.00000000000E+00 0.  1.
         25    2    1    2    0    0  0.11896161021E+03 -0.14658706195E+03  0.26073650385E+03  0.34535581839E+03  0.12508990933E+03 0.  0.
          5    1    3    3  502    0  0.44376358719E+02 -0.13497979669E+02  0.14926325276E+03  0.15635999391E+03  0.41800000000E+01 0. -1.
         -5    1    3    3    0  502  0.74585251493E+02 -0.13308908228E+03  0.11147325109E+03  0.18899582448E+03  0.41800000000E+01 0. -1.
        -11    1    1    2    0    0 -0.43280510850E+02  0.67559381742E+02  0.48003533088E+02  0.93497657028E+02  0.00000000000E+00 0.  1.
         11    1    1    2    0    0 -0.75681099362E+02  0.79027680210E+02  0.22701937270E+03  0.25201348897E+03  0.00000000000E+00 0. -1.
</event>
<event>
 7    1  0.2842702E-009  0.1195314E+03  0.7561462E-02  0.1243872E+00
          1   -1    0    0  501    0  0.00000000000E+00  0.00000000000E+00  0.81764443159E+02  0.81764443159E+02  0.00000000000E+00 0. -1.
         -1   -1    0    0    0  501 -0.00000000000E+00 -0.00000000000E+00 -0.25831705102E+03  0.25831705102E+03  0.00000000000E+00 0.  1.
         25    2    1    2    0    0  0.27609934194E+02 -0.93628670085E+02 -0.81415166441E+02  0.17833724315E+03  0.12508839530E+03 0.  0.
          5    1    3    3  502    0  0.63888791965E+02 -0.60207148322E+02 -0.92513668274E+02  0.12760458325E+03  0.41800000000E+01 0.  1.
         -5    1    3    3    0  502 -0.36278857771E+02 -0.33421521762E+02  0.11098501832E+02  0.50732659904E+02  0.41800000000E+01 0.  1.
        -11    1    1    2    0    0 -0.25400227683E+02  0.36319976380E+02  0.67430607988E+01  0.44830582414E+02  0.00000000000E+00 0. -1.
         11    1    1    2    0    0 -0.22097065104E+01  0.57308693704E+02 -0.10188050222E+03  0.11691366862E+03  0.00000000000E+00 0.  1.
</event>
<event>
 7    1  0.2842702E-009  0.1566217E+03  0.7561462E-02  0.1192564E+00
         -1   -1    0    0    0  501 -0.00000000000E+00  0.00000000000E+00  0.15688217528E+02  0.15688217528E+02  0.00000000000E+00 0.  1.
          1   -1    0    0  501    0  0.00000000000E+00 -0.00000000000E+00 -0.22586657429E+04  0.22586657429E+04  0.00000000000E+00 0. -1.
         25    2    1    2    0    0  0.29284886800E+01 -0.13574402531E+03 -0.15965573089E+04  0.16071956195E+04  0.12508997613E+03 0.  0.
          5    1    3    3  502    0  0.28571375580E+02 -0.30472860962E+02 -0.99891460333E+03  0.99979636722E+03  0.41800000000E+01 0.  1.
         -5    1    3    3    0  502 -0.25642886900E+02 -0.10527116435E+03 -0.59764270560E+03  0.60739925226E+03  0.41800000000E+01 0.  1.
        -11    1    1    2    0    0 -0.45641953572E+02  0.85220746431E+02 -0.43570571208E+03  0.44630172651E+03  0.00000000000E+00 0. -1.
         11    1    1    2    0    0  0.42713464892E+02  0.50523278881E+02 -0.21071450438E+03  0.22085661445E+03  0.00000000000E+00 0.  1.
</event>
<event>
 7    1  0.2842702E-009  0.2764948E+03  0.7561462E-02  0.1097619E+00
         -2   -1    0    0    0  501 -0.00000000000E+00  0.00000000000E+00  0.79644976092E+02  0.79644976092E+02  0.00000000000E+00 0.  1.
          2   -1    0    0  501    0  0.00000000000E+00 -0.00000000000E+00 -0.99688192437E+03  0.99688192437E+03  0.00000000000E+00 0. -1.
         25    2    1    2    0    0  0.25975423723E+03  0.72742305480E+01 -0.45732535821E+03  0.54066536106E+03  0.12508945278E+03 0.  0.
          5    1    3    3  502    0  0.15827975683E+02  0.28810809703E+02 -0.11549414895E+03  0.12015389470E+03  0.41800000000E+01 0.  1.
         -5    1    3    3    0  502  0.24392626155E+03 -0.21536579155E+02 -0.34183120926E+03  0.42051146636E+03  0.41800000000E+01 0.  1.
        -11    1    1    2    0    0 -0.49907825587E+02 -0.38172768329E+02 -0.11006991130E+03  0.12674121930E+03  0.00000000000E+00 0. -1.
         11    1    1    2    0    0 -0.20984641164E+03  0.30898537780E+02 -0.34984167877E+03  0.40912032010E+03  0.00000000000E+00 0.  1.
</event>
<event>
 7    1  0.2842702E-009  0.1235217E+03  0.7561462E-02  0.1237398E+00
          2   -1    0    0  501    0  0.00000000000E+00  0.00000000000E+00  0.43991116497E+03  0.43991116497E+03  0.00000000000E+00 0. -1.
         -2   -1    0    0    0  501 -0.00000000000E+00 -0.00000000000E+00 -0.45439112202E+02  0.45439112202E+02  0.00000000000E+00 0.  1.
         25    2    1    2    0    0  0.45049140050E+02  0.73450353148E+02  0.26513405133E+03  0.30556161452E+03  0.12508979053E+03 0.  0.
          5    1    3    3  502    0  0.64371262063E+02  0.22968192497E+02  0.52943405409E+02  0.86554455821E+02  0.41800000000E+01 0.  1.
         -5    1    3    3    0  502 -0.19322122013E+02  0.50482160651E+02  0.21219064592E+03  0.21900715870E+03  0.41800000000E+01 0.  1.
        -11    1    1    2    0    0  0.22856480762E+02 -0.45506528831E+02  0.44941325405E+02  0.67918963539E+02  0.00000000000E+00 0.  1.
         11    1    1    2    0    0 -0.67905620812E+02 -0.27943824317E+02  0.84396676034E+02  0.11186969912E+03  0.00000000000E+00 0. -1.
</event>
<event>
 7    1  0.2842702E-009  0.1025393E+03  0.7561462E-02  0.1275045E+00
          1   -1    0    0  501    0  0.00000000000E+00  0.00000000000E+00  0.42648702798E+03  0.42648702798E+03  0.00000000000E+00 0. -1.
         -1   -1    0    0    0  501 -0.00000000000E+00 -0.00000000000E+00 -0.27605121912E+02  0.27605121912E+02  0.00000000000E+00 0.  1.
         25    2    1    2    0    0 -0.18660428318E+01  0.28938640107E+01  0.22042057237E+03  0.25345342954E+03  0.12506620509E+03 0.  0.
          5    1    3    3  502    0  0.40303573478E+02 -0.39400229952E+02  0.60983700346E+02  0.83145897453E+02  0.41800000000E+01 0.  1.
         -5    1    3    3    0  502 -0.42169616310E+02  0.42294093963E+02  0.15943687202E+03  0.17030753209E+03  0.41800000000E+01 0.  1.
        -11    1    1    2    0    0 -0.25685977658E+02 -0.36877148309E+02  0.64894552533E+02  0.78936661091E+02  0.00000000000E+00 0.  1.
         11    1    1    2    0    0  0.27552020489E+02  0.33983284298E+02  0.11356678116E+03  0.12170205926E+03  0.00000000000E+00 0. -1.
</event>
<event>
 7    1  0.2842702E-009  0.9589559E+02  0.7561462E-02  0.1289172E+00
         -1   -1    0    0    0  501 -0.00000000000E+00  0.00000000000E+00  0.32928159572E+02  0.32928159572E+02  0.00000000000E+00 0. -1.
          1   -1    0    0  501    0  0.00000000000E+00 -0.00000000000E+00 -0.41536594387E+03  0.41536594387E+03  0.00000000000E+00 0.  1.
         25    2    1    2    0    0  0.64781528506E+01  0.33642449886E+02 -0.28244044219E+03  0.31079233584E+03  0.12508194009E+03 0.  0.
          5    1    3    3  502    0  0.42800096650E+02 -0.20831561572E+02 -0.49546190913E+02  0.68833855513E+02  0.41800000000E+01 0. -1.
         -5    1    3    3    0  502 -0.36321943800E+02  0.54474011458E+02 -0.23289425128E+03  0.24195848033E+03  0.41800000000E+01 0. -1.
        -11    1    1    2    0    0  0.29094405265E+02 -0.31326949280E+02 -0.91290775284E+02  0.10080609020E+03  0.00000000000E+00 0.  1.
         11    1    1    2    0    0 -0.35572558116E+02 -0.23155006059E+01 -0.87065668221E+01  0.36695677399E+02  0.00000000000E+00 0. -1.
</event>
<event>
 7    1  0.2842702E-009  0.1221421E+03  0.7561462E-02  0.1239604E+00
          1   -1    0    0  501    0  0.00000000000E+00  0.00000000000E+00  0.67633708815E+03  0.67633708815E+03  0.00000000000E+00 0. -1.
         -1   -1    0    0    0  501 -0.00000000000E+00 -0.00000000000E+00 -0.38603903191E+02  0.38603903191E+02  0.00000000000E+00 0.  1.
         25    2    1    2    0    0 -0.67888772788E+02 -0.97419065037E+02  0.31044246799E+03  0.35513803900E+03  0.12509652718E+03 0.  0.
          5    1    3    3  502    0 -0.26560016380E+02 -0.49117573580E+02  0.22689667435E+02  0.60417413987E+02  0.41800000000E+01 0.  1.
         -5    1    3    3    0  502 -0.41328756408E+02 -0.48301491456E+02  0.28775280056E+03  0.29472062502E+03  0.41800000000E+01 0.  1.
        -11    1    1    2    0    0  0.10357027887E+02 -0.11819278015E+01 -0.25788513276E+01  0.10738503347E+02  0.00000000000E+00 0.  1.
         11    1    1    2    0    0  0.57531744901E+02  0.98600992838E+02  0.32986956830E+03  0.34906444899E+03  0.00000000000E+00 0. -1.
</event>
<event>
 7    1  0.2842702E-009  0.3079116E+03  0.7561462E-02  0.1081351E+00
         -2   -1    0    0    0  501 -0.00000000000E+00  0.00000000000E+00  0.53210657994E+02  0.53210657994E+02  0.00000000000E+00 0.  1.
          2   -1    0    0  501    0  0.00000000000E+00 -0.00000000000E+00 -0.18199307731E+04  0.18199307731E+04  0.00000000000E+00 0. -1.
         25    2    1    2    0    0  0.28989944682E+03 -0.37510027857E+02 -0.95193151847E+03  0.10036289926E+04  0.12509535386E+03 0.  0.
          5    1    3    3  502    0  0.79971025404E+02 -0.63479728245E+02 -0.39072168197E+03  0.40386377154E+03  0.41800000000E+01 0. -1.
         -5    1    3    3    0  502  0.20992842141E+03  0.25969700388E+02 -0.56120983650E+03  0.59976522110E+03  0.41800000000E+01 0. -1.
        -11    1    1    2    0    0 -0.28798319298E+03  0.47516047383E+02 -0.76720752111E+03  0.82085289464E+03  0.00000000000E+00 0.  1.
         11    1    1    2    0    0 -0.19162538356E+01 -0.10006019526E+02 -0.47581075488E+02  0.48659543772E+02  0.00000000000E+00 0. -1.
</event>
<event>
 7    1  0.2842702E-009  0.1348437E+03  0.7561462E-02  0.1220441E+00
         -2   -1    0    0    0  501 -0.00000000000E+00  0.00000000000E+00  0.16829172511E+02  0.16829172511E+02  0.00000000000E+00 0.  1.
          2   -1    0    0  501    0  0.00000000000E+00 -0.00000000000E+00 -0.14294948428E+04  0.14294948428E+04  0.00000000000E+00 0. -1.
         25    2    1    2    0    0  0.77303070269E+02  0.32654653236E+02 -0.11006112350E+04  0.11108727927E+04  0.12510467538E+03 0.  0.
          5    1    3    3  502    0  0.30678125366E+02  0.77773059838E+02 -0.53006129566E+03  0.53663045550E+03  0.41800000000E+01 0. -1.
         -5    1    3    3    0  502  0.46624944903E+02 -0.45118406602E+02 -0.57054993938E+03  0.57424233720E+03  0.41800000000E+01 0. -1.
        -11    1    1    2    0    0 -0.16564503765E+01  0.25494878334E+02 -0.94514251384E+02  0.97906467425E+02  0.00000000000E+00 0. -1.
         11    1    1    2    0    0 -0.75646619893E+02 -0.58149531570E+02 -0.21754018388E+03  0.23754475521E+03  0.00000000000E+00 0.  1.
</event>
<event>
 7    1  0.2842702E-009  0.3366203E+03  0.7561462E-02  0.1068245E+00
          2   -1    0    0  501    0  0.00000000000E+00  0.00000000000E+00  0.17798828324E+03  0.17798828324E+03  0.00000000000E+00 0. -1.
         -2   -1    0    0    0  501 -0.00000000000E+00 -0.00000000000E+00 -0.68097269523E+03  0.68097269523E+03  0.00000000000E+00 0.  1.
         25    2    1    2    0    0 -0.53299501996E+02  0.31667949030E+03 -0.35206867532E+03  0.49267224708E+03  0.12508738712E+03 0.  0.
          5    1    3    3  502    0 -0.76689490046E+02  0.10361077471E+03 -0.11207004899E+03  0.17086146084E+03  0.41800000000E+01 0. -1.
         -5    1    3    3    0  502  0.23389988050E+02  0.21306871558E+03 -0.23999862632E+03  0.32181078624E+03  0.41800000000E+01 0. -1.
        -11    1    1    2    0    0 -0.12211350316E+02 -0.15429290528E+03 -0.98693592697E+02  0.18356427467E+03  0.00000000000E+00 0. -1.
         11    1    1    2    0    0  0.65510852312E+02 -0.16238658502E+03 -0.52222143975E+02  0.18272445673E+03  0.00000000000E+00 0.  1.
</event>
<event>
 7    1  0.2842702E-009  0.1041750E+03  0.7561462E-02  0.1271754E+00
         -1   -1    0    0    0  501 -0.00000000000E+00  0.00000000000E+00  0.12438182860E+03  0.12438182860E+03  0.00000000000E+00 0.  1.
          1   -1    0    0  501    0  0.00000000000E+00 -0.00000000000E+00 -0.15115293971E+03  0.15115293971E+03  0.00000000000E+00 0. -1.
         25    2    1    2    0    0 -0.79546171044E+02  0.13982451730E+02 -0.27381798926E+02  0.15140247135E+03  0.12509933307E+03 0.  0.
          5    1    3    3  502    0 -0.62742259689E+02 -0.29172522364E+02 -0.62340342318E+02  0.93227774254E+02  0.41800000000E+01 0. -1.
         -5    1    3    3    0  502 -0.16803911354E+02  0.43154974094E+02  0.34958543392E+02  0.58174697093E+02  0.41800000000E+01 0. -1.
        -11    1    1    2    0    0  0.73782609810E+00  0.10099174563E+02  0.33807466202E+02  0.35291393926E+02  0.00000000000E+00 0.  1.
         11    1    1    2    0    0  0.78808344945E+02 -0.24081626293E+02 -0.33196778377E+02  0.88840903038E+02  0.00000000000E+00 0. -1.
</event>
<event>
 7    1  0.2842702E-009  0.1052056E+03  0.7561462E-02  0.1269715E+00
         -1   -1    0    0    0  501 -0.00000000000E+00  0.00000000000E+00  0.59116398849E+02  0.59116398849E+02  0.00000000000E+00 0.  1.
          1   -1    0    0  501    0  0.00000000000E+00 -0.00000000000E+00 -0.24373336440E+03  0.24373336440E+03  0.00000000000E+00 0. -1.
         25    2    1    2    0    0 -0.40991681477E+02  0.14383873432E+01 -0.14078149688E+03  0.19274140376E+03  0.12508969563E+03 0.  0.
          5    1    3    3  502    0  0.18582701470E+02  0.37634231739E+02 -0.10730734616E+03  0.11529957126E+03  0.41800000000E+01 0. -1.
         -5    1    3    3    0  502 -0.59574382947E+02 -0.36195844396E+02 -0.33474150719E+02  0.77441832502E+02  0.41800000000E+01 0. -1.
        -11    1    1    2    0    0  0.18120301874E+02  0.43968586921E+02 -0.33647542618E+02  0.58255807436E+02  0.00000000000E+00 0. -1.
         11    1    1    2    0    0  0.22871379603E+02 -0.45406974264E+02 -0.10187926050E+02  0.51852552049E+02  0.00000000000E+00 0.  1.
</event>
<event>
 7    1  0.2842702E-009  0.1622801E+03  0.7561462E-02  0.1186146E+00
         -2   -1    0    0    0  501 -0.00000000000E+00  0.00000000000E+00  0.27702082667E+02  0.27702082667E+02  0.00000000000E+00 0.  1.
          2   -1    0    0  501    0  0.00000000000E+00 -0.00000000000E+00 -0.13879107967E+04  0.13879107967E+04  0.00000000000E+00 0. -1.
         25    2    1    2    0    0  0.12866713171E+03 -0.57460823039E+02 -0.10093887724E+04  0.10268252174E+04  0.12508939322E+03 0.  0.
          5    1    3    3  502    0  0.13692683185E+03 -0.16401343430E+02 -0.88034205819E+03  0.89108785940E+03  0.41800000000E+01 0. -1.
         -5    1    3    3    0  502 -0.82597001384E+01 -0.41059479609E+02 -0.12904671422E+03  0.13573735802E+03  0.41800000000E+01 0. -1.
        -11    1    1    2    0    0 -0.35130689989E+02  0.32100276982E+02 -0.36810901722E+02  0.60163407874E+02  0.00000000000E+00 0.  1.
         11    1    1    2    0    0 -0.93536441722E+02  0.25360546057E+02 -0.31400903995E+03  0.32862425412E+03  0.00000000000E+00 0. -1.
</event>
<event>
 6    1  0.6780088E-009  0.2125250E+03  0.7561462E-02  0.1139582E+00
          1   -1    0    0  501    0  0.00000000000E+00  0.00000000000E+00  0.23833587221E+03  0.23833587221E+03  0.00000000000E+00 0. -1.
         -1   -1    0    0    0  501 -0.00000000000E+00 -0.00000000000E+00 -0.19255403821E+03  0.19255403821E+03  0.00000000000E+00 0.  1.
          5    1    1    2  502    0 -0.74420273886E+02  0.53101399161E+02  0.24364154136E+01  0.91550774317E+02  0.41800000000E+01 0.  1.
         -5    1    1    2    0  502  0.34113216784E+02  0.12621172974E+03  0.76700598330E+01  0.13103211248E+03  0.41800000000E+01 0.  1.
        -11    1    1    2    0    0  0.61187030868E+02 -0.77247024394E+02  0.11357881429E+01  0.98550725715E+02  0.00000000000E+00 0. -1.
         11    1    1    2    0    0 -0.20879973766E+02 -0.10206610450E+03  0.34539570611E+02  0.10975629791E+03  0.00000000000E+00 0.  1.
</event>
<event>
 7    1  0.2842702E-009  0.9542014E+02  0.7561462E-02  0.1290233E+00
         -1   -1    0    0    0  501 -0.00000000000E+00  0.00000000000E+00  0.10333073985E+03  0.10333073985E+03  0.00000000000E+00 0.  1.
          1   -1    0    0  501    0  0.00000000000E+00 -0.00000000000E+00 -0.16291938065E+03  0.16291938065E+03  0.00000000000E+00 0. -1.
         25    2    1    2    0    0  0.22391817743E+02 -0.31214104990E+02 -0.95317818860E+02  0.16188267692E+03  0.12507917750E+03 0.  0.
          5    1    3    3  502    0  0.55010425068E+02 -0.15875873059E+02 -0.10892626213E+03  0.12312836064E+03  0.41800000000E+01 0. -1.
         -5    1    3    3    0  502 -0.32618607325E+02 -0.15338231931E+02  0.13608443269E+02  0.38754316286E+02  0.41800000000E+01 0. -1.
        -11    1    1    2    0    0 -0.42052758096E+01 -0.31535165818E+02  0.18499937737E+02  0.36802156514E+02  0.00000000000E+00 0.  1.
         11    1    1    2    0    0 -0.18186541933E+02  0.62749270808E+02  0.17229240320E+02  0.67565287067E+02  0.00000000000E+00 0. -1.
</event>
<event>
 7    1  0.2842702E-009  0.1227699E+03  0.7561462E-02  0.1238596E+00
         -2   -1    0    0    0  501 -0.00000000000E+00  0.00000000000E+00  0.10498649522E+02  0.10498649522E+02  0.00000000000E+00 0.  1.
          2   -1    0    0  501    0  0.00000000000E+00 -0.00000000000E+00 -0.20700407026E+04  0.20700407026E+04  0.00000000000E+00 0. -1.
         25    2    1    2    0    0  0.82894513340E+02  0.17412710365E+02 -0.14343620794E+04  0.14422957373E+04  0.12509083184E+03 0.  0.
          5    1    3    3  502    0 -0.36731552191E+01  0.35257768206E+02 -0.12637962366E+03  0.13132358495E+03  0.41800000000E+01 0. -1.
         -5    1    3    3    0  502  0.86567668560E+02 -0.17845057841E+02 -0.13079824557E+04  0.13109721523E+04  0.41800000000E+01 0. -1.
        -11    1    1    2    0    0 -0.76794335620E+01  0.30982191720E+02 -0.86757006133E+02  0.92442674219E+02  0.00000000000E+00 0. -1.
         11    1    1    2    0    0 -0.75215079779E+02 -0.48394902085E+02 -0.53842296751E+03  0.54580094056E+03  0.00000000000E+00 0.  1.
</event>
<event>
 7    1  0.2842702E-009  0.1694971E+03  0.7561462E-02  0.1178373E+00
          2   -1    0    0  501    0  0.00000000000E+00  0.00000000000E+00  0.17408222548E+04  0.17408222548E+04  0.00000000000E+00 0. -1.
         -2   -1    0    0    0  501 -0.00000000000E+00 -0.00000000000E+00 -0.19231273390E+02  0.19231273390E+02  0.00000000000E+00 0.  1.
         25    2    1    2    0    0  0.43892662254E+02  0.12860166817E+03  0.11534207636E+04  0.11681150260E+04  0.12509317051E+03 0.  0.
          5    1    3    3  502    0  0.64723777932E+02  0.14191101088E+03  0.89677658344E+03  0.91024920514E+03  0.41800000000E+01 0.  1.
         -5    1    3    3    0  502 -0.20831115678E+02 -0.13309342709E+02  0.25664418013E+03  0.25786582088E+03  0.41800000000E+01 0.  1.
        -11    1    1    2    0    0 -0.39832541623E+02 -0.12538825501E+02  0.81163430531E+02  0.91276261824E+02  0.00000000000E+00 0. -1.
         11    1    1    2    0    0 -0.40601206317E+01 -0.11606284267E+03  0.48700678728E+03  0.50066224032E+03  0.00000000000E+00 0.  1.
</event>
<event>
 7    1  0.2842702E-009  0.1073051E+03  0.7561462E-02  0.1265643E+00
         -2   -1    0    0    0  501 -0.00000000000E+00  0.00000000000E+00  0.40296795012E+03  0.40296795012E+03  0.00000000000E+00 0. -1.
          2   -1    0    0  501    0  0.00000000000E+00 -0.00000000000E+00 -0.34162609583E+02  0.34162609583E+02  0.00000000000E+00 0.  1.
         25    2    1    2    0    0 -0.33115742842E+02  0.16760899322E+02  0.25003940779E+03  0.28203646430E+03  0.12508909454E+03 0.  0.
          5    1    3    3  502    0 -0.73190293214E+02  0.26040916765E+01  0.88510482204E+02  0.11495728848E+03  0.41800000000E+01 0.  1.
         -5    1    3    3    0  502  0.40074550372E+02  0.14156807646E+02  0.16152892559E+03  0.16707917582E+03  0.41800000000E+01 0.  1.
        -11    1    1    2    0    0 -0.28428107525E+02 -0.23165606597E+02  0.56141779737E+02  0.67057453415E+02  0.00000000000E+00 0. -1.
         11    1    1    2    0    0  0.61543850367E+02  0.64047072750E+01  0.62624153003E+02  0.88036641989E+02  0.00000000000E+00 0.  1.
</event>
<event>
 7    1  0.2842702E-009  0.8315319E+02  0.7561462E-02  0.1320334E+00
         -1   -1    0    0    0  501 -0.00000000000E+00  0.00000000000E+00  0.24766976072E+02  0.24766976072E+02  0.00000000000E+00 0.  1.
          1   -1    0    0  501    0  0.00000000000E+00 -0.00000000000E+00 -0.45890033486E+03  0.45890033486E+03  0.00000000000E+00 0. -1.
         25    2    1    2    0    0 -0.66858215861E+01 -0.81281080506E+01 -0.23653097049E+03  0.26777792294E+03  0.12508936670E+03 0.  0.
          5    1    3    3  502    0 -0.19503971175E+02  0.41219826945E+02 -0.19933729219E+03  0.20452947827E+03  0.41800000000E+01 0.  1.
         -5    1    3    3    0  502  0.12818149589E+02 -0.49347934996E+02 -0.37193678300E+02  0.63248444666E+02  0.41800000000E+01 0.  1.
        -11    1    1    2    0    0 -0.89742437637E+01 -0.28309046821E+02 -0.25091386556E+02  0.38878231214E+02  0.00000000000E+00 0.  1.
         11    1    1    2    0    0  0.15660065350E+02  0.36437154872E+02 -0.17251100175E+03  0.17701115678E+03  0.00000000000E+00 0. -1.
</event>
<event>
 7    1  0.2842702E-009  0.1401125E+03  0.7561462E-02  0.1213178E+00
          4   -1    0    0  501    0  0.00000000000E+00  0.00000000000E+00  0.20696783492E+03  0.20696783492E+03  0.00000000000E+00 0. -1.
         -4   -1    0    0    0  501 -0.00000000000E+00 -0.00000000000E+00 -0.11848246499E+03  0.11848246499E+03  0.00000000000E+00 0.  1.
         25    2    1    2    0    0 -0.89957458840E+02 -0.65839182663E+02  0.32858669597E+02  0.17074623071E+03  0.12508973083E+03 0.  0.
          5    1    3    3  502    0 -0.59189324919E+02  0.29923726564E+02  0.19055812898E+02  0.69133219229E+02  0.41800000000E+01 0.  1.
         -5    1    3    3    0  502 -0.30768133922E+02 -0.95762909227E+02  0.13802856699E+02  0.10161301148E+03  0.41800000000E+01 0.  1.
        -11    1    1    2    0    0  0.15825416523E+02  0.34265624703E+01  0.55482849108E+02  0.57797332841E+02  0.00000000000E+00 0. -1.
         11    1    1    2    0    0  0.74132042318E+02  0.62412620192E+02  0.14385122534E+00  0.96906736353E+02  0.00000000000E+00 0.  1.
</event>
<event>
 7    1  0.2842702E-009  0.9227051E+02  0.7561462E-02  0.1297445E+00
          1   -1    0    0  501    0  0.00000000000E+00  0.00000000000E+00  0.22205312492E+03  0.22205312492E+03  0.00000000000E+00 0. -1.
         -1   -1    0    0    0  501 -0.00000000000E+00 -0.00000000000E+00 -0.61380609370E+02  0.61380609370E+02  0.00000000000E+00 0.  1.
         25    2    1    2    0    0 -0.17127195593E+02  0.55930557412E+01  0.14408187173E+03  0.19165438007E+03  0.12508873866E+03 0.  0.
          5    1    3    3  502    0 -0.58534723017E+02 -0.28941397405E+02  0.10919219009E+03  0.12729620992E+03  0.41800000000E+01 0.  1.
         -5    1    3    3    0  502  0.41407527424E+02  0.34534453147E+02  0.34889681637E+02  0.64358170159E+02  0.41800000000E+01 0.  1.
        -11    1    1    2    0    0  0.19974811126E+02  0.26290469134E+02 -0.23463339287E+02  0.40505680309E+02  0.00000000000E+00 0.  1.
         11    1    1    2    0    0 -0.28476155333E+01 -0.31883524875E+02  0.40053983110E+02  0.51273673904E+02  0.00000000000E+00 0. -1.
</event>
<event>
 7    1  0.2842702E-009  0.8493662E+02  0.7561462E-02  0.1315598E+00
         -1   -1    0    0    0  501 -0.00000000000E+00  0.00000000000E+00  0.36819607466E+02  0.36819607466E+02  0.00000000000E+00 0. -1.
          1   -1    0    0  501    0  0.00000000000E+00 -0.00000000000E+00 -0.47800084765E+03  0.47800084765E+03  0.00000000000E+00 0.  1.
         25    2    1    2    0    0 -0.12751549552E+02 -0.48047196285E+02 -0.13285661629E+03  0.18912707174E+03  0.12508810369E+03 0.  0.
          5    1    3    3  502    0 -0.22903905174E+02 -0.88595790797E+01  0.19369280542E+02  0.31555069996E+02  0.41800000000E+01 0. -1.
         -5    1    3    3    0  502  0.10152355622E+02 -0.39187617206E+02 -0.15222589684E+03  0.15757200175E+03  0.41800000000E+01 0. -1.
        -11    1    1    2    0    0  0.46842002935E+02  0.51953272102E+02 -0.22349954406E+03  0.23419086643E+03  0.00000000000E+00 0.  1.
         11    1    1    2    0    0 -0.34090453382E+02 -0.39060758165E+01 -0.84825079822E+02  0.91502516943E+02  0.00000000000E+00 0. -1.
</event>
<event>
 7    1  0.2842702E-009  0.1262203E+03  0.7561462E-02  0.1233174E+00
          2   -1    0    0  501    0  0.00000000000E+00  0.00000000000E+00  0.65450902459E+03  0.65450902459E+03  0.00000000000E+00 0.  1.
         -2   -1    0    0    0  501 -0.00000000000E+00 -0.00000000000E+00 -0.37803280033E+02  0.37803280033E+02  0.00000000000E+00 0. -1.
         25    2    1    2    0    0  0.53802781089E+02 -0.10123382516E+03  0.33456901074E+03  0.37513624638E+03  0.12509098207E+03 0.  0.
          5    1    3    3  502    0  0.57720127016E+02 -0.10344237261E+03  0.34401949663E+03  0.36386649197E+03  0.41800000000E+01 0.  1.
         -5    1    3    3    0  502 -0.39173459268E+01  0.22085474522E+01 -0.94504858947E+01  0.11269754416E+02  0.41800000000E+01 0.  1.
        -11    1    1    2    0    0 -0.39587179428E+02  0.18273561527E+02  0.17807612486E+03  0.18333623229E+03  0.00000000000E+00 0.  1.
         11    1    1    2    0    0 -0.14215601661E+02  0.82960263633E+02  0.10406060896E+03  0.13383982595E+03  0.00000000000E+00 0. -1.
</event>
<event>
 7    1  0.2842702E-009  0.2291809E+03  0.7561462E-02  0.1127218E+00
         -2   -1    0    0    0  501 -0.00000000000E+00  0.00000000000E+00  0.21024630690E+03  0.21024630690E+03  0.00000000000E+00 0.  1.
          2   -1    0    0  501    0  0.00000000000E+00 -0.00000000000E+00 -0.27926427371E+03  0.27926427371E+03  0.00000000000E+00 0. -1.
         25    2    1    2    0    0  0.10346633274E+02 -0.21261555687E+03  0.18394255024E+01  0.24690823315E+03  0.12509142363E+03 0.  0.
          5    1    3    3  502    0  0.58001329058E+02 -0.81011591017E+02  0.29874011625E+02  0.10410072537E+03  0.41800000000E+01 0. -1.
         -5    1    3    3    0  502 -0.47654695784E+02 -0.13160396586E+03 -0.28034586122E+02  0.14280750778E+03  0.41800000000E+01 0. -1.
        -11    1    1    2    0    0 -0.26213167386E+02  0.64137437914E+02 -0.62064655275E+02  0.93020226408E+02  0.00000000000E+00 0. -1.
         11    1    1    2    0    0  0.15866534113E+02  0.14847811896E+03 -0.87927370379E+01  0.14958212105E+03  0.00000000000E+00 0.  1.
</event>
<event>
 7    1  0.2842702E-009  0.1281515E+03  0.7561462E-02  0.1230225E+00
          2   -1    0    0  501    0  0.00000000000E+00  0.00000000000E+00  0.17404371736E+03  0.17404371736E+03  0.00000000000E+00 0. -1.
         -2   -1    0    0    0  501 -0.00000000000E+00 -0.00000000000E+00 -0.12577587476E+03  0.12577587476E+03  0.00000000000E+00 0.  1.
         25    2    1    2    0    0 -0.71030102797E+02 -0.28824206582E+02 -0.36277913496E+02  0.15112657553E+03  0.12508814666E+03 0.  0.
          5    1    3    3  502    0  0.32003619188E+02 -0.26776271584E+02 -0.44012848792E+00  0.41938842070E+02  0.41800000000E+01 0. -1.
         -5    1    3    3    0  502 -0.10303372199E+03 -0.20479349979E+01 -0.35837785008E+02  0.10918773346E+03  0.41800000000E+01 0. -1.
        -11    1    1    2    0    0  0.33860330279E+02 -0.27584297135E+02  0.65106123338E+02  0.78397848894E+02  0.00000000000E+00 0.  1.
         11    1    1    2    0    0  0.37169772518E+02  0.56408503717E+02  0.19439632757E+02  0.70295167703E+02  0.00000000000E+00 0. -1.
</event>
<event>
 7    1  0.2842702E-009  0.9386236E+02  0.7561462E-02  0.1293759E+00
         -2   -1    0    0    0  501 -0.00000000000E+00  0.00000000000E+00  0.56432340788E+02  0.56432340788E+02  0.00000000000E+00 0. -1.
          2   -1    0    0  501    0  0.00000000000E+00 -0.00000000000E+00 -0.28856631890E+03  0.28856631890E+03  0.00000000000E+00 0.  1.
         25    2    1    2    0    0 -0.85012470959E+01 -0.55752583915E+02 -0.19033780986E+03  0.23463819981E+03  0.12508389638E+03 0.  0.
          5    1    3    3  502    0  0.51109381038E+02 -0.18957133508E+02 -0.13373633559E+03  0.14447983111E+03  0.41800000000E+01 0. -1.
         -5    1    3    3    0  502 -0.59610628133E+02 -0.36795450407E+02 -0.56601474267E+02  0.90158368698E+02  0.41800000000E+01 0. -1.
        -11    1    1    2    0    0 -0.44247444860E+01  0.47131386007E+02 -0.66227835077E+02  0.81406830485E+02  0.00000000000E+00 0.  1.
         11    1    1    2    0    0  0.12925991582E+02  0.86211979087E+01  0.24431666818E+02  0.28953629397E+02  0.00000000000E+00 0. -1.
</event>
<event>
 7    1  0.2842702E-009  0.8011189E+02  0.7561462E-02  0.1328734E+00
         -2   -1    0    0    0  501 -0.00000000000E+00  0.00000000000E+00  0.19943787738E+02  0.19943787738E+02  0.00000000000E+00 0.  1.
          2   -1    0    0  501    0  0.00000000000E+00 -0.00000000000E+00 -0.67001883381E+03  0.67001883381E+03  0.00000000000E+00 0. -1.
         25    2    1    2    0    0 -0.24153532198E+02 -0.17783430518E+02 -0.37311349320E+03  0.39465139765E+03  0.12504560504E+03 0.  0.
          5    1    3    3  502    0 -0.11712552816E+02  0.17040720713E+02 -0.14677721772E+01  0.21147028421E+02  0.41800000000E+01 0.  1.
         -5    1    3    3    0  502 -0.12440979382E+02 -0.34824151231E+02 -0.37164572102E+03  0.37350436923E+03  0.41800000000E+01 0.  1.
        -11    1    1    2    0    0 -0.22106284858E+02  0.43638008210E+02 -0.14843149248E+03  0.15628458513E+03  0.00000000000E+00 0. -1.
         11    1    1    2    0    0  0.46259817056E+02 -0.25854577692E+02 -0.12853006039E+03  0.13902663876E+03  0.00000000000E+00 0.  1.
</event>
<event>
 7    1  0.2842702E-009  0.9157291E+02  0.7561462E-02  0.1299087E+00
         -1   -1    0    0    0  501 -0.00000000000E+00  0.00000000000E+00  0.14909360901E+03  0.14909360901E+03  0.00000000000E+00 0.  1.
          1   -1    0    0  501    0  0.00000000000E+00 -0.00000000000E+00 -0.79896819240E+02  0.79896819240E+02  0.00000000000E+00 0. -1.
         25    2    1    2    0    0 -0.24202219814E+01  0.10136029322E+01  0.47289348538E+02  0.13377181206E+03  0.12510687572E+03 0.  0.
          5    1    3    3  502    0  0.29806543084E+02 -0.52763587359E+02  0.33770373252E+02  0.69500623531E+02  0.41800000000E+01 0.  1.
         -5    1    3    3    0  502 -0.32226765066E+02  0.53777190291E+02  0.13518975286E+02  0.64271188529E+02  0.41800000000E+01 0.  1.
        -11    1    1    2    0    0 -0.25795312435E+02  0.12054681873E+02  0.47208740756E+02  0.55130560513E+02  0.00000000000E+00 0.  1.
         11    1    1    2    0    0  0.28215534417E+02 -0.13068284805E+02 -0.25301299526E+02  0.40088055676E+02  0.00000000000E+00 0. -1.
</event>
<event>
 7    1  0.2842702E-009  0.1392644E+03  0.7561462E-02  0.1214322E+00
          2   -1    0    0  501    0  0.00000000000E+00  0.00000000000E+00  0.44554561554E+03  0.44554561554E+03  0.00000000000E+00 0. -1.
         -2   -1    0    0    0  501 -0.00000000000E+00 -0.00000000000E+00 -0.48139272655E+02  0.48139272655E+02  0.00000000000E+00 0.  1.
         25    2    1    2    0    0  0.75751684627E+02  0.55196946647E+02  0.17037556573E+03  0.23121239009E+03  0.12508523210E+03 0.  0.
          5    1    3    3  502    0  0.62613718586E+02 -0.25380017198E+02  0.44112771297E+02  0.80796237658E+02  0.41800000000E+01 0.  1.
         -5    1    3    3    0  502  0.13137966041E+02  0.80576963845E+02  0.12626279443E+03  0.15041615243E+03  0.41800000000E+01 0.  1.
        -11    1    1    2    0    0 -0.96216732070E+02 -0.44809611869E+02  0.20399455397E+03  0.22995508017E+03  0.00000000000E+00 0. -1.
         11    1    1    2    0    0  0.20465047443E+02 -0.10387334777E+02  0.23036223186E+02  0.32517417937E+02  0.00000000000E+00 0.  1.
</event>
<event>
 7    1  0.2842702E-009  0.9124949E+02  0.7561462E-02  0.1299854E+00
          2   -1    0    0  501    0  0.00000000000E+00  0.00000000000E+00  0.60465588561E+02  0.60465588561E+02  0.00000000000E+00 0. -1.
         -2   -1    0    0    0  501 -0.00000000000E+00 -0.00000000000E+00 -0.28730051131E+03  0.28730051131E+03  0.00000000000E+00 0.  1.
         25    2    1    2    0    0 -0.16985783282E+02 -0.27763631863E+02 -0.20349750050E+03  0.24107687481E+03  0.12508993074E+03 0.  0.
          5    1    3    3  502    0  0.19653998550E+02 -0.45528384826E+02 -0.19230658317E+03  0.19864140508E+03  0.41800000000E+01 0.  1.
         -5    1    3    3    0  502 -0.36639781832E+02  0.17764752963E+02 -0.11190917333E+02  0.42435469731E+02  0.41800000000E+01 0.  1.
        -11    1    1    2    0    0  0.34915495049E+02  0.51397337042E+02 -0.38781373832E+02  0.73244610763E+02  0.00000000000E+00 0. -1.
         11    1    1    2    0    0 -0.17929711767E+02 -0.23633705179E+02  0.15443951586E+02  0.33444614292E+02  0.00000000000E+00 0.  1.
</event>
<event>
 7    1  0.2842702E-009  0.1097861E+03  0.7561462E-02  0.1260967E+00
         -4   -1    0    0    0  501 -0.00000000000E+00  0.00000000000E+00  0.11934786164E+03  0.11934786164E+03  0.00000000000E+00 0.  1.
          4   -1    0    0  501    0  0.00000000000E+00 -0.00000000000E+00 -0.11229935552E+03  0.11229935552E+03  0.00000000000E+00 0. -1.
         25    2    1    2    0    0 -0.35140549046E+02 -0.20952166970E+02  0.16051845193E+02  0.13258596906E+03  0.12509007142E+03 0.  0.
          5    1    3    3  502    0 -0.35268033641E+02  0.49559170777E+02  0.68701660669E+01  0.61356476323E+02  0.41800000000E+01 0.  1.
         -5    1    3    3    0  502  0.12748459541E+00 -0.70511337747E+02  0.91816791258E+01  0.71229492732E+02  0.41800000000E+01 0.  1.
        -11    1    1    2    0    0 -0.25131140832E+02  0.72617822256E+01  0.17853856535E+02  0.31671247430E+02  0.00000000000E+00 0.  1.
         11    1    1    2    0    0  0.60271689878E+02  0.13690384745E+02 -0.26857195609E+02  0.67390000676E+02  0.00000000000E+00 0. -1.
</event>
<event>
 7    1  0.2842702E-009  0.8821838E+02  0.7561462E-02  0.1307224E+00
          2   -1    0    0  501    0  0.00000000000E+00  0.00000000000E+00  0.95774038838E+03  0.95774038838E+03  0.00000000000E+00 0.  1.
         -2   -1    0    0    0  501 -0.00000000000E+00 -0.00000000000E+00 -0.22444625266E+02  0.22444625266E+02  0.00000000000E+00 0. -1.
         25    2    1    2    0    0  0.42880640308E+02 -0.53058142846E+02  0.74626379792E+03  0.75974439791E+03  0.12509187917E+03 0.  0.
          5    1    3    3  502    0  0.32492078665E+02 -0.46883326693E+02  0.11583495563E+03  0.12918587710E+03  0.41800000000E+01 0.  1.
         -5    1    3    3    0  502  0.10388561643E+02 -0.61748161529E+01  0.63042884229E+03  0.63055852080E+03  0.41800000000E+01 0.  1.
        -11    1    1    2    0    0 -0.52898463446E+02  0.69414884983E+02  0.17817309169E+03  0.19839940598E+03  0.00000000000E+00 0.  1.
         11    1    1    2    0    0  0.10017823138E+02 -0.16356742137E+02  0.10858873513E+02  0.22041209761E+02  0.00000000000E+00 0. -1.
</event>
<event>
 7    1  0.2842702E-009  0.1162778E+03  0.7561462E-02  0.1249367E+00
         -2   -1    0    0    0  501 -0.00000000000E+00  0.00000000000E+00  0.19289871117E+02  0.19289871117E+02  0.00000000000E+00 0.  1.
          2   -1    0    0  501    0  0.00000000000E+00 -0.00000000000E+00 -0.12399988605E+04  0.12399988605E+04  0.00000000000E+00 0. -1.
         25    2    1    2    0    0 -0.72532195735E+02  0.30347237091E+02 -0.95743933042E+03  0.96877155656E+03  0.12508550330E+03 0.  0.
          5    1    3    3  502    0 -0.37370686786E+02 -0.31398945884E+02 -0.69884686386E+03  0.70056182708E+03  0.41800000000E+01 0. -1.
         -5    1    3    3    0  502 -0.35161508949E+02  0.61746182974E+02 -0.25859246656E+03  0.26820972947E+03  0.41800000000E+01 0. -1.
        -11    1    1    2    0    0  0.90090015045E+02 -0.21033666466E+02 -0.15557048845E+03  0.18099945529E+03  0.00000000000E+00 0. -1.
         11    1    1    2    0    0 -0.17557819311E+02 -0.93135706246E+01 -0.10769917048E+03  0.10951771975E+03  0.00000000000E+00 0.  1.
</event>
<event>
 7    1  0.2842702E-009  0.3598694E+03  0.7561462E-02  0.1058636E+00
          1   -1    0    0  501    0  0.00000000000E+00  0.00000000000E+00  0.56732486235E+03  0.56732486235E+03  0.00000000000E+00 0. -1.
         -1   -1    0    0    0  501 -0.00000000000E+00 -0.00000000000E+00 -0.24170610918E+03  0.24170610918E+03  0.00000000000E+00 0.  1.
         25    2    1    2    0    0  0.34367304794E+03  0.20477976702E+02  0.76735744266E+02  0.37424522411E+03  0.12506239207E+03 0.  0.
          5    1    3    3  502    0  0.31576506672E+03 -0.17674672035E+02  0.51353646259E+02  0.32042883887E+03  0.41800000000E+01 0. -1.
         -5    1    3    3    0  502  0.27907981220E+02  0.38152648737E+02  0.25382098007E+02  0.53816385243E+02  0.41800000000E+01 0. -1.
        -11    1    1    2    0    0 -0.35479477355E+02  0.26446499696E+02  0.38873010840E+02  0.58900947627E+02  0.00000000000E+00 0. -1.
         11    1    1    2    0    0 -0.30819357058E+03 -0.46924476399E+02  0.21000999806E+03  0.37588479980E+03  0.00000000000E+00 0.  1.
</event>
<event>
 7    1  0.2842702E-009  0.1203142E+03  0.7561462E-02  0.1242580E+00
         -2   -1    0    0    0  501 -0.00000000000E+00  0.00000000000E+00  0.59683903465E+02  0.59683903465E+02  0.00000000000E+00 0.  1.
          2   -1    0    0  501    0  0.00000000000E+00 -0.00000000000E+00 -0.49400175304E+03  0.49400175304E+03  0.00000000000E+00 0. -1.
         25    2    1    2    0    0  0.70979044721E+02 -0.43024284824E+01 -0.50057438342E+02  0.15234996196E+03  0.12509287788E+03 0.  0.
          5    1    3    3  502    0  0.24280595501E+02  0.53522955006E+02  0.59054000554E+01  0.59216553262E+02  0.41800000000E+01 0. -1.
         -5    1    3    3    0  502  0.46698449221E+02 -0.57825383488E+02 -0.55962838397E+02  0.93133408703E+02  0.41800000000E+01 0. -1.
        -11    1    1    2    0    0  0.21240845571E+01  0.29773335284E+02 -0.50034023514E+02  0.58261194101E+02  0.00000000000E+00 0.  1.
         11    1    1    2    0    0 -0.73103129278E+02 -0.25470906802E+02 -0.33422638772E+03  0.34307450044E+03  0.00000000000E+00 0. -1.
</event>
<event>
 7    1  0.2842702E-009  0.1027708E+03  0.7561462E-02  0.1274575E+00
         -1   -1    0    0    0  501 -0.00000000000E+00  0.00000000000E+00  0.21040082639E+02  0.21040082639E+02  0.00000000000E+00 0.  1.
          1   -1    0    0  501    0  0.00000000000E+00 -0.00000000000E+00 -0.89477407899E+03  0.89477407899E+03  0.00000000000E+00 0. -1.
         25    2    1    2    0    0  0.10797388932E+02  0.81418822827E+02 -0.51996087845E+03  0.54106703991E+03  0.12509443729E+03 0.  0.
          5    1    3    3  502    0 -0.15311519491E+02  0.25964745666E+02 -0.43583784028E+03  0.43689896551E+03  0.41800000000E+01 0.  1.
         -5    1    3    3    0  502  0.26108908423E+02  0.55454077160E+02 -0.84123038175E+02  0.10416807440E+03  0.41800000000E+01 0.  1.
        -11    1    1    2    0    0  0.22509981134E+02 -0.76821447084E+02 -0.16976458340E+03  0.18769189583E+03  0.00000000000E+00 0.  1.
         11    1    1    2    0    0 -0.33307370066E+02 -0.45973757430E+01 -0.18400853449E+03  0.18705522588E+03  0.00000000000E+00 0. -1.
</event>
<event>
 7    1  0.2842702E-009  0.1466855E+03  0.7561462E-02  0.1204606E+00
          2   -1    0    0  501    0  0.00000000000E+00  0.00000000000E+00  0.54485642873E+03  0.54485642873E+03  0.00000000000E+00 0. -1.
         -2   -1    0    0    0  501 -0.00000000000E+00 -0.00000000000E+00 -0.54566155055E+02  0.54566155055E+02  0.00000000000E+00 0.  1.
         25    2    1    2    0    0 -0.12530988165E+03 -0.33348150158E+02  0.31002211442E+03  0.35857603606E+03  0.12509355161E+03 0.  0.
          5    1    3    3  502    0 -0.73340045769E+02  0.73524976387E+01  0.47353701432E+02  0.87707850129E+02  0.41800000000E+01 0. -1.
         -5    1    3    3    0  502 -0.51969835877E+02 -0.40700647796E+02  0.26266841298E+03  0.27086818594E+03  0.41800000000E+01 0. -1.
        -11    1    1    2    0    0  0.12088833708E+03  0.11419241764E+01  0.11010728690E+03  0.16352036161E+03  0.00000000000E+00 0.  1.
         11    1    1    2    0    0  0.44215445648E+01  0.32206225981E+02  0.70160872360E+02  0.77326186112E+02  0.00000000000E+00 0. -1.
</event>
<event>
 7    1  0.2842702E-009  0.1215177E+03  0.7561462E-02  0.1240614E+00
          2   -1    0    0  501    0  0.00000000000E+00  0.00000000000E+00  0.86913721606E+03  0.86913721606E+03  0.00000000000E+00 0. -1.
         -2   -1    0    0    0  501 -0.00000000000E+00 -0.00000000000E+00 -0.27255159605E+02  0.27255159605E+02  0.00000000000E+00 0.  1.
         25    2    1    2    0    0 -0.66727899312E+02  0.42279035037E+02  0.23201414466E+03  0.27516955940E+03  0.12509034235E+03 0.  0.
          5    1    3    3  502    0 -0.88443932306E+02  0.49628658152E+02  0.23044965648E+03  0.25181312405E+03  0.41800000000E+01 0. -1.
         -5    1    3    3    0  502  0.21716032995E+02 -0.73496231146E+01  0.15644881757E+01  0.23356435349E+02  0.41800000000E+01 0. -1.
        -11    1    1    2    0    0  0.49824532426E+02  0.20005777266E+02  0.27448106677E+03  0.27968298334E+03  0.00000000000E+00 0.  1.
         11    1    1    2    0    0  0.16903366886E+02 -0.62284812303E+02  0.33538684503E+03  0.34153983293E+03  0.00000000000E+00 0. -1.
</event>
<event>
 7    1  0.2842702E-009  0.1086100E+03  0.7561462E-02  0.1263166E+00
          1   -1    0    0  501    0  0.00000000000E+00  0.00000000000E+00  0.51139611894E+03  0.51139611894E+03  0.00000000000E+00 0. -1.
         -1   -1    0    0    0  501 -0.00000000000E+00 -0.00000000000E+00 -0.24722687992E+02  0.24722687992E+02  0.00000000000E+00 0.  1.
         25    2    1    2    0    0 -0.22015859739E+02  0.14068681175E+02  0.33516518418E+03  0.35870107167E+03  0.12509249482E+03 0.  0.
          5    1    3    3  502    0  0.73906622833E+00 -0.54769624920E+02  0.13364259267E+03  0.14449246696E+03  0.41800000000E+01 0.  1.
         -5    1    3    3    0  502 -0.22754925967E+02  0.68838306095E+02  0.20152259151E+03  0.21420860471E+03  0.41800000000E+01 0.  1.
        -11    1    1    2    0    0  0.55197031393E+02 -0.60496982429E+01  0.72266460169E+02  0.91135900658E+02  0.00000000000E+00 0.  1.
         11    1    1    2    0    0 -0.33181171653E+02 -0.80189829317E+01  0.79241786599E+02  0.86281834606E+02  0.00000000000E+00 0. -1.
</event>
<event>
 7    1  0.2842702E-009  0.1600654E+03  0.7561462E-02  0.1188623E+00
          1   -1    0    0  501    0  0.00000000000E+00  0.00000000000E+00  0.13070515542E+04  0.13070515542E+04  0.00000000000E+00 0. -1.
         -1   -1    0    0    0  501 -0.00000000000E+00 -0.00000000000E+00 -0.23958947597E+02  0.23958947597E+02  0.00000000000E+00 0.  1.
         25    2    1    2    0    0  0.72597899043E+02  0.95925688797E+02  0.93469674712E+03  0.95067256377E+03  0.12509245272E+03 0.  0.
          5    1    3    3  502    0  0.35863108087E+02 -0.25738239611E+02  0.18289892714E+03  0.18819699639E+03  0.41800000000E+01 0.  1.
         -5    1    3    3    0  502  0.36734790956E+02  0.12166392841E+03  0.75179781997E+03  0.76247556738E+03  0.41800000000E+01 0.  1.
        -11    1    1    2    0    0 -0.55324677634E+02 -0.44090068438E+01  0.17393166283E+03  0.18257185608E+03  0.00000000000E+00 0. -1.
         11    1    1    2    0    0 -0.17273221409E+02 -0.91516681953E+02  0.17446419666E+03  0.19776608195E+03  0.00000000000E+00 0.  1.
</event>
<event>
 7    1  0.2842702E-009  0.1336640E+03  0.7561462E-02  0.1222118E+00
         -2   -1    0    0    0  501 -0.00000000000E+00  0.00000000000E+00  0.61624353853E+03  0.61624353853E+03  0.00000000000E+00 0.  1.
          2   -1    0    0  501    0  0.00000000000E+00 -0.00000000000E+00 -0.45782236374E+02  0.45782236374E+02  0.00000000000E+00 0. -1.
         25    2    1    2    0    0  0.88582092151E+02 -0.79783044944E+02  0.40076985446E+03  0.43643536467E+03  0.12508888829E+03 0.  0.
          5    1    3    3  502    0 -0.16484826962E+02 -0.12273872385E+02  0.52133047641E+01  0.21611302826E+02  0.41800000000E+01 0.  1.
         -5    1    3    3    0  502  0.10506691911E+03 -0.67509172559E+02  0.39555654970E+03  0.41482406184E+03  0.41800000000E+01 0.  1.
        -11    1    1    2    0    0 -0.52465356011E+02  0.61754920516E+02  0.41195043733E+02  0.90902780032E+02  0.00000000000E+00 0. -1.
         11    1    1    2    0    0 -0.36116736140E+02  0.18028124427E+02  0.12849640396E+03  0.13468763020E+03  0.00000000000E+00 0.  1.
</event>
<event>
 7    1  0.2842702E-009  0.1711855E+03  0.7561462E-02  0.1176617E+00
          2   -1    0    0  501    0  0.00000000000E+00  0.00000000000E+00  0.27240738015E+03  0.27240738015E+03  0.00000000000E+00 0.  1.
         -2   -1    0    0    0  501 -0.00000000000E+00 -0.00000000000E+00 -0.16896761536E+03  0.16896761536E+03  0.00000000000E+00 0. -1.
         25    2    1    2    0    0 -0.14349472358E+03 -0.68658412949E+02  0.15069298694E+03  0.25231048705E+03  0.12508993644E+03 0.  0.
          5    1    3    3  502    0 -0.34115214901E+02 -0.28855149132E+02  0.12531210552E+03  0.13310546085E+03  0.41800000000E+01 0.  1.
         -5    1    3    3    0  502 -0.10937950868E+03 -0.39803263817E+02  0.25380881424E+02  0.11920502620E+03  0.41800000000E+01 0.  1.
        -11    1    1    2    0    0  0.10747905562E+01  0.34560972241E+02 -0.20494696986E+02  0.40195131316E+02  0.00000000000E+00 0.  1.
         11    1    1    2    0    0  0.14241993302E+03  0.34097440708E+02 -0.26758525160E+02  0.14886937715E+03  0.00000000000E+00 0. -1.
</event>
<event>
 7    1  0.2842702E-009  0.1516373E+03  0.7561462E-02  0.1198475E+00
         -3   -1    0    0    0  501 -0.00000000000E+00  0.00000000000E+00  0.36236080723E+03  0.36236080723E+03  0.00000000000E+00 0.  1.
          3   -1    0    0  501    0  0.00000000000E+00 -0.00000000000E+00 -0.92759542357E+02  0.92759542357E+02  0.00000000000E+00 0. -1.
         25    2    1    2    0    0  0.93805448484E+02  0.65664897067E+02  0.22840303077E+02  0.17111457993E+03  0.12508868513E+03 0.  0.
          5    1    3    3  502    0  0.48074316187E+02 -0.34260927157E+02  0.22026127826E+01  0.59222250123E+02  0.41800000000E+01 0.  1.
         -5    1    3    3    0  502  0.45731132296E+02  0.99925824224E+02  0.20637690295E+02  0.11189232980E+03  0.41800000000E+01 0.  1.
        -11    1    1    2    0    0 -0.84433639702E+02 -0.80444278967E+02  0.17613271493E+03  0.21124169759E+03  0.00000000000E+00 0. -1.
         11    1    1    2    0    0 -0.93718087812E+01  0.14779381900E+02  0.70628246865E+02  0.72764072072E+02  0.00000000000E+00 0.  1.
</event>
<event>
 7    1  0.2842702E-009  0.1025081E+03  0.7561462E-02  0.1275108E+00
         -3   -1    0    0    0  501 -0.00000000000E+00  0.00000000000E+00  0.80123198438E+03  0.80123198438E+03  0.00000000000E+00 0.  1.
          3   -1    0    0  501    0  0.00000000000E+00 -0.00000000000E+00 -0.28594298057E+02  0.28594298057E+02  0.00000000000E+00 0. -1.
         25    2    1    2    0    0 -0.69820261328E+02 -0.24919302959E+02  0.21061028250E+03  0.25592916636E+03  0.12508879464E+03 0.  0.
          5    1    3    3  502    0 -0.32776211344E+02  0.17641746958E+02  0.19310487716E+03  0.19670403465E+03  0.41800000000E+01 0.  1.
         -5    1    3    3    0  502 -0.37044049984E+02 -0.42561049917E+02  0.17505405348E+02  0.59225131706E+02  0.41800000000E+01 0.  1.
        -11    1    1    2    0    0  0.76226864983E+02 -0.87317190393E+01  0.45779794149E+03  0.46418286601E+03  0.00000000000E+00 0.  1.
         11    1    1    2    0    0 -0.64066036542E+01  0.33651021998E+02  0.10422946233E+03  0.10971425007E+03  0.00000000000E+00 0. -1.
</event>
<event>
 7    1  0.2842702E-009  0.1129484E+03  0.7561462E-02  0.1255205E+00
         -2   -1    0    0    0  501 -0.00000000000E+00  0.00000000000E+00  0.19027254456E+02  0.19027254456E+02  0.00000000000E+00 0.  1.
          2   -1    0    0  501    0  0.00000000000E+00 -0.00000000000E+00 -0.76934671430E+03  0.76934671430E+03  0.00000000000E+00 0. -1.
         25    2    1    2    0    0  0.53070498852E+02  0.57469925443E+01 -0.46151809366E+03  0.48114070044E+03  0.12509163468E+03 0.  0.
          5    1    3    3  502    0  0.23990517583E+02 -0.51373888503E+02 -0.11022649144E+03  0.12402488932E+03  0.41800000000E+01 0. -1.
         -5    1    3    3    0  502  0.29079981269E+02  0.57120881047E+02 -0.35129160222E+03  0.35711581112E+03  0.41800000000E+01 0. -1.
        -11    1    1    2    0    0 -0.68574382683E+02  0.22849740177E+02 -0.20042993773E+03  0.21306505233E+03  0.00000000000E+00 0.  1.
         11    1    1    2    0    0  0.15503883831E+02 -0.28596732721E+02 -0.88371428459E+02  0.94168215997E+02  0.00000000000E+00 0. -1.
</event>
<event>
 7    1  0.2842702E-009  0.9903945E+02  0.7561462E-02  0.1282329E+00
         -4   -1    0    0    0  501 -0.00000000000E+00  0.00000000000E+00  0.25466593024E+03  0.25466593024E+03  0.00000000000E+00 0.  1.
          4   -1    0    0  501    0  0.00000000000E+00 -0.00000000000E+00 -0.65491474061E+02  0.65491474061E+02  0.00000000000E+00 0. -1.
         25    2    1    2    0    0  0.57047765599E+02 -0.35523560165E+02  0.77295889013E+02  0.16167438553E+03  0.12509029375E+03 0.  0.
          5    1    3    3  502    0 -0.71074573653E+01 -0.43139387352E+02  0.85789748387E+02  0.96378815201E+02  0.41800000000E+01 0.  1.
         -5    1    3    3    0  502  0.64155222964E+02  0.76158271866E+01 -0.84938593744E+01  0.65295570328E+02  0.41800000000E+01 0.  1.
        -11    1    1    2    0    0 -0.19735965992E+02  0.46508361141E+02  0.10819994281E+03  0.11941425223E+03  0.00000000000E+00 0.  1.
         11    1    1    2    0    0 -0.37311799607E+02 -0.10984800976E+02  0.36786243539E+01  0.39068766548E+02  0.00000000000E+00 0. -1.
</event>
<event>
 7    1  0.2842702E-009  0.2058884E+03  0.7561462E-02  0.1144864E+00
         -1   -1    0    0    0  501 -0.00000000000E+00  0.00000000000E+00  0.48426255029E+02  0.48426255029E+02  0.00000000000E+00 0.  1.
          1   -1    0    0  501    0  0.00000000000E+00 -0.00000000000E+00 -0.10482264320E+04  0.10482264320E+04  0.00000000000E+00 0. -1.
         25    2    1    2    0    0  0.66416147975E+02 -0.18406594019E+03 -0.46311432180E+03  0.51808638122E+03  0.12508896155E+03 0.  0.
          5    1    3    3  502    0  0.81571964850E+02 -0.15342833576E+03 -0.44789154773E+03  0.48043579237E+03  0.41800000000E+01 0.  1.
         -5    1    3    3    0  502 -0.15155816875E+02 -0.30637604431E+02 -0.15222774069E+02  0.37650588850E+02  0.41800000000E+01 0.  1.
        -11    1    1    2    0    0 -0.25899465700E+02  0.14482045555E+03 -0.46272963662E+03  0.48555376971E+03  0.00000000000E+00 0. -1.
         11    1    1    2    0    0 -0.40516682275E+02  0.39245484648E+02 -0.73956218503E+02  0.93012536053E+02  0.00000000000E+00 0.  1.
</event>
<event>
 7    1  0.2842702E-009  0.1275888E+03  0.7561462E-02  0.1231078E+00
          1   -1    0    0  501    0  0.00000000000E+00  0.00000000000E+00  0.30363528865E+02  0.30363528865E+02  0.00000000000E+00 0. -1.
         -1   -1    0    0    0  501 -0.00000000000E+00 -0.00000000000E+00 -0.57853873313E+03  0.57853873313E+03  0.00000000000E+00 0.  1.
         25    2    1    2    0    0 -0.72912516673E+02 -0.19234178140E+02 -0.33081824798E+03  0.36162765343E+03  0.12509059851E+03 0.  0.
          5    1    3    3  502    0  0.14364459787E+02  0.34874883600E+02 -0.13808573601E+03  0.14320523071E+03  0.41800000000E+01 0.  1.
         -5    1    3    3    0  502 -0.87276976460E+02 -0.54109061740E+02 -0.19273251196E+03  0.21842242273E+03  0.41800000000E+01 0.  1.
        -11    1    1    2    0    0  0.36455843036E+02 -0.34055821961E+02 -0.12498523727E+03  0.13457390919E+03  0.00000000000E+00 0.  1.
         11    1    1    2    0    0  0.36456673637E+02  0.53290000101E+02 -0.92371719023E+02  0.11270069937E+03  0.00000000000E+00 0. -1.
</event>
<event>
 7    1  0.2842702E-009  0.8414211E+02  0.7561462E-02  0.1317691E+00
         -1   -1    0    0    0  501 -0.00000000000E+00  0.00000000000E+00  0.75618201535E+02  0.75618201535E+02  0.00000000000E+00 0.  1.
          1   -1    0    0  501    0  0.00000000000E+00 -0.00000000000E+00 -0.17137354416E+03  0.17137354416E+03  0.00000000000E+00 0. -1.
         25    2    1    2    0    0  0.18820456283E+02  0.23361231346E+02 -0.81833592205E+02  0.15250722982E+03  0.12514696013E+03 0.  0.
          5    1    3    3  502    0  0.20254116821E+02  0.47714705166E+02 -0.10590309021E+03  0.11798245316E+03  0.41800000000E+01 0.  1.
         -5    1    3    3    0  502 -0.14336605387E+01 -0.24353473819E+02  0.24069498004E+02  0.34524776665E+02  0.41800000000E+01 0.  1.
        -11    1    1    2    0    0  0.83308505680E+01 -0.51650836655E+02  0.15253881915E+01  0.52340603813E+02  0.00000000000E+00 0.  1.
         11    1    1    2    0    0 -0.27151306851E+02  0.28289605309E+02 -0.15447138609E+02  0.42143912056E+02  0.00000000000E+00 0. -1.
</event>
<event>
 7    1  0.2842702E-009  0.8957718E+02  0.7561462E-02  0.1303879E+00
         -1   -1    0    0    0  501 -0.00000000000E+00  0.00000000000E+00  0.49590910039E+02  0.49590910039E+02  0.00000000000E+00 0.  1.
          1   -1    0    0  501    0  0.00000000000E+00 -0.00000000000E+00 -0.29756275212E+03  0.29756275212E+03  0.00000000000E+00 0. -1.
         25    2    1    2    0    0 -0.44873115972E+02 -0.21299714260E+02 -0.17305650656E+03  0.21923268188E+03  0.12508852856E+03 0.  0.
          5    1    3    3  502    0 -0.20217888857E+02  0.31596153923E+02 -0.15268132064E+03  0.15727726487E+03  0.41800000000E+01 0.  1.
         -5    1    3    3    0  502 -0.24655227114E+02 -0.52895868183E+02 -0.20375185914E+02  0.61955417002E+02  0.41800000000E+01 0.  1.
        -11    1    1    2    0    0  0.44015562903E+02  0.42794496444E+02 -0.13513375321E+02  0.62859764684E+02  0.00000000000E+00 0.  1.
         11    1    1    2    0    0  0.85755306841E+00 -0.21494782184E+02 -0.61401960205E+02  0.65061215600E+02  0.00000000000E+00 0. -1.
</event>
<event>
 7    1  0.2842702E-009  0.2253537E+03  0.7561462E-02  0.1129953E+00
          2   -1    0    0  501    0  0.00000000000E+00  0.00000000000E+00  0.13652890932E+04  0.13652890932E+04  0.00000000000E+00 0. -1.
         -2   -1    0    0    0  501 -0.00000000000E+00 -0.00000000000E+00 -0.88651638925E+02  0.88651638925E+02  0.00000000000E+00 0.  1.
         25    2    1    2    0    0  0.16145674912E+03 -0.13084883957E+03  0.11200328376E+03  0.26717494420E+03  0.12509202445E+03 0.  0.
          5    1    3    3  502    0  0.39766879897E+02  0.17719971372E+02 -0.20362554365E+01  0.43783796756E+02  0.41800000000E+01 0.  1.
         -5    1    3    3    0  502  0.12168986922E+03 -0.14856881094E+03  0.11403953919E+03  0.22339114744E+03  0.41800000000E+01 0.  1.
        -11    1    1    2    0    0 -0.15984150987E+03  0.11015033018E+03  0.11286495839E+04  0.11452215012E+04  0.00000000000E+00 0. -1.
         11    1    1    2    0    0 -0.16152392466E+01  0.20698509389E+02  0.35984586686E+02  0.41544286823E+02  0.00000000000E+00 0.  1.
</event>
<event>
 7    1  0.2842702E-009  0.1153625E+03  0.7561462E-02  0.1250950E+00
          2   -1    0    0  501    0  0.00000000000E+00  0.00000000000E+00  0.12266001810E+04  0.12266001810E+04  0.00000000000E+00 0.  1.
         -2   -1    0    0    0  501 -0.00000000000E+00 -0.00000000000E+00 -0.11559425280E+02  0.11559425280E+02  0.00000000000E+00 0. -1.
         25    2    1    2    0    0 -0.96730773321E+01 -0.59577849844E+02  0.75673163462E+03  0.76937238833E+03  0.12509203199E+03 0.  0.
          5    1    3    3  502    0  0.54012900807E+02 -0.28808375766E+02  0.23614080898E+03  0.24398211007E+03  0.41800000000E+01 0. -1.
         -5    1    3    3    0  502 -0.63685978140E+02 -0.30769474078E+02  0.52059082564E+03  0.52539027825E+03  0.41800000000E+01 0. -1.
        -11    1    1    2    0    0 -0.31760909666E+02  0.43962720897E+02  0.25945848779E+03  0.26506637489E+03  0.00000000000E+00 0.  1.
         11    1    1    2    0    0  0.41433986998E+02  0.15615128946E+02  0.19885063330E+03  0.20372084305E+03  0.00000000000E+00 0. -1.
</event>
<event>
 7    1  0.2842702E-009  0.1329553E+03  0.7561462E-02  0.1223135E+00
         -2   -1    0    0    0  501 -0.00000000000E+00  0.00000000000E+00  0.35861599528E+02  0.35861599528E+02  0.00000000000E+00 0.  1.
          2   -1    0    0  501    0  0.00000000000E+00 -0.00000000000E+00 -0.50823287568E+03  0.50823287568E+03  0.00000000000E+00 0. -1.
         25    2    1    2    0    0  0.20272452598E+02  0.78473887406E+02 -0.27135837448E+03  0.30959817275E+03  0.12508612167E+03 0.  0.
          5    1    3    3  502    0  0.24116823684E+01  0.10931972793E+03 -0.23089734669E+03  0.25551453234E+03  0.41800000000E+01 0.  1.
         -5    1    3    3    0  502  0.17860770229E+02 -0.30845840525E+02 -0.40461027783E+02  0.54083640411E+02  0.41800000000E+01 0.  1.
        -11    1    1    2    0    0 -0.50657962074E+02 -0.74299031334E+02 -0.15503122120E+03  0.17922403501E+03  0.00000000000E+00 0.  1.
         11    1    1    2    0    0  0.30385509477E+02 -0.41748560724E+01 -0.45981680480E+02  0.55272267450E+02  0.00000000000E+00 0. -1.
</event>
<event>
 7    1  0.2842702E-009  0.1390700E+03  0.7561462E-02  0.1214586E+00
          1   -1    0    0  501    0  0.00000000000E+00  0.00000000000E+00  0.28313982704E+02  0.28313982704E+02  0.00000000000E+00 0. -1.
         -1   -1    0    0    0  501 -0.00000000000E+00 -0.00000000000E+00 -0.88308350898E+03  0.88308350898E+03  0.00000000000E+00 0.  1.
         25    2    1    2    0    0  0.41923601515E+01 -0.11162790509E+03 -0.37557038446E+03  0.41132174165E+03  0.12511633146E+03 0.  0.
          5    1    3    3  502    0 -0.18145076015E+02 -0.11667810157E+03 -0.36851988869E+03  0.38699793789E+03  0.41800000000E+01 0.  1.
         -5    1    3    3    0  502  0.22337436167E+02  0.50501964841E+01 -0.70504957692E+01  0.24323803766E+02  0.41800000000E+01 0.  1.
        -11    1    1    2    0    0  0.36565536544E+02  0.66550967271E+02 -0.19103848255E+03  0.20557668040E+03  0.00000000000E+00 0. -1.
         11    1    1    2    0    0 -0.40757896695E+02  0.45076937817E+02 -0.28816065927E+03  0.29449906964E+03  0.00000000000E+00 0.  1.
</event>
<event>
 7    1  0.2842702E-009  0.8607316E+02  0.7561462E-02  0.1312650E+00
         -1   -1    0    0    0  501 -0.00000000000E+00  0.00000000000E+00  0.63029982577E+02  0.63029982577E+02  0.00000000000E+00 0.  1.
          1   -1    0    0  501    0  0.00000000000E+00 -0.00000000000E+00 -0.22373358507E+03  0.22373358507E+03  0.00000000000E+00 0. -1.
         25    2    1    2    0    0 -0.31002010199E+01 -0.86794093113E+01 -0.14833604829E+03  0.19425802305E+03  0.12509057880E+03 0.  0.
          5    1    3    3  502    0 -0.55954576608E+02 -0.35105033593E+02 -0.77668016322E+02  0.10204445691E+03  0.41800000000E+01 0. -1.
         -5    1    3    3    0  502  0.52854375588E+02  0.26425624282E+02 -0.70668031973E+02  0.92213566141E+02  0.41800000000E+01 0. -1.
        -11    1    1    2    0    0  0.16688719218E+02  0.22051361909E+02 -0.46099938100E+02  0.53758536104E+02  0.00000000000E+00 0. -1.
         11    1    1    2    0    0 -0.13588518198E+02 -0.13371952598E+02  0.33732383903E+02  0.38747008489E+02  0.00000000000E+00 0.  1.
</event>
<event>
 7    1  0.2842702E-009  0.1312870E+03  0.7561462E-02  0.1225558E+00
         -2   -1    0    0    0  501 -0.00000000000E+00  0.00000000000E+00  0.49357412042E+02  0.49357412042E+02  0.00000000000E+00 0. -1.
          2   -1    0    0  501    0  0.00000000000E+00 -0.00000000000E+00 -0.13335996417E+04  0.13335996417E+04  0.00000000000E+00 0.  1.
         25    2    1    2    0    0  0.63629087223E+01  0.11710380288E+03 -0.11993688436E+04  0.12115639501E+04  0.12509114568E+03 0.  0.
          5    1    3    3  502    0 -0.38436545786E+02  0.70807251634E+02 -0.96802972851E+03  0.97138564052E+03  0.41800000000E+01 0.  1.
         -5    1    3    3    0  502  0.44799454508E+02  0.46296551243E+02 -0.23133911514E+03  0.24017830954E+03  0.41800000000E+01 0.  1.
        -11    1    1    2    0    0 -0.44965384802E+01 -0.47793829493E+02  0.14567633070E+02  0.50166571830E+02  0.00000000000E+00 0. -1.
         11    1    1    2    0    0 -0.18663702421E+01 -0.69309973383E+02 -0.99441019090E+02  0.12122653186E+03  0.00000000000E+00 0.  1.
</event>
<event>
 6    1  0.2842702E-009  0.1391494E+03  0.7561462E-02  0.1214478E+00
         -2   -1    0    0    0  501 -0.00000000000E+00  0.00000000000E+00  0.17293012396E+02  0.17293012396E+02  0.00000000000E+00 0.  1.
          2   -1    0    0  501    0  0.00000000000E+00 -0.00000000000E+00 -0.11953681822E+04  0.11953681822E+04  0.00000000000E+00 0. -1.
          5    1    1    2  502    0  0.17971565710E+02 -0.25446665405E+02 -0.21037500439E+03  0.21271018976E+03  0.41800000000E+01 0. -1.
         -5    1    1    2    0  502 -0.10889476415E+03  0.50450726111E+02 -0.41624818834E+03  0.43322439003E+03  0.41800000000E+01 0. -1.
        -11    1    1    2    0    0  0.60357721050E+02  0.27264817880E+02 -0.21862493060E+03  0.22843661060E+03  0.00000000000E+00 0.  1.
         11    1    1    2    0    0  0.30565477390E+02 -0.52268878586E+02 -0.33282704646E+03  0.33829000419E+03  0.00000000000E+00 0. -1.
</event>
<event>
 7    1  0.2842702E-009  0.1695350E+03  0.7561462E-02  0.1178334E+00
         -1   -1    0    0    0  501 -0.00000000000E+00  0.00000000000E+00  0.15697161864E+03  0.15697161864E+03  0.00000000000E+00 0.  1.
          1   -1    0    0  501    0  0.00000000000E+00 -0.00000000000E+00 -0.18865876151E+03  0.18865876151E+03  0.00000000000E+00 0. -1.
         25    2    1    2    0    0 -0.31613666039E+02  0.12953198227E+03 -0.12563849615E+02  0.18325820209E+03  0.12509100689E+03 0.  0.
          5    1    3    3  502    0 -0.46379008012E+02  0.14989740734E+03 -0.67783867229E+01  0.15711035624E+03  0.41800000000E+01 0.  1.
         -5    1    3    3    0  502  0.14765341973E+02 -0.20365425068E+02 -0.57854628917E+01  0.26147845851E+02  0.41800000000E+01 0.  1.
        -11    1    1    2    0    0 -0.27454420090E+02 -0.55307101300E+02 -0.26570343044E+02  0.67220560591E+02  0.00000000000E+00 0.  1.
         11    1    1    2    0    0  0.59068086129E+02 -0.74224880975E+02  0.74470497902E+01  0.95151617460E+02  0.00000000000E+00 0. -1.
</event>
<event>
 7    1  0.2842702E-009  0.1192806E+03  0.7561462E-02  0.1244289E+00
          2   -1    0    0  501    0  0.00000000000E+00  0.00000000000E+00  0.33261518410E+03  0.33261518410E+03  0.00000000000E+00 0. -1.
         -2   -1    0    0    0  501 -0.00000000000E+00 -0.00000000000E+00 -0.44055194942E+02  0.44055194942E+02  0.00000000000E+00 0.  1.
         25    2    1    2    0    0  0.42481301296E+02 -0.32456603258E+02  0.17945635361E+03  0.22518640159E+03  0.12508493336E+03 0.  0.
          5    1    3    3  502    0 -0.33067561473E+02 -0.45901346107E+02  0.97753041098E+02  0.11302002761E+03  0.41800000000E+01 0. -1.
         -5    1    3    3    0  502  0.75548862768E+02  0.13444742850E+02  0.81703312515E+02  0.11216637398E+03  0.41800000000E+01 0. -1.
        -11    1    1    2    0    0 -0.62851786498E+02  0.48228008394E+02  0.85178393254E+02  0.11632560568E+03  0.00000000000E+00 0.  1.
         11    1    1    2    0    0  0.20370485202E+02 -0.15771405136E+02  0.23925242295E+02  0.35158371780E+02  0.00000000000E+00 0. -1.
</event>
<event>
 7    1  0.2842702E-009  0.9485404E+02  0.7561462E-02  0.1291505E+00
          1   -1    0    0  501    0  0.00000000000E+00  0.00000000000E+00  0.39858226284E+02  0.39858226284E+02  0.00000000000E+00 0. -1.
         -1   -1    0    0    0  501 -0.00000000000E+00 -0.00000000000E+00 -0.39848623098E+03  0.39848623098E+03  0.00000000000E+00 0.  1.
         25    2    1    2    0    0 -0.38908159503E+02 -0.48730503903E+02 -0.17821754140E+03  0.22649096638E+03  0.12509260131E+03 0.  0.
          5    1    3    3  502    0 -0.41530939573E+01  0.12941618905E+02  0.15001226655E+02  0.20669854631E+02  0.41800000000E+01 0.  1.
         -5    1    3    3    0  502 -0.34755065545E+02 -0.61672122808E+02 -0.19321876806E+03  0.20582111175E+03  0.41800000000E+01 0.  1.
        -11    1    1    2    0    0  0.59308212920E+02  0.91017351079E+01 -0.13732687817E+03  0.14986319484E+03  0.00000000000E+00 0.  1.
         11    1    1    2    0    0 -0.20400053417E+02  0.39628768795E+02 -0.43083585125E+02  0.61990296038E+02  0.00000000000E+00 0. -1.
</event>
<event>
 7    1  0.2842702E-009  0.1132911E+03  0.7561462E-02  0.1254594E+00
          2   -1    0    0  501    0  0.00000000000E+00  0.00000000000E+00  0.46466535730E+02  0.46466535730E+02  0.00000000000E+00 0. -1.
         -2   -1    0    0    0  501 -0.00000000000E+00 -0.00000000000E+00 -0.53663566505E+03  0.53663566505E+03  0.00000000000E+00 0.  1.
         25    2    1    2    0    0  0.10705739462E+03  0.30807051679E+02 -0.24908512028E+03  0.30017010203E+03  0.12509329651E+03 0.  0.
          5    1    3    3  502    0  0.63958387629E+02  0.20655248078E+02 -0.25186284587E+02  0.71896703350E+02  0.41800000000E+01 0. -1.
         -5    1    3    3    0  502  0.43099006992E+02  0.10151803600E+02 -0.22389883569E+03  0.22827339868E+03  0.41800000000E+01 0. -1.
        -11    1    1    2    0    0 -0.65251163943E+02 -0.32558547128E+02 -0.52739722907E+02  0.89995843011E+02  0.00000000000E+00 0. -1.
         11    1    1    2    0    0 -0.41806230678E+02  0.17514954495E+01 -0.18834428614E+03  0.19293625574E+03  0.00000000000E+00 0.  1.
</event>
<event>
 6    1  0.2842702E-009  0.1324449E+03  0.7561462E-02  0.1223872E+00
         -4   -1    0    0    0  501 -0.00000000000E+00  0.00000000000E+00  0.23353474701E+03  0.23353474701E+03  0.00000000000E+00 0.  1.
          4   -1    0    0  501    0  0.00000000000E+00 -0.00000000000E+00 -0.82036559931E+02  0.82036559931E+02  0.00000000000E+00 0. -1.
          5    1    1    2  502    0 -0.89290057724E+02 -0.28673224720E+02  0.42396271030E+02  0.10300380780E+03  0.41800000000E+01 0.  1.
         -5    1    1    2    0  502  0.77829508798E+01  0.56199316555E+02  0.42280186771E+02  0.70880350585E+02  0.41800000000E+01 0.  1.
        -11    1    1    2    0    0  0.18215448787E+02 -0.44932804361E+02  0.57777339009E+02  0.75425329865E+02  0.00000000000E+00 0.  1.
         11    1    1    2    0    0  0.63291658057E+02  0.17406712527E+02  0.90443902656E+01  0.66261818688E+02  0.00000000000E+00 0. -1.
</event>
<event>
 7    1  0.2842702E-009  0.1325390E+03  0.7561462E-02  0.1223736E+00
         -1   -1    0    0    0  501 -0.00000000000E+00  0.00000000000E+00  0.39741729499E+02  0.39741729499E+02  0.00000000000E+00 0.  1.
          1   -1    0    0  501    0  0.00000000000E+00 -0.00000000000E+00 -0.69104014986E+03  0.69104014986E+03  0.00000000000E+00 0. -1.
         25    2    1    2    0    0 -0.79648438476E+02  0.76240470934E+02 -0.48511934811E+03  0.51297693972E+03  0.12509226841E+03 0.  0.
          5    1    3    3  502    0  0.19326869662E+02  0.44188251977E+02 -0.26610756669E+03  0.27047520950E+03  0.41800000000E+01 0.  1.
         -5    1    3    3    0  502 -0.98975308137E+02  0.32052218957E+02 -0.21901178142E+03  0.24250173022E+03  0.41800000000E+01 0.  1.
        -11    1    1    2    0    0  0.35344509317E+02 -0.18885239556E+02 -0.13148250289E+03  0.13745375650E+03  0.00000000000E+00 0. -1.
         11    1    1    2    0    0  0.44303929159E+02 -0.57355231379E+02 -0.34696569368E+02  0.80351183136E+02  0.00000000000E+00 0.  1.
</event>
<event>
 7    1  0.2842702E-009  0.1413484E+03  0.7561462E-02  0.1211526E+00
          2   -1    0    0  501    0  0.00000000000E+00  0.00000000000E+00  0.98078548747E+03  0.98078548747E+03  0.00000000000E+00 0. -1.
         -2   -1    0    0    0  501 -0.00000000000E+00 -0.00000000000E+00 -0.29059035095E+02  0.29059035095E+02  0.00000000000E+00 0.  1.
         25    2    1    2    0    0 -0.32877767366E+02  0.10773027836E+03  0.69371845834E+03  0.71385187761E+03  0.12510972487E+03 0.  0.
          5    1    3    3  502    0 -0.12004896273E+02 -0.28089089313E+02  0.12165835394E+03  0.12550435035E+03  0.41800000000E+01 0. -1.
         -5    1    3    3    0  502 -0.20872871093E+02  0.13581936767E+03  0.57206010440E+03  0.58834752726E+03  0.41800000000E+01 0. -1.
        -11    1    1    2    0    0  0.83260106551E+01 -0.61327751756E+02  0.22641602781E+03  0.23472246002E+03  0.00000000000E+00 0. -1.
         11    1    1    2    0    0  0.24551756711E+02 -0.46402526602E+02  0.31591966225E+02  0.61270184940E+02  0.00000000000E+00 0.  1.
</event>
<event>
 7    1  0.2842702E-009  0.1282448E+03  0.7561462E-02  0.1230084E+00
         -1   -1    0    0    0  501 -0.00000000000E+00  0.00000000000E+00  0.38888186275E+02  0.38888186275E+02  0.00000000000E+00 0.  1.
          1   -1    0    0  501    0  0.00000000000E+00 -0.00000000000E+00 -0.47925713122E+03  0.47925713122E+03  0.00000000000E+00 0. -1.
         25    2    1    2    0    0 -0.57902001230E+02  0.57114229989E+02 -0.22316011041E+03  0.26844747058E+03  0.12509569363E+03 0.  0.
          5    1    3    3  502    0 -0.86435093021E+02  0.74546419833E+02 -0.15641384310E+03  0.19367745540E+03  0.41800000000E+01 0. -1.
         -5    1    3    3    0  502  0.28533091791E+02 -0.17432189844E+02 -0.66746267312E+02  0.74770015179E+02  0.41800000000E+01 0. -1.
        -11    1    1    2    0    0  0.49575748930E+02  0.12777591688E+01 -0.42535945221E+02  0.65335244595E+02  0.00000000000E+00 0.  1.
         11    1    1    2    0    0  0.83262523002E+01 -0.58391989158E+02 -0.17467288931E+03  0.18436260232E+03  0.00000000000E+00 0. -1.
</event>
<event>
 7    1  0.2842702E-009  0.1494308E+03  0.7561462E-02  0.1201174E+00
         -2   -1    0    0    0  501 -0.00000000000E+00  0.00000000000E+00  0.11169003254E+03  0.11169003254E+03  0.00000000000E+00 0. -1.
          2   -1    0    0  501    0  0.00000000000E+00 -0.00000000000E+00 -0.28102855583E+03  0.28102855583E+03  0.00000000000E+00 0.  1.
         25    2    1    2    0    0 -0.12697230008E+03  0.48184406175E+02 -0.12418384916E+03  0.22251489950E+03  0.12509016796E+03 0.  0.
          5    1    3    3  502    0 -0.54637082015E+02  0.63534034472E+01  0.17585876283E+02  0.57899152939E+02  0.41800000000E+01 0.  1.
         -5    1    3    3    0  502 -0.72335218065E+02  0.41831002728E+02 -0.14176972545E+03  0.16461574656E+03  0.41800000000E+01 0.  1.
        -11    1    1    2    0    0  0.11855740410E+03 -0.78348928183E+01 -0.49587329788E+02  0.12874838597E+03  0.00000000000E+00 0.  1.
         11    1    1    2    0    0  0.84148959760E+01 -0.40349513357E+02  0.44326556573E+01  0.41455302901E+02  0.00000000000E+00 0. -1.
</event>
<event>
 7    1  0.2842702E-009  0.7896170E+02  0.7561462E-02  0.1332024E+00
         -4   -1    0    0    0  501 -0.00000000000E+00  0.00000000000E+00  0.64419013542E+03  0.64419013542E+03  0.00000000000E+00 0.  1.
          4   -1    0    0  501    0  0.00000000000E+00 -0.00000000000E+00 -0.25290630494E+02  0.25290630494E+02  0.00000000000E+00 0. -1.
         25    2    1    2    0    0 -0.42868529306E+02 -0.18305883618E+02  0.21722996774E+03  0.25496960551E+03  0.12509126537E+03 0.  0.
          5    1    3    3  502    0 -0.24955512588E+02  0.52178329781E+01  0.22305412677E+03  0.22454536125E+03  0.41800000000E+01 0. -1.
         -5    1    3    3    0  502 -0.17913016718E+02 -0.23523716596E+02 -0.58241590328E+01  0.30424244261E+02  0.41800000000E+01 0. -1.
        -11    1    1    2    0    0 -0.28069528780E+02  0.13440759242E+02  0.11215948784E+03  0.11639717852E+03  0.00000000000E+00 0.  1.
         11    1    1    2    0    0  0.70938058086E+02  0.48651243759E+01  0.28951004935E+03  0.29811398189E+03  0.00000000000E+00 0. -1.
</event>
<event>
 7    1  0.4139045E-009  0.5344284E+02  0.7561462E-02  0.1427610E+00
         -4   -1    0    0    0  501 -0.00000000000E+00  0.00000000000E+00  0.10044970743E+03  0.10044970743E+03  0.00000000000E+00 0.  1.
          4   -1    0    0  501    0  0.00000000000E+00 -0.00000000000E+00 -0.14598438097E+03  0.14598438097E+03  0.00000000000E+00 0. -1.
         25    2    1    2    0    0  0.20488199300E+02 -0.39174660816E+02  0.67272681231E+01  0.13284323682E+03  0.12509056348E+03 0.  0.
          5    1    3    3  502    0  0.92388079907E+01 -0.16348926271E+02 -0.59095958756E+02  0.62148593746E+02  0.41800000000E+01 0.  1.
         -5    1    3    3    0  502  0.11249391310E+02 -0.22825734544E+02  0.65823226879E+02  0.70694643073E+02  0.41800000000E+01 0.  1.
        -11    1    1    2    0    0  0.13591050580E+02  0.13813824896E+02  0.21205229561E+02  0.28726297618E+02  0.00000000000E+00 0.  1.
         11    1    1    2    0    0 -0.34079249880E+02  0.25360835919E+02 -0.73467171225E+02  0.84864553959E+02  0.00000000000E+00 0. -1.
</event>
<event>
 7    1  0.2842702E-009  0.1221376E+03  0.7561462E-02  0.1239612E+00
         -2   -1    0    0    0  501 -0.00000000000E+00  0.00000000000E+00  0.21097927928E+03  0.21097927928E+03  0.00000000000E+00 0.  1.
          2   -1    0    0  501    0  0.00000000000E+00 -0.00000000000E+00 -0.93799452567E+02  0.93799452567E+02  0.00000000000E+00 0. -1.
         25    2    1    2    0    0 -0.84407489017E+01 -0.74794243499E+02  0.80575780045E+02  0.16674742837E+03  0.12508726328E+03 0.  0.
          5    1    3    3  502    0 -0.17199744609E+01 -0.10753201723E+03  0.78095244213E+02  0.13297530827E+03  0.41800000000E+01 0. -1.
         -5    1    3    3    0  502 -0.67207744408E+01  0.32737773730E+02  0.24805358325E+01  0.33772120098E+02  0.41800000000E+01 0. -1.
        -11    1    1    2    0    0 -0.11602990300E+02 -0.10317819356E+02  0.47445367253E+02  0.49921434814E+02  0.00000000000E+00 0.  1.
         11    1    1    2    0    0  0.20043739201E+02  0.85112062855E+02 -0.10841320581E+02  0.88109868667E+02  0.00000000000E+00 0. -1.
</event>
<event>
 7    1  0.2842702E-009  0.1468476E+03  0.7561462E-02  0.1204401E+00
         -2   -1    0    0    0  501 -0.00000000000E+00  0.00000000000E+00  0.20149898623E+03  0.20149898623E+03  0.00000000000E+00 0.  1.
          2   -1    0    0  501    0  0.00000000000E+00 -0.00000000000E+00 -0.14961111239E+03  0.14961111239E+03  0.00000000000E+00 0. -1.
         25    2    1    2    0    0  0.12323519771E+03 -0.11494223764E+02 -0.26649826111E+02  0.17797732278E+03  0.12508670216E+03 0.  0.
          5    1    3    3  502    0 -0.16657060736E+02  0.19163154927E+02  0.13671143660E+02  0.29138578347E+02  0.41800000000E+01 0.  1.
         -5    1    3    3    0  502  0.13989225844E+03 -0.30657378691E+02 -0.40320969771E+02  0.14883874443E+03  0.41800000000E+01 0.  1.
        -11    1    1    2    0    0 -0.73433961049E+02  0.14284152556E+02 -0.59217421520E+01  0.75044324767E+02  0.00000000000E+00 0. -1.
         11    1    1    2    0    0 -0.49801236658E+02 -0.27899287912E+01  0.84459442103E+02  0.98088451082E+02  0.00000000000E+00 0.  1.
</event>
<event>
 7    1  0.2842702E-009  0.1005412E+03  0.7561462E-02  0.1279162E+00
          2   -1    0    0  501    0  0.00000000000E+00  0.00000000000E+00  0.20275299615E+03  0.20275299615E+03  0.00000000000E+00 0. -1.
         -2   -1    0    0    0  501 -0.00000000000E+00 -0.00000000000E+00 -0.79545803929E+02  0.79545803929E+02  0.00000000000E+00 0.  1.
         25    2    1    2    0    0 -0.47917902179E+02 -0.48197420224E+02  0.59392489929E+02  0.15424928376E+03  0.12508499916E+03 0.  0.
          5    1    3    3  502    0 -0.73909714385E+02 -0.97834392576E+01  0.74313079385E+02  0.10534831623E+03  0.41800000000E+01 0. -1.
         -5    1    3    3    0  502  0.25991812206E+02 -0.38413980967E+02 -0.14920589457E+02  0.48900967528E+02  0.41800000000E+01 0. -1.
        -11    1    1    2    0    0  0.18276392479E+02 -0.49961060671E+01  0.64423340535E+02  0.67151726735E+02  0.00000000000E+00 0. -1.
         11    1    1    2    0    0  0.29641509700E+02  0.53193526291E+02 -0.60863823910E+00  0.60897789591E+02  0.00000000000E+00 0.  1.
</event>
<event>
 7    1  0.2842702E-009  0.1225915E+03  0.7561462E-02  0.1238882E+00
          1   -1    0    0  501    0  0.00000000000E+00  0.00000000000E+00  0.58011072977E+03  0.58011072977E+03  0.00000000000E+00 0. -1.
         -1   -1    0    0    0  501 -0.00000000000E+00 -0.00000000000E+00 -0.31829424271E+02  0.31829424271E+02  0.00000000000E+00 0.  1.
         25    2    1    2    0    0  0.23818991386E+02  0.59078837306E+02  0.17613460560E+03  0.22522180776E+03  0.12507521750E+03 0.  0.
          5    1    3    3  502    0  0.71453162359E+02  0.10788900960E+02  0.92703443160E+02  0.11761528629E+03  0.41800000000E+01 0. -1.
         -5    1    3    3    0  502 -0.47634170973E+02  0.48289936346E+02  0.83431162441E+02  0.10760652147E+03  0.41800000000E+01 0. -1.
        -11    1    1    2    0    0  0.26557603147E+02 -0.45470493899E+02  0.17192732991E+03  0.17981067508E+03  0.00000000000E+00 0. -1.
         11    1    1    2    0    0 -0.50376594532E+02 -0.13608343407E+02  0.20021936999E+03  0.20690767121E+03  0.00000000000E+00 0.  1.
</event>
<event>
 7    1  0.2842702E-009  0.1064399E+03  0.7561462E-02  0.1267308E+00
         -2   -1    0    0    0  501 -0.00000000000E+00  0.00000000000E+00  0.47690911083E+02  0.47690911083E+02  0.00000000000E+00 0.  1.
          2   -1    0    0  501    0  0.00000000000E+00 -0.00000000000E+00 -0.41638871238E+03  0.41638871238E+03  0.00000000000E+00 0. -1.
         25    2    1    2    0    0  0.72349072685E+01  0.84317579272E+01 -0.54946432717E+02  0.13707339637E+03  0.12508623865E+03 0.  0.
          5    1    3    3  502    0 -0.30257965142E+02 -0.48415182609E+02 -0.27895716263E+02  0.63680591607E+02  0.41800000000E+01 0.  1.
         -5    1    3    3    0  502  0.37492872410E+02  0.56846940537E+02 -0.27050716453E+02  0.73392804760E+02  0.41800000000E+01 0.  1.
        -11    1    1    2    0    0 -0.34074103011E+02  0.26635384009E+02 -0.20721716186E+03  0.21168240443E+03  0.00000000000E+00 0.  1.
         11    1    1    2    0    0  0.26839195743E+02 -0.35067141936E+02 -0.10653420672E+03  0.11532382266E+03  0.00000000000E+00 0. -1.
</event>
<event>
 7    1  0.2842702E-009  0.8160974E+02  0.7561462E-02  0.1324544E+00
          1   -1    0    0  501    0  0.00000000000E+00  0.00000000000E+00  0.15318701209E+04  0.15318701209E+04  0.00000000000E+00 0. -1.
         -1   -1    0    0    0  501 -0.00000000000E+00 -0.00000000000E+00 -0.10330697349E+02  0.10330697349E+02  0.00000000000E+00 0.  1.
         25    2    1    2    0    0 -0.42536401094E+02  0.33168877161E+02  0.10385992890E+04  0.10474929435E+04  0.12507383311E+03 0.  0.
          5    1    3    3  502    0 -0.42176877464E+01 -0.10703826190E+01  0.89325341434E+03  0.89327379298E+03  0.41800000000E+01 0. -1.
         -5    1    3    3    0  502 -0.38318713348E+02  0.34239259780E+02  0.14534587471E+03  0.15421915056E+03  0.41800000000E+01 0. -1.
        -11    1    1    2    0    0  0.59300554100E+02  0.92496706451E+01  0.31599640641E+03  0.32164552070E+03  0.00000000000E+00 0. -1.
         11    1    1    2    0    0 -0.16764153006E+02 -0.42418547806E+02  0.16694372805E+03  0.17306235396E+03  0.00000000000E+00 0.  1.
</event>
<event>
 7    1  0.2842702E-009  0.1188788E+03  0.7561462E-02  0.1244958E+00
         -2   -1    0    0    0  501 -0.00000000000E+00  0.00000000000E+00  0.26788172838E+03  0.26788172838E+03  0.00000000000E+00 0.  1.
          2   -1    0    0  501    0  0.00000000000E+00 -0.00000000000E+00 -0.93325751858E+02  0.93325751858E+02  0.00000000000E+00 0. -1.
         25    2    1    2    0    0  0.70890427143E+02 -0.36501550556E+02  0.72583494701E+00  0.14834160301E+03  0.12508752333E+03 0.  0.
          5    1    3    3  502    0  0.55919700468E+02  0.28367001238E+02 -0.35766015215E+02  0.72307536979E+02  0.41800000000E+01 0. -1.
         -5    1    3    3    0  502  0.14970726675E+02 -0.64868551794E+02  0.36491850162E+02  0.76034066031E+02  0.41800000000E+01 0. -1.
        -11    1    1    2    0    0 -0.53347824285E+02  0.59090580393E+02  0.16455189287E+03  0.18279773656E+03  0.00000000000E+00 0.  1.
         11    1    1    2    0    0 -0.17542602858E+02 -0.22589029837E+02  0.92782487128E+01  0.30068140668E+02  0.00000000000E+00 0. -1.
</event>
<event>
 7    1  0.2842702E-009  0.1391354E+03  0.7561462E-02  0.1214497E+00
          3   -1    0    0  501    0  0.00000000000E+00  0.00000000000E+00  0.26721419881E+03  0.26721419881E+03  0.00000000000E+00 0. -1.
         -3   -1    0    0    0  501 -0.00000000000E+00 -0.00000000000E+00 -0.10250637627E+03  0.10250637627E+03  0.00000000000E+00 0.  1.
         25    2    1    2    0    0 -0.11409561464E+03 -0.49768664835E+02  0.67493290982E+02  0.18893937429E+03  0.12509202033E+03 0.  0.
          5    1    3    3  502    0 -0.28591935424E+02  0.38616909111E+01  0.81868360829E+02  0.86904040947E+02  0.41800000000E+01 0. -1.
         -5    1    3    3    0  502 -0.85503679220E+02 -0.53630355747E+02 -0.14375069847E+02  0.10203533334E+03  0.41800000000E+01 0. -1.
        -11    1    1    2    0    0  0.90770551673E+02  0.72014414981E+02  0.56665369016E+02  0.12898190982E+03  0.00000000000E+00 0.  1.
         11    1    1    2    0    0  0.23325062971E+02 -0.22245750146E+02  0.40549162542E+02  0.51799290970E+02  0.00000000000E+00 0. -1.
</event>
<event>
 6    1  0.2842702E-009  0.8919000E+02  0.7561462E-02  0.1304825E+00
          2   -1    0    0  501    0  0.00000000000E+00  0.00000000000E+00  0.27143282444E+03  0.27143282444E+03  0.00000000000E+00 0. -1.
         -2   -1    0    0    0  501 -0.00000000000E+00 -0.00000000000E+00 -0.83920095897E+02  0.83920095897E+02  0.00000000000E+00 0.  1.
          5    1    1    2  502    0  0.68899426452E+02  0.17073342734E+02 -0.33878473054E+02  0.78764543634E+02  0.41800000000E+01 0. -1.
         -5    1    1    2    0  502 -0.47900632724E+02  0.86379510139E+01  0.18375661122E+02  0.52194081415E+02  0.41800000000E+01 0. -1.
        -11    1    1    2    0    0 -0.32608520362E+02 -0.27901640150E+01  0.19463654860E+03  0.19736891008E+03  0.00000000000E+00 0. -1.
         11    1    1    2    0    0  0.11609726635E+02 -0.22921129733E+02  0.83789918758E+01  0.27025385208E+02  0.00000000000E+00 0.  1.
</event>
<event>
 7    1  0.2842702E-009  0.9859957E+02  0.7561462E-02  0.1283269E+00
          1   -1    0    0  501    0  0.00000000000E+00  0.00000000000E+00  0.27223500417E+02  0.27223500417E+02  0.00000000000E+00 0. -1.
         -1   -1    0    0    0  501 -0.00000000000E+00 -0.00000000000E+00 -0.56128971798E+03  0.56128971798E+03  0.00000000000E+00 0.  1.
         25    2    1    2    0    0 -0.37993050629E+02 -0.23939036149E+02 -0.20967219259E+03  0.24824574486E+03  0.12508785771E+03 0.  0.
          5    1    3    3  502    0 -0.48206349921E+02 -0.49027301669E+02 -0.47260784564E+02  0.83537911389E+02  0.41800000000E+01 0. -1.
         -5    1    3    3    0  502  0.10213299292E+02  0.25088265519E+02 -0.16241140802E+03  0.16470783347E+03  0.41800000000E+01 0. -1.
        -11    1    1    2    0    0  0.41762766509E+02  0.55312451920E+02 -0.25025961723E+03  0.25967955642E+03  0.00000000000E+00 0.  1.
         11    1    1    2    0    0 -0.37697158804E+01 -0.31373415771E+02 -0.74134407745E+02  0.80587917125E+02  0.00000000000E+00 0. -1.
</event>
<event>
 7    1  0.2842702E-009  0.1015221E+03  0.7561462E-02  0.1277127E+00
         -1   -1    0    0    0  501 -0.00000000000E+00  0.00000000000E+00  0.40180218634E+02  0.40180218634E+02  0.00000000000E+00 0.  1.
          1   -1    0    0  501    0  0.00000000000E+00 -0.00000000000E+00 -0.31101761111E+03  0.31101761111E+03  0.00000000000E+00 0. -1.
         25    2    1    2    0    0 -0.25932436279E+02 -0.14260781030E+02 -0.14394996902E+03  0.19298738088E+03  0.12508666784E+03 0.  0.
          5    1    3    3  502    0  0.77147549713E+01 -0.56970632910E+02 -0.26391594857E+02  0.63396838545E+02  0.41800000000E+01 0. -1.
         -5    1    3    3    0  502 -0.33647191250E+02  0.42709851880E+02 -0.11755837416E+03  0.12959054233E+03  0.41800000000E+01 0. -1.
        -11    1    1    2    0    0 -0.26577165359E+02 -0.15244073260E+02 -0.23718451270E+02  0.38746514924E+02  0.00000000000E+00 0.  1.
         11    1    1    2    0    0  0.52509601638E+02  0.29504854290E+02 -0.10316897219E+03  0.11946393394E+03  0.00000000000E+00 0. -1.
</event>
<event>
 7    1  0.2842702E-009  0.1647195E+03  0.7561462E-02  0.1183469E+00
          2   -1    0    0  501    0  0.00000000000E+00  0.00000000000E+00  0.82600780038E+03  0.82600780038E+03  0.00000000000E+00 0. -1.
         -2   -1    0    0    0  501 -0.00000000000E+00 -0.00000000000E+00 -0.40692252702E+02  0.40692252702E+02  0.00000000000E+00 0.  1.
         25    2    1    2    0    0  0.20044233562E+02 -0.12125663669E+03  0.52315381291E+03  0.55176306620E+03  0.12509047133E+03 0.  0.
          5    1    3    3  502    0  0.10645882475E+02 -0.13723043148E+03  0.32865430704E+03  0.35633783419E+03  0.41800000000E+01 0. -1.
         -5    1    3    3    0  502  0.93983510867E+01  0.15973794785E+02  0.19449950588E+03  0.19542523202E+03  0.41800000000E+01 0. -1.
        -11    1    1    2    0    0 -0.65281567327E+02  0.32077174889E+02  0.88630511491E+02  0.11465598872E+03  0.00000000000E+00 0.  1.
         11    1    1    2    0    0  0.45237333766E+02  0.89179461806E+02  0.17353122328E+03  0.20028099816E+03  0.00000000000E+00 0. -1.
</event>
<event>
 7    1  0.2842702E-009  0.1629147E+03  0.7561462E-02  0.1185445E+00
          2   -1    0    0  501    0  0.00000000000E+00  0.00000000000E+00  0.35930098238E+03  0.35930098238E+03  0.00000000000E+00 0. -1.
         -2   -1    0    0    0  501 -0.00000000000E+00 -0.00000000000E+00 -0.89676528031E+02  0.89676528031E+02  0.00000000000E+00 0.  1.
         25    2    1    2    0    0  0.23785110855E+02 -0.12201857302E+03  0.23301013252E+03  0.29222306525E+03  0.12508530830E+03 0.  0.
          5    1    3    3  502    0 -0.30164122119E+02  0.89204321606E+01  0.24301136258E+02  0.39968312406E+02  0.41800000000E+01 0.  1.
         -5    1    3    3    0  502  0.53949232975E+02 -0.13093900518E+03  0.20870899626E+03  0.25225475285E+03  0.41800000000E+01 0.  1.
        -11    1    1    2    0    0 -0.57012311652E+02  0.88085165751E+02  0.25348469152E+02  0.10794417536E+03  0.00000000000E+00 0. -1.
         11    1    1    2    0    0  0.33227200797E+02  0.33933407268E+02  0.11265852685E+02  0.48810269804E+02  0.00000000000E+00 0.  1.
</event>
<event>
 7    1  0.2842702E-009  0.1328273E+03  0.7561462E-02  0.1223320E+00
          1   -1    0    0  501    0  0.00000000000E+00  0.00000000000E+00  0.98075084591E+03  0.98075084591E+03  0.00000000000E+00 0. -1.
         -1   -1    0    0    0  501 -0.00000000000E+00 -0.00000000000E+00 -0.22033107706E+02  0.22033107706E+02  0.00000000000E+00 0.  1.
         25    2    1    2    0    0  0.73626861744E+00  0.97242264556E+02  0.51266168819E+03  0.53658733640E+03  0.12508941980E+03 0.  0.
          5    1    3    3  502    0  0.58440433196E+02  0.25632563689E+02  0.16548619207E+03  0.17741325971E+03  0.41800000000E+01 0.  1.
         -5    1    3    3    0  502 -0.57704164579E+02  0.71609700867E+02  0.34717549612E+03  0.35917407670E+03  0.41800000000E+01 0.  1.
        -11    1    1    2    0    0  0.10816174881E+02 -0.97489172692E+02  0.44368863285E+03  0.45440150897E+03  0.00000000000E+00 0. -1.
         11    1    1    2    0    0 -0.11552443499E+02  0.24690813594E+00  0.23674171636E+01  0.11795108242E+02  0.00000000000E+00 0.  1.
</event>
<event>
 7    1  0.2842702E-009  0.1833842E+03  0.7561462E-02  0.1164567E+00
         -2   -1    0    0    0  501 -0.00000000000E+00  0.00000000000E+00  0.20467580187E+03  0.20467580187E+03  0.00000000000E+00 0.  1.
          2   -1    0    0  501    0  0.00000000000E+00 -0.00000000000E+00 -0.22721656126E+03  0.22721656126E+03  0.00000000000E+00 0. -1.
         25    2    1    2    0    0 -0.83192069885E+02  0.13599562566E+03  0.81205452413E+02  0.21830169052E+03  0.12508226050E+03 0.  0.
          5    1    3    3  502    0 -0.55148723267E+01  0.89651386459E+02  0.90131590315E+02  0.12731441742E+03  0.41800000000E+01 0.  1.
         -5    1    3    3    0  502 -0.77677197558E+02  0.46344239206E+02 -0.89261379020E+01  0.90987273098E+02  0.41800000000E+01 0.  1.
        -11    1    1    2    0    0  0.29322210657E+02  0.97649183213E+01 -0.12150752722E+02  0.33208228789E+02  0.00000000000E+00 0.  1.
         11    1    1    2    0    0  0.53869859228E+02 -0.14576054399E+03 -0.91595459076E+02  0.18038244382E+03  0.00000000000E+00 0. -1.
</event>
<event>
 7    1  0.2842702E-009  0.1761344E+03  0.7561462E-02  0.1171598E+00
         -1   -1    0    0    0  501 -0.00000000000E+00  0.00000000000E+00  0.29923582522E+02  0.29923582522E+02  0.00000000000E+00 0.  1.
          1   -1    0    0  501    0  0.00000000000E+00 -0.00000000000E+00 -0.13820138647E+04  0.13820138647E+04  0.00000000000E+00 0. -1.
         25    2    1    2    0    0  0.10120731939E+03 -0.11242697234E+03 -0.98828544441E+03  0.10075893722E+04  0.12508188429E+03 0.  0.
          5    1    3    3  502    0  0.11367321356E+03 -0.11644005079E+03 -0.68820000557E+03  0.70718922855E+03  0.41800000000E+01 0. -1.
         -5    1    3    3    0  502 -0.12465894166E+02  0.40130784504E+01 -0.30008543884E+03  0.30040014368E+03  0.41800000000E+01 0. -1.
        -11    1    1    2    0    0 -0.97489245392E+02  0.43566453718E+02 -0.23870493822E+03  0.26149997397E+03  0.00000000000E+00 0. -1.
         11    1    1    2    0    0 -0.37180740030E+01  0.68860518620E+02 -0.12509989951E+03  0.14284810099E+03  0.00000000000E+00 0.  1.
</event>
<event>
 7    1  0.2842702E-009  0.1402869E+03  0.7561462E-02  0.1212943E+00
         -2   -1    0    0    0  501 -0.00000000000E+00  0.00000000000E+00  0.78706236465E+02  0.78706236465E+02  0.00000000000E+00 0.  1.
          2   -1    0    0  501    0  0.00000000000E+00 -0.00000000000E+00 -0.33997837287E+03  0.33997837287E+03  0.00000000000E+00 0. -1.
         25    2    1    2    0    0  0.75136644295E+02 -0.70476667664E+02 -0.94395453801E+02  0.18753794915E+03  0.12508998630E+03 0.  0.
          5    1    3    3  502    0 -0.18108672525E+02 -0.53870207010E+02 -0.68806527831E+02  0.89340550122E+02  0.41800000000E+01 0.  1.
         -5    1    3    3    0  502  0.93245316819E+02 -0.16606460654E+02 -0.25588925970E+02  0.98197399031E+02  0.41800000000E+01 0.  1.
        -11    1    1    2    0    0 -0.61248117498E+02  0.87504229029E+02 -0.60974015277E+02  0.12298842439E+03  0.00000000000E+00 0.  1.
         11    1    1    2    0    0 -0.13888526796E+02 -0.17027561365E+02 -0.10590266733E+03  0.10815823580E+03  0.00000000000E+00 0. -1.
</event>
<event>
 7    1  0.2842702E-009  0.1225076E+03  0.7561462E-02  0.1239017E+00
          2   -1    0    0  501    0  0.00000000000E+00  0.00000000000E+00  0.49349961766E+03  0.49349961766E+03  0.00000000000E+00 0. -1.
         -2   -1    0    0    0  501 -0.00000000000E+00 -0.00000000000E+00 -0.40687097237E+02  0.40687097237E+02  0.00000000000E+00 0.  1.
         25    2    1    2    0    0  0.70980542819E+00 -0.86833191989E+02  0.25896128518E+03  0.30041481252E+03  0.12509038855E+03 0.  0.
          5    1    3    3  502    0 -0.56750041885E+02 -0.41831568378E+02  0.77882650738E+02  0.10513623092E+03  0.41800000000E+01 0. -1.
         -5    1    3    3    0  502  0.57459847313E+02 -0.45001623611E+02  0.18107863444E+03  0.19527858160E+03  0.41800000000E+01 0. -1.
        -11    1    1    2    0    0  0.25701230510E+02  0.41118585308E+02  0.16824708681E+03  0.17509532698E+03  0.00000000000E+00 0. -1.
         11    1    1    2    0    0 -0.26411035938E+02  0.45714606681E+02  0.25604148427E+02  0.58676575394E+02  0.00000000000E+00 0.  1.
</event>
<event>
 7    1  0.2842702E-009  0.1506782E+03  0.7561462E-02  0.1199642E+00
         -1   -1    0    0    0  501 -0.00000000000E+00  0.00000000000E+00  0.10177392376E+03  0.10177392376E+03  0.00000000000E+00 0.  1.
          1   -1    0    0  501    0  0.00000000000E+00 -0.00000000000E+00 -0.30832648996E+03  0.30832648996E+03  0.00000000000E+00 0. -1.
         25    2    1    2    0    0 -0.83464177932E+01 -0.13868688407E+03 -0.13291419326E+03  0.22938519519E+03  0.12509064914E+03 0.  0.
          5    1    3    3  502    0 -0.14505474404E+02 -0.25160572787E+02 -0.10932671620E+03  0.11319569995E+03  0.41800000000E+01 0. -1.
         -5    1    3    3    0  502  0.61590566103E+01 -0.11352631128E+03 -0.23587477054E+02  0.11618949524E+03  0.41800000000E+01 0. -1.
        -11    1    1    2    0    0  0.30438445179E+02  0.13155426284E+03 -0.79601920923E+02  0.15674657518E+03  0.00000000000E+00 0. -1.
         11    1    1    2    0    0 -0.22092027386E+02  0.71326212238E+01  0.59635479837E+01  0.23968643351E+02  0.00000000000E+00 0.  1.
</event>
<event>
 7    1  0.2842702E-009  0.1412885E+03  0.7561462E-02  0.1211606E+00
          1   -1    0    0  501    0  0.00000000000E+00  0.00000000000E+00  0.64336878328E+03  0.64336878328E+03  0.00000000000E+00 0. -1.
         -1   -1    0    0    0  501 -0.00000000000E+00 -0.00000000000E+00 -0.44149278947E+02  0.44149278947E+02  0.00000000000E+00 0.  1.
         25    2    1    2    0    0  0.12476452467E+03  0.11503330876E+02  0.35194449285E+03  0.39396892053E+03  0.12509225020E+03 0.  0.
          5    1    3    3  502    0  0.34771708747E+02  0.25114458423E+02  0.16133427533E+02  0.46017036356E+02  0.41800000000E+01 0.  1.
         -5    1    3    3    0  502  0.89992815921E+02 -0.13611127547E+02  0.33581106532E+03  0.34795188417E+03  0.41800000000E+01 0.  1.
        -11    1    1    2    0    0 -0.53667327048E+02 -0.44754974314E+02  0.16817883963E+03  0.18211894964E+03  0.00000000000E+00 0. -1.
         11    1    1    2    0    0 -0.71097197620E+02  0.33251643438E+02  0.79096171858E+02  0.11143019206E+03  0.00000000000E+00 0.  1.
</event>
<event>
 7    1  0.3042398E-009  0.2235634E+03  0.7561462E-02  0.1131254E+00
          2   -1    0    0  501    0  0.00000000000E+00  0.00000000000E+00  0.13186540796E+04  0.13186540796E+04  0.00000000000E+00 0. -1.
         -2   -1    0    0    0  501 -0.00000000000E+00 -0.00000000000E+00 -0.44589966545E+02  0.44589966545E+02  0.00000000000E+00 0.  1.
         25    2    1    2    0    0  0.73189300444E+02  0.19857504186E+03  0.78641958814E+03  0.82394917758E+03  0.12509099755E+03 0.  0.
          5    1    3    3  502    0 -0.22960724263E+02  0.15159082872E+02  0.36201066113E+02  0.45661605753E+02  0.41800000000E+01 0. -1.
         -5    1    3    3    0  502  0.96150024707E+02  0.18341595899E+03  0.75021852203E+03  0.77828757182E+03  0.41800000000E+01 0. -1.
        -11    1    1    2    0    0 -0.35665204585E+02 -0.75556094594E+02  0.30274590372E+03  0.31406338925E+03  0.00000000000E+00 0. -1.
         11    1    1    2    0    0 -0.37524095858E+02 -0.12301894727E+03  0.18489862120E+03  0.22523147932E+03  0.00000000000E+00 0.  1.
</event>
<event>
 7    1  0.2842702E-009  0.2126153E+03  0.7561462E-02  0.1139511E+00
         -1   -1    0    0    0  501 -0.00000000000E+00  0.00000000000E+00  0.59918178245E+02  0.59918178245E+02  0.00000000000E+00 0.  1.
          1   -1    0    0  501    0  0.00000000000E+00 -0.00000000000E+00 -0.80355298096E+03  0.80355298096E+03  0.00000000000E+00 0. -1.
         25    2    1    2    0    0  0.14434894187E+03 -0.12390666453E+03 -0.37532000424E+03  0.43897881564E+03  0.12509123257E+03 0.  0.
          5    1    3    3  502    0  0.85773781373E+02 -0.60587339832E+01 -0.21451487819E+03  0.23114487923E+03  0.41800000000E+01 0. -1.
         -5    1    3    3    0  502  0.58575160496E+02 -0.11784793055E+03 -0.16080512605E+03  0.20783393642E+03  0.41800000000E+01 0. -1.
        -11    1    1    2    0    0 -0.24096572585E+02 -0.11225083392E+02 -0.25272661669E+02  0.36679077624E+02  0.00000000000E+00 0.  1.
         11    1    1    2    0    0 -0.12025236928E+03  0.13513174792E+03 -0.34304213681E+03  0.38781326594E+03  0.00000000000E+00 0. -1.
</event>
<event>
 7    1  0.2842702E-009  0.8603930E+02  0.7561462E-02  0.1312737E+00
         -2   -1    0    0    0  501 -0.00000000000E+00  0.00000000000E+00  0.16191655818E+03  0.16191655818E+03  0.00000000000E+00 0. -1.
          2   -1    0    0  501    0  0.00000000000E+00 -0.00000000000E+00 -0.79175372186E+02  0.79175372186E+02  0.00000000000E+00 0.  1.
         25    2    1    2    0    0 -0.10416531145E+02 -0.26262107377E+02  0.57383973971E+02  0.14049206735E+03  0.12508756178E+03 0.  0.
          5    1    3    3  502    0  0.17196850459E+02 -0.59759702799E+02 -0.70109461946E+01  0.62718255005E+02  0.41800000000E+01 0. -1.
         -5    1    3    3    0  502 -0.27613381604E+02  0.33497595422E+02  0.64394920166E+02  0.77773812340E+02  0.41800000000E+01 0. -1.
        -11    1    1    2    0    0  0.49791931281E+01 -0.19464911783E+02  0.45954080929E+02  0.50154289038E+02  0.00000000000E+00 0. -1.
         11    1    1    2    0    0  0.54373380171E+01  0.45727019161E+02 -0.20596868903E+02  0.50445573985E+02  0.00000000000E+00 0.  1.
</event>
<event>
 7    1  0.2842702E-009  0.1114329E+03  0.7561462E-02  0.1257939E+00
         -2   -1    0    0    0  501 -0.00000000000E+00  0.00000000000E+00  0.86939743067E+02  0.86939743067E+02  0.00000000000E+00 0. -1.
          2   -1    0    0  501    0  0.00000000000E+00 -0.00000000000E+00 -0.19073425650E+03  0.19073425650E+03  0.00000000000E+00 0.  1.
         25    2    1    2    0    0 -0.48108044862E+02  0.25521926049E+02 -0.10741706918E+03  0.17364408052E+03  0.12509231494E+03 0.  0.
          5    1    3    3  502    0 -0.13807343755E+02 -0.49915984279E+02 -0.29135991429E+02  0.59570350215E+02  0.41800000000E+01 0. -1.
         -5    1    3    3    0  502 -0.34300701107E+02  0.75437910328E+02 -0.78281077752E+02  0.11407373030E+03  0.41800000000E+01 0. -1.
        -11    1    1    2    0    0 -0.14991423368E+02 -0.19426775968E+02  0.26980512673E+02  0.36470405307E+02  0.00000000000E+00 0. -1.
         11    1    1    2    0    0  0.63099468230E+02 -0.60951500812E+01 -0.23357956925E+02  0.67559513743E+02  0.00000000000E+00 0.  1.
</event>
<event>
 7    1  0.2842702E-009  0.9584144E+02  0.7561462E-02  0.1289292E+00
         -1   -1    0    0    0  501 -0.00000000000E+00  0.00000000000E+00  0.42930885854E+03  0.42930885854E+03  0.00000000000E+00 0.  1.
          1   -1    0    0  501    0  0.00000000000E+00 -0.00000000000E+00 -0.42431512249E+02  0.42431512249E+02  0.00000000000E+00 0. -1.
         25    2    1    2    0    0  0.44519666322E+00 -0.79753074884E+02  0.22829476170E+03  0.27226243104E+03  0.12509029533E+03 0.  0.
          5    1    3    3  502    0 -0.28615865766E+02 -0.28889277977E+02  0.20507527145E+03  0.20910953473E+03  0.41800000000E+01 0. -1.
         -5    1    3    3    0  502  0.29061062429E+02 -0.50863796906E+02  0.23219490249E+02  0.63152896312E+02  0.41800000000E+01 0. -1.
        -11    1    1    2    0    0  0.20714152515E+02  0.58615760303E+02  0.15775000132E+03  0.16955809148E+03  0.00000000000E+00 0.  1.
         11    1    1    2    0    0 -0.21159349178E+02  0.21137314581E+02  0.83258327304E+00  0.29919848265E+02  0.00000000000E+00 0. -1.
</event>
<event>
 7    1  0.2842702E-009  0.1483599E+03  0.7561462E-02  0.1202503E+00
          2   -1    0    0  501    0  0.00000000000E+00  0.00000000000E+00  0.94521046797E+03  0.94521046797E+03  0.00000000000E+00 0. -1.
         -2   -1    0    0    0  501 -0.00000000000E+00 -0.00000000000E+00 -0.34522202631E+02  0.34522202631E+02  0.00000000000E+00 0.  1.
         25    2    1    2    0    0 -0.11117611871E+03  0.92102273309E+02  0.45124669967E+03  0.49001391518E+03  0.12508834873E+03 0.  0.
          5    1    3    3  502    0 -0.10670520149E+03  0.74872492145E+02  0.45323056735E+03  0.47162199873E+03  0.41800000000E+01 0.  1.
         -5    1    3    3    0  502 -0.44709172172E+01  0.17229781164E+02 -0.19838676807E+01  0.18391916450E+02  0.41800000000E+01 0.  1.
        -11    1    1    2    0    0  0.25033510370E+02 -0.40462002522E+02  0.53767682975E+02  0.71797033518E+02  0.00000000000E+00 0.  1.
         11    1    1    2    0    0  0.86142608336E+02 -0.51640270787E+02  0.40567388269E+03  0.41792172190E+03  0.00000000000E+00 0. -1.
</event>
<event>
 7    1  0.2842702E-009  0.9915185E+02  0.7561462E-02  0.1282090E+00
         -1   -1    0    0    0  501 -0.00000000000E+00  0.00000000000E+00  0.22034195203E+02  0.22034195203E+02  0.00000000000E+00 0.  1.
          1   -1    0    0  501    0  0.00000000000E+00 -0.00000000000E+00 -0.71701471836E+03  0.71701471836E+03  0.00000000000E+00 0. -1.
         25    2    1    2    0    0  0.25962550472E+02 -0.58215589463E+02 -0.41811785812E+03  0.44105915053E+03  0.12509005596E+03 0.  0.
          5    1    3    3  502    0 -0.36380594011E+01  0.27356488536E+02 -0.24500415870E+02  0.37139678499E+02  0.41800000000E+01 0. -1.
         -5    1    3    3    0  502  0.29600609873E+02 -0.85572077999E+02 -0.39361744225E+03  0.40391947203E+03  0.41800000000E+01 0. -1.
        -11    1    1    2    0    0 -0.19992558214E+02  0.66554470983E+02 -0.27899108401E+03  0.28751560818E+03  0.00000000000E+00 0. -1.
         11    1    1    2    0    0 -0.59699922579E+01 -0.83388815202E+01  0.21284189742E+01  0.10474154854E+02  0.00000000000E+00 0.  1.
</event>
<event>
 6    1  0.2842702E-009  0.1025441E+03  0.7561462E-02  0.1275035E+00
          2   -1    0    0  501    0  0.00000000000E+00  0.00000000000E+00  0.88468617205E+03  0.88468617205E+03  0.00000000000E+00 0.  1.
         -2   -1    0    0    0  501 -0.00000000000E+00 -0.00000000000E+00 -0.28324738779E+02  0.28324738779E+02  0.00000000000E+00 0. -1.
          5    1    1    2  502    0 -0.30202732053E+02 -0.10765526410E+02  0.74132806979E+02  0.80877976316E+02  0.41800000000E+01 0. -1.
         -5    1    1    2    0  502  0.69129129889E+02  0.67930640226E+02  0.65159195188E+03  0.65877382509E+03  0.41800000000E+01 0. -1.
        -11    1    1    2    0    0 -0.10277150773E+02 -0.42175283599E+02  0.50796570622E+01  0.43705575051E+02  0.00000000000E+00 0. -1.
         11    1    1    2    0    0 -0.28649247063E+02 -0.14989830216E+02  0.12555701735E+03  0.12965353436E+03  0.00000000000E+00 0.  1.
</event>
<event>
 7    1  0.2842702E-009  0.9703198E+02  0.7561462E-02  0.1286664E+00
          2   -1    0    0  501    0  0.00000000000E+00  0.00000000000E+00  0.33095122207E+03  0.33095122207E+03  0.00000000000E+00 0. -1.
         -2   -1    0    0    0  501 -0.00000000000E+00 -0.00000000000E+00 -0.44305833298E+02  0.44305833298E+02  0.00000000000E+00 0.  1.
         25    2    1    2    0    0  0.10530382394E+02 -0.51540131555E+02  0.14292984466E+03  0.19708593616E+03  0.12508657651E+03 0.  0.
          5    1    3    3  502    0 -0.48362842640E+02 -0.37904014179E+02  0.11480437948E+03  0.13028122193E+03  0.41800000000E+01 0.  1.
         -5    1    3    3    0  502  0.58893225034E+02 -0.13636117376E+02  0.28125465178E+02  0.66804714231E+02  0.41800000000E+01 0.  1.
        -11    1    1    2    0    0  0.19604538012E+02  0.16167583589E+02 -0.17424820004E+01  0.25470864008E+02  0.00000000000E+00 0.  1.
         11    1    1    2    0    0 -0.30134920406E+02  0.35372547966E+02  0.14545802611E+03  0.15270025520E+03  0.00000000000E+00 0. -1.
</event>
<event>
 7    1  0.2842702E-009  0.1552033E+03  0.7561462E-02  0.1194221E+00
          3   -1    0    0  501    0  0.00000000000E+00  0.00000000000E+00  0.32994001099E+03  0.32994001099E+03  0.00000000000E+00 0. -1.
         -3   -1    0    0    0  501 -0.00000000000E+00 -0.00000000000E+00 -0.10872676244E+03  0.10872676244E+03  0.00000000000E+00 0.  1.
         25    2    1    2    0    0  0.24326447781E+02  0.12889332817E+03  0.21236607616E+03  0.27919545553E+03  0.12508191707E+03 0.  0.
          5    1    3    3  502    0  0.50628839660E+02  0.16963550579E+02  0.12083735835E+03  0.13217481238E+03  0.41800000000E+01 0.  1.
         -5    1    3    3    0  502 -0.26302391879E+02  0.11192977759E+03  0.91528717806E+02  0.14702064315E+03  0.41800000000E+01 0.  1.
        -11    1    1    2    0    0  0.14131811285E+02 -0.70299572490E+02 -0.31809977571E+02  0.78444965776E+02  0.00000000000E+00 0. -1.
         11    1    1    2    0    0 -0.38458259066E+02 -0.58593755677E+02  0.40657149968E+02  0.81026352123E+02  0.00000000000E+00 0.  1.
</event>
<event>
 7    1  0.2842702E-009  0.7099563E+02  0.7561462E-02  0.1356740E+00
         -2   -1    0    0    0  501 -0.00000000000E+00  0.00000000000E+00  0.12318488010E+03  0.12318488010E+03  0.00000000000E+00 0.  1.
          2   -1    0    0  501    0  0.00000000000E+00 -0.00000000000E+00 -0.20448070812E+03  0.20448070812E+03  0.00000000000E+00 0. -1.
         25    2    1    2    0    0 -0.43730730463E+02  0.56445111050E+01  0.68867710427E+02  0.14944298061E+03  0.12508479373E+03 0.  0.
          5    1    3    3  502    0 -0.50233488808E+02  0.10640363039E+01  0.10271573227E+03  0.11442259229E+03  0.41800000000E+01 0.  1.
         -5    1    3    3    0  502  0.65027583453E+01  0.45804748011E+01 -0.33848021840E+02  0.35020388319E+02  0.41800000000E+01 0.  1.
        -11    1    1    2    0    0  0.22837160529E+02 -0.37845469690E+02 -0.33662083762E+02  0.55560339814E+02  0.00000000000E+00 0.  1.
         11    1    1    2    0    0  0.20893569933E+02  0.32200958585E+02 -0.11650145468E+03  0.12266226780E+03  0.00000000000E+00 0. -1.
</event>
<event>
 7    1  0.5831841E-009  0.9586467E+02  0.7561462E-02  0.1289240E+00
         -2   -1    0    0    0  501 -0.00000000000E+00  0.00000000000E+00  0.22173498148E+02  0.22173498148E+02  0.00000000000E+00 0.  1.
          2   -1    0    0  501    0  0.00000000000E+00 -0.00000000000E+00 -0.69082642499E+03  0.69082642499E+03  0.00000000000E+00 0. -1.
         25    2    1    2    0    0 -0.46322232373E+02 -0.32864706086E+02 -0.42288120454E+03  0.44463612861E+03  0.12508771162E+03 0.  0.
          5    1    3    3  502    0 -0.24123712323E+02  0.40797914031E+02 -0.26165060222E+03  0.26594159758E+03  0.41800000000E+01 0.  1.
         -5    1    3    3    0  502 -0.22198520050E+02 -0.73662620117E+02 -0.16123060232E+03  0.17869453103E+03  0.41800000000E+01 0.  1.
        -11    1    1    2    0    0 -0.26787752655E+01  0.14541065641E+02  0.21867942994E+01  0.14946588113E+02  0.00000000000E+00 0.  1.
         11    1    1    2    0    0  0.49001007639E+02  0.18323640445E+02 -0.24795851660E+03  0.25341720641E+03  0.00000000000E+00 0. -1.
</event>
<event>
 7    1  0.2842702E-009  0.1065515E+03  0.7561462E-02  0.1267093E+00
         -2   -1    0    0    0  501 -0.00000000000E+00  0.00000000000E+00  0.12435559981E+03  0.12435559981E+03  0.00000000000E+00 0.  1.
          2   -1    0    0  501    0  0.00000000000E+00 -0.00000000000E+00 -0.14604751888E+03  0.14604751888E+03  0.00000000000E+00 0. -1.
         25    2    1    2    0    0 -0.35017981891E+02  0.55961146656E+02 -0.59074609475E+02  0.15327031398E+03  0.12507625943E+03 0.  0.
          5    1    3    3  502    0  0.16241244567E+02 -0.27408363275E+02 -0.43504370345E+02  0.54084184764E+02  0.41800000000E+01 0.  1.
         -5    1    3    3    0  502 -0.51259226458E+02  0.83369509931E+02 -0.15570239130E+02  0.99186129221E+02  0.41800000000E+01 0.  1.
        -11    1    1    2    0    0 -0.11954825360E+02 -0.22041986113E+02  0.51691902150E+02  0.57452761022E+02  0.00000000000E+00 0.  1.
         11    1    1    2    0    0  0.46972807251E+02 -0.33919160543E+02 -0.14309211745E+02  0.59680043681E+02  0.00000000000E+00 0. -1.
</event>
<event>
 7    1  0.2842702E-009  0.2398036E+03  0.7561462E-02  0.1119924E+00
          1   -1    0    0  501    0  0.00000000000E+00  0.00000000000E+00  0.14682892836E+04  0.14682892836E+04  0.00000000000E+00 0. -1.
         -1   -1    0    0    0  501 -0.00000000000E+00 -0.00000000000E+00 -0.46473590912E+02  0.46473590912E+02  0.00000000000E+00 0.  1.
         25    2    1    2    0    0  0.15175872260E+03  0.18260806109E+03  0.71742495640E+03  0.76597781415E+03  0.12508808833E+03 0.  0.
          5    1    3    3  502    0  0.14433682079E+03  0.16913066230E+03  0.49125883380E+03  0.53925041767E+03  0.41800000000E+01 0.  1.
         -5    1    3    3    0  502  0.74219018126E+01  0.13477398792E+02  0.22616612260E+03  0.22672739648E+03  0.41800000000E+01 0.  1.
        -11    1    1    2    0    0 -0.96440275011E+02 -0.82552047706E+02  0.48565008942E+03  0.50196770472E+03  0.00000000000E+00 0.  1.
         11    1    1    2    0    0 -0.55318447587E+02 -0.10005601338E+03  0.21874064688E+03  0.24681735566E+03  0.00000000000E+00 0. -1.
</event>
<event>
 7    1  0.2842702E-009  0.1090265E+03  0.7561462E-02  0.1262383E+00
          1   -1    0    0  501    0  0.00000000000E+00  0.00000000000E+00  0.27484456428E+03  0.27484456428E+03  0.00000000000E+00 0. -1.
         -1   -1    0    0    0  501 -0.00000000000E+00 -0.00000000000E+00 -0.44745226255E+02  0.44745226255E+02  0.00000000000E+00 0.  1.
         25    2    1    2    0    0  0.18890723339E+01 -0.22264163533E+02  0.12193961954E+03  0.17611176936E+03  0.12508726123E+03 0.  0.
          5    1    3    3  502    0 -0.28185531090E+01  0.51340464187E+02  0.36670264745E+02  0.63292718547E+02  0.41800000000E+01 0.  1.
         -5    1    3    3    0  502  0.47076254429E+01 -0.73604627720E+02  0.85269354793E+02  0.11281905081E+03  0.41800000000E+01 0.  1.
        -11    1    1    2    0    0 -0.45867718728E+02  0.12546037573E+02  0.42013869171E+02  0.63454045441E+02  0.00000000000E+00 0. -1.
         11    1    1    2    0    0  0.43978646394E+02  0.97181259602E+01  0.66145849320E+02  0.80023975739E+02  0.00000000000E+00 0.  1.
</event>
<event>
 7    1  0.2842702E-009  0.2120704E+03  0.7561462E-02  0.1139937E+00
         -4   -1    0    0    0  501 -0.00000000000E+00  0.00000000000E+00  0.17909383045E+03  0.17909383045E+03  0.00000000000E+00 0.  1.
          4   -1    0    0  501    0  0.00000000000E+00 -0.00000000000E+00 -0.27832756347E+03  0.27832756347E+03  0.00000000000E+00 0. -1.
         25    2    1    2    0    0 -0.82315052557E+01  0.18965365800E+03 -0.87596229104E+02  0.24363148191E+03  0.12508769706E+03 0.  0.
          5    1    3    3  502    0 -0.46628573931E+02  0.64118024746E+02 -0.79012841201E+02  0.11200824291E+03  0.41800000000E+01 0.  1.
         -5    1    3    3    0  502  0.38397068675E+02  0.12553563325E+03 -0.85833879024E+01  0.13162323901E+03  0.41800000000E+01 0.  1.
        -11    1    1    2    0    0 -0.22070752933E+02 -0.74440172953E+00 -0.28205711951E+01  0.22262701786E+02  0.00000000000E+00 0.  1.
         11    1    1    2    0    0  0.30302258188E+02 -0.18890925627E+03 -0.88169327196E+01  0.19152721023E+03  0.00000000000E+00 0. -1.
</event>
<event>
 7    1  0.2842702E-009  0.9720768E+02  0.7561462E-02  0.1286280E+00
         -1   -1    0    0    0  501 -0.00000000000E+00  0.00000000000E+00  0.17808633220E+02  0.17808633220E+02  0.00000000000E+00 0.  1.
          1   -1    0    0  501    0  0.00000000000E+00 -0.00000000000E+00 -0.81670163741E+03  0.81670163741E+03  0.00000000000E+00 0. -1.
         25    2    1    2    0    0  0.39500616119E+02 -0.16021127060E+02 -0.33421546995E+03  0.35939479305E+03  0.12509061409E+03 0.  0.
          5    1    3    3  502    0  0.72508064820E+01  0.34493298628E+02 -0.26657151414E+03  0.26892416477E+03  0.41800000000E+01 0.  1.
         -5    1    3    3    0  502  0.32249809637E+02 -0.50514425688E+02 -0.67643955803E+02  0.90470628277E+02  0.41800000000E+01 0.  1.
        -11    1    1    2    0    0  0.27945232580E+02 -0.45894981526E+01 -0.14713387303E+03  0.14983449573E+03  0.00000000000E+00 0. -1.
         11    1    1    2    0    0 -0.67445848699E+02  0.20610625213E+02 -0.31754366121E+03  0.32528098185E+03  0.00000000000E+00 0.  1.
</event>
<event>
 7    1  0.2842702E-009  0.9549628E+02  0.7561462E-02  0.1290062E+00
          1   -1    0    0  501    0  0.00000000000E+00  0.00000000000E+00  0.36701611641E+03  0.36701611641E+03  0.00000000000E+00 0. -1.
         -1   -1    0    0    0  501 -0.00000000000E+00 -0.00000000000E+00 -0.45044177482E+02  0.45044177482E+02  0.00000000000E+00 0.  1.
         25    2    1    2    0    0 -0.44828999050E+02  0.49736268267E+02  0.18534429585E+03  0.23341737126E+03  0.12509126934E+03 0.  0.
          5    1    3    3  502    0 -0.53847924518E+02  0.36420020522E+02  0.20056756266E+03  0.21088109555E+03  0.41800000000E+01 0.  1.
         -5    1    3    3    0  502  0.90189254684E+01  0.13316247745E+02 -0.15223266809E+02  0.22536275711E+02  0.41800000000E+01 0.  1.
        -11    1    1    2    0    0  0.55789362068E+02 -0.67985255736E+02  0.12880158680E+03  0.15596248485E+03  0.00000000000E+00 0. -1.
         11    1    1    2    0    0 -0.10960363019E+02  0.18248987469E+02  0.78260562781E+01  0.22680437783E+02  0.00000000000E+00 0.  1.
</event>
<event>
 7    1  0.2842702E-009  0.1556337E+03  0.7561462E-02  0.1193716E+00
          2   -1    0    0  501    0  0.00000000000E+00  0.00000000000E+00  0.53245217047E+03  0.53245217047E+03  0.00000000000E+00 0. -1.
         -2   -1    0    0    0  501 -0.00000000000E+00 -0.00000000000E+00 -0.59748588245E+02  0.59748588245E+02  0.00000000000E+00 0.  1.
         25    2    1    2    0    0 -0.11312457175E+03 -0.39586816346E+02  0.37158231482E+03  0.40998114500E+03  0.12508732075E+03 0.  0.
          5    1    3    3  502    0 -0.60220412368E+02 -0.75345575297E+02  0.29381186086E+03  0.30926741789E+03  0.41800000000E+01 0.  1.
         -5    1    3    3    0  502 -0.52904159379E+02  0.35758758951E+02  0.77770453954E+02  0.10071372712E+03  0.41800000000E+01 0.  1.
        -11    1    1    2    0    0  0.56020667002E+02 -0.27686398500E+02  0.32489438518E+02  0.70430216587E+02  0.00000000000E+00 0.  1.
         11    1    1    2    0    0  0.57103904744E+02  0.67273214846E+02  0.68631828890E+02  0.11178939712E+03  0.00000000000E+00 0. -1.
</event>
<event>
 7    1  0.2842702E-009  0.1140750E+03  0.7561462E-02  0.1253204E+00
          1   -1    0    0  501    0  0.00000000000E+00  0.00000000000E+00  0.21029706496E+03  0.21029706496E+03  0.00000000000E+00 0. -1.
         -1   -1    0    0    0  501 -0.00000000000E+00 -0.00000000000E+00 -0.80827922621E+02  0.80827922621E+02  0.00000000000E+00 0.  1.
         25    2    1    2    0    0 -0.69519794633E+02  0.14443890294E+02  0.87830137816E+02  0.16853403747E+03  0.12509180974E+03 0.  0.
          5    1    3    3  502    0  0.15143139866E+02 -0.16786553003E+02 -0.18139702406E+02  0.29285222385E+02  0.41800000000E+01 0.  1.
         -5    1    3    3    0  502 -0.84662934499E+02  0.31230443297E+02  0.10596984022E+03  0.13924881509E+03  0.41800000000E+01 0.  1.
        -11    1    1    2    0    0 -0.12013745684E+02 -0.29552920393E+02  0.16654019590E+02  0.35986963718E+02  0.00000000000E+00 0. -1.
         11    1    1    2    0    0  0.81533540317E+02  0.15109030100E+02  0.24984984938E+02  0.86603986395E+02  0.00000000000E+00 0.  1.
</event>
<event>
 7    1  0.2842702E-009  0.1459084E+03  0.7561462E-02  0.1205593E+00
         -1   -1    0    0    0  501 -0.00000000000E+00  0.00000000000E+00  0.12750027453E+04  0.12750027453E+04  0.00000000000E+00 0.  1.
          1   -1    0    0  501    0  0.00000000000E+00 -0.00000000000E+00 -0.43589748258E+02  0.43589748258E+02  0.00000000000E+00 0. -1.
         25    2    1    2    0    0  0.14314442282E+03 -0.79215954004E+01  0.10626401708E+04  0.10795390105E+04  0.12508902924E+03 0.  0.
          5    1    3    3  502    0  0.45972803180E+01  0.17154107721E+00  0.49935895185E+03  0.49939763677E+03  0.41800000000E+01 0.  1.
         -5    1    3    3    0  502  0.13854714250E+03 -0.80931364776E+01  0.56328121892E+03  0.58014137375E+03  0.41800000000E+01 0.  1.
        -11    1    1    2    0    0 -0.43279833691E+02 -0.12021270891E+02  0.11592027719E+03  0.12431880639E+03  0.00000000000E+00 0.  1.
         11    1    1    2    0    0 -0.99864589124E+02  0.19942866292E+02  0.52852549040E+02  0.11473467661E+03  0.00000000000E+00 0. -1.
</event>
<event>
 7    1  0.2842702E-009  0.1033214E+03  0.7561462E-02  0.1273463E+00
          2   -1    0    0  501    0  0.00000000000E+00  0.00000000000E+00  0.12231053944E+04  0.12231053944E+04  0.00000000000E+00 0. -1.
         -2   -1    0    0    0  501 -0.00000000000E+00 -0.00000000000E+00 -0.13009849245E+02  0.13009849245E+02  0.00000000000E+00 0.  1.
         25    2    1    2    0    0 -0.22778345603E+02  0.18162848113E+01  0.96548589174E+03  0.97382330842E+03  0.12508667778E+03 0.  0.
          5    1    3    3  502    0 -0.66862650167E+02 -0.62151482486E+01  0.78238959807E+03  0.78527714702E+03  0.41800000000E+01 0.  1.
         -5    1    3    3    0  502  0.44084304565E+02  0.80314330599E+01  0.18309629367E+03  0.18854616141E+03  0.41800000000E+01 0.  1.
        -11    1    1    2    0    0  0.39354557107E+02 -0.37907172505E+02  0.13093979505E+03  0.14188363126E+03  0.00000000000E+00 0.  1.
         11    1    1    2    0    0 -0.16576211504E+02  0.36090887694E+02  0.11366985841E+03  0.12040830401E+03  0.00000000000E+00 0. -1.
</event>
<event>
 7    1  0.2842702E-009  0.2023128E+03  0.7561462E-02  0.1147802E+00
          2   -1    0    0  501    0  0.00000000000E+00  0.00000000000E+00  0.36123503367E+03  0.36123503367E+03  0.00000000000E+00 0. -1.
         -2   -1    0    0    0  501 -0.00000000000E+00 -0.00000000000E+00 -0.17233518635E+03  0.17233518635E+03  0.00000000000E+00 0.  1.
         25    2    1    2    0    0 -0.59043580131E+02 -0.10406512705E+03  0.98784798809E+01  0.17337213036E+03  0.12507844018E+03 0.  0.
          5    1    3    3  502    0 -0.51597287349E+02 -0.41800370055E+02 -0.52552189954E+02  0.84786532347E+02  0.41800000000E+01 0.  1.
         -5    1    3    3    0  502 -0.74462927823E+01 -0.62264756990E+02  0.62430669835E+02  0.88585598013E+02  0.41800000000E+01 0.  1.
        -11    1    1    2    0    0 -0.93242940985E+02  0.76218749727E+02 -0.39820705658E+01  0.12049647605E+03  0.00000000000E+00 0. -1.
         11    1    1    2    0    0  0.15228652112E+03  0.27846377318E+02  0.18300343800E+03  0.23970161361E+03  0.00000000000E+00 0.  1.
</event>
<event>
 7    1  0.2842702E-009  0.1194744E+03  0.7561462E-02  0.1243967E+00
         -2   -1    0    0    0  501 -0.00000000000E+00  0.00000000000E+00  0.17555886187E+03  0.17555886187E+03  0.00000000000E+00 0.  1.
          2   -1    0    0  501    0  0.00000000000E+00 -0.00000000000E+00 -0.14904631973E+03  0.14904631973E+03  0.00000000000E+00 0. -1.
         25    2    1    2    0    0  0.59845457715E+02  0.59508440964E+02  0.99884562383E+02  0.18095980224E+03  0.12508713311E+03 0.  0.
          5    1    3    3  502    0  0.77063785219E+02  0.19643739400E+02  0.89966078078E+01  0.80144337554E+02  0.41800000000E+01 0. -1.
         -5    1    3    3    0  502 -0.17218327504E+02  0.39864701564E+02  0.90887954575E+02  0.10081546469E+03  0.41800000000E+01 0. -1.
        -11    1    1    2    0    0 -0.30582508195E+01 -0.58815084816E+02 -0.12143013064E+02  0.60133350699E+02  0.00000000000E+00 0.  1.
         11    1    1    2    0    0 -0.56787206896E+02 -0.69335614850E+00 -0.61229007186E+02  0.83512028659E+02  0.00000000000E+00 0. -1.
</event>
<event>
 7    1  0.2842702E-009  0.9717484E+02  0.7561462E-02  0.1286352E+00
          1   -1    0    0  501    0  0.00000000000E+00  0.00000000000E+00  0.29824841763E+03  0.29824841763E+03  0.00000000000E+00 0. -1.
         -1   -1    0    0    0  501 -0.00000000000E+00 -0.00000000000E+00 -0.48114388260E+02  0.48114388260E+02  0.00000000000E+00 0.  1.
         25    2    1    2    0    0  0.34615957554E+02  0.38284254901E+02  0.13879938525E+03  0.19384700552E+03  0.12508974184E+03 0.  0.
          5    1    3    3  502    0 -0.18184282004E+02 -0.76689395700E+01  0.11939901085E+03  0.12109119266E+03  0.41800000000E+01 0.  1.
         -5    1    3    3    0  502  0.52800239558E+02  0.45953194471E+02  0.19400374397E+02  0.72755812869E+02  0.41800000000E+01 0.  1.
        -11    1    1    2    0    0 -0.28796094851E+02 -0.67962593575E+02  0.83001840510E+02  0.11107400566E+03  0.00000000000E+00 0. -1.
         11    1    1    2    0    0 -0.58198627037E+01  0.29678338674E+02  0.28332803607E+02  0.41441794707E+02  0.00000000000E+00 0.  1.
</event>
<event>
 7    1  0.2842702E-009  0.1898636E+03  0.7561462E-02  0.1158584E+00
         -1   -1    0    0    0  501 -0.00000000000E+00  0.00000000000E+00  0.12546807784E+03  0.12546807784E+03  0.00000000000E+00 0.  1.
          1   -1    0    0  501    0  0.00000000000E+00 -0.00000000000E+00 -0.31050326371E+03  0.31050326371E+03  0.00000000000E+00 0. -1.
         25    2    1    2    0    0 -0.15067390828E+03  0.67438944047E+02 -0.94630358480E+02  0.22771230849E+03  0.12508937957E+03 0.  0.
          5    1    3    3  502    0 -0.16394161103E+03  0.82287902826E+02 -0.96443558663E+02  0.20728478764E+03  0.41800000000E+01 0.  1.
         -5    1    3    3    0  502  0.13267702752E+02 -0.14848958779E+02  0.18132001835E+01  0.20427520849E+02  0.41800000000E+01 0.  1.
        -11    1    1    2    0    0  0.11477238300E+03 -0.20154087997E+02 -0.23616319300E+02  0.11889750923E+03  0.00000000000E+00 0.  1.
         11    1    1    2    0    0  0.35901525280E+02 -0.47284856050E+02 -0.66788508085E+02  0.89361523831E+02  0.00000000000E+00 0. -1.
</event>
<event>
 7    1  0.2842702E-009  0.1021071E+03  0.7561462E-02  0.1275926E+00
         -2   -1    0    0    0  501 -0.00000000000E+00  0.00000000000E+00  0.36086935115E+02  0.36086935115E+02  0.00000000000E+00 0.  1.
          2   -1    0    0  501    0  0.00000000000E+00 -0.00000000000E+00 -0.61678878378E+03  0.61678878378E+03  0.00000000000E+00 0. -1.
         25    2    1    2    0    0 -0.17968343435E+02 -0.74153508156E+02 -0.45880312199E+03  0.48163160856E+03  0.12508835870E+03 0.  0.
          5    1    3    3  502    0 -0.61780463042E+01 -0.85565152581E+02 -0.15378958233E+03  0.17614843634E+03  0.41800000000E+01 0.  1.
         -5    1    3    3    0  502 -0.11790297130E+02  0.11411644425E+02 -0.30501353966E+03  0.30548317222E+03  0.41800000000E+01 0.  1.
        -11    1    1    2    0    0  0.31325215787E+02  0.59403635659E+01 -0.88617573730E+02  0.94178720724E+02  0.00000000000E+00 0. -1.
         11    1    1    2    0    0 -0.13356872353E+02  0.68213144590E+02 -0.33281152946E+02  0.77065389608E+02  0.00000000000E+00 0.  1.
</event>
<event>
 7    1  0.2842702E-009  0.1547313E+03  0.7561462E-02  0.1194777E+00
         -2   -1    0    0    0  501 -0.00000000000E+00  0.00000000000E+00  0.85518251139E+02  0.85518251139E+02  0.00000000000E+00 0.  1.
          2   -1    0    0  501    0  0.00000000000E+00 -0.00000000000E+00 -0.66011357123E+03  0.66011357123E+03  0.00000000000E+00 0. -1.
         25    2    1    2    0    0 -0.14973015409E+02 -0.11424799979E+03 -0.57421773763E+03  0.59887415463E+03  0.12508975268E+03 0.  0.
          5    1    3    3  502    0 -0.24647183627E+02 -0.13708352789E+03 -0.41720798149E+03  0.43986287579E+03  0.41800000000E+01 0. -1.
         -5    1    3    3    0  502  0.96741682180E+01  0.22835528098E+02 -0.15700975614E+03  0.15901127883E+03  0.41800000000E+01 0. -1.
        -11    1    1    2    0    0  0.48608900568E+02  0.93684853214E+02  0.99246261745E+01  0.10601025960E+03  0.00000000000E+00 0.  1.
         11    1    1    2    0    0 -0.33635885159E+02  0.20563146577E+02 -0.10302208639E+02  0.40747408144E+02  0.00000000000E+00 0. -1.
</event>
<event>
 7    1  0.2842702E-009  0.8368647E+02  0.7561462E-02  0.1318904E+00
         -1   -1    0    0    0  501 -0.00000000000E+00  0.00000000000E+00  0.60509376547E+03  0.60509376547E+03  0.00000000000E+00 0.  1.
          1   -1    0    0  501    0  0.00000000000E+00 -0.00000000000E+00 -0.23433553425E+02  0.23433553425E+02  0.00000000000E+00 0. -1.
         25    2    1    2    0    0  0.10811376448E+02 -0.36676148298E+02  0.41249668238E+03  0.43273934148E+03  0.12509116266E+03 0.  0.
          5    1    3    3  502    0  0.34504463381E+02 -0.70962684929E+02  0.33954742160E+03  0.34862040182E+03  0.41800000000E+01 0. -1.
         -5    1    3    3    0  502 -0.23693086933E+02  0.34286536630E+02  0.72949260779E+02  0.84118939667E+02  0.41800000000E+01 0. -1.
        -11    1    1    2    0    0 -0.19233325329E+02  0.30373397731E+02  0.17827961520E+03  0.18186831854E+03  0.00000000000E+00 0.  1.
         11    1    1    2    0    0  0.84219488806E+01  0.63027505669E+01 -0.91160855347E+01  0.13919658873E+02  0.00000000000E+00 0. -1.
</event>
<event>
 7    1  0.2842702E-009  0.2604746E+03  0.7561462E-02  0.1106858E+00
         -2   -1    0    0    0  501 -0.00000000000E+00  0.00000000000E+00  0.15954645302E+04  0.15954645302E+04  0.00000000000E+00 0.  1.
          2   -1    0    0  501    0  0.00000000000E+00 -0.00000000000E+00 -0.43357217589E+02  0.43357217589E+02  0.00000000000E+00 0. -1.
         25    2    1    2    0    0 -0.90273891419E+02 -0.22042728070E+03  0.82293995317E+03  0.86580328948E+03  0.12509039930E+03 0.  0.
          5    1    3    3  502    0 -0.28810316581E+02  0.60825481513E+01  0.15470834475E+03  0.15754102980E+03  0.41800000000E+01 0.  1.
         -5    1    3    3    0  502 -0.61463574837E+02 -0.22650982885E+03  0.66823160842E+03  0.70826225968E+03  0.41800000000E+01 0.  1.
        -11    1    1    2    0    0  0.45160358436E+02  0.20323531980E+03  0.60307843375E+03  0.63800286085E+03  0.00000000000E+00 0. -1.
         11    1    1    2    0    0  0.45113532983E+02  0.17191960892E+02  0.12608892564E+03  0.13501559742E+03  0.00000000000E+00 0.  1.
</event>
<event>
 6    1  0.2842702E-009  0.1088013E+03  0.7561462E-02  0.1262806E+00
          1   -1    0    0  501    0  0.00000000000E+00  0.00000000000E+00  0.16298257088E+03  0.16298257088E+03  0.00000000000E+00 0. -1.
         -1   -1    0    0    0  501 -0.00000000000E+00 -0.00000000000E+00 -0.16498534283E+03  0.16498534283E+03  0.00000000000E+00 0.  1.
          5    1    1    2  502    0  0.12772346403E+02  0.48510082230E+02  0.10217886414E+02  0.51363786011E+02  0.41800000000E+01 0.  1.
         -5    1    1    2    0  502 -0.66371390399E+02 -0.33103174766E+02  0.99554148987E+02  0.12421546854E+03  0.41800000000E+01 0.  1.
        -11    1    1    2    0    0  0.18246996128E+02  0.30194266456E+02 -0.77810474470E+02  0.85434867190E+02  0.00000000000E+00 0.  1.
         11    1    1    2    0    0  0.35352047869E+02 -0.45601173920E+02 -0.33964332877E+02  0.66953791970E+02  0.00000000000E+00 0. -1.
</event>
<event>
 7    1  0.2842702E-009  0.8573181E+02  0.7561462E-02  0.1313530E+00
         -1   -1    0    0    0  501 -0.00000000000E+00  0.00000000000E+00  0.58178546788E+02  0.58178546788E+02  0.00000000000E+00 0.  1.
          1   -1    0    0  501    0  0.00000000000E+00 -0.00000000000E+00 -0.26791859413E+03  0.26791859413E+03  0.00000000000E+00 0. -1.
         25    2    1    2    0    0 -0.91849925959E+01  0.58950467966E+02 -0.14871726545E+03  0.20328443961E+03  0.12509283186E+03 0.  0.
          5    1    3    3  502    0  0.13216319930E+02  0.25830646452E+02  0.16230531097E+02  0.33508147491E+02  0.41800000000E+01 0.  1.
         -5    1    3    3    0  502 -0.22401312526E+02  0.33119821514E+02 -0.16494779654E+03  0.16977629211E+03  0.41800000000E+01 0.  1.
        -11    1    1    2    0    0 -0.29297022478E+02  0.25403572564E+01 -0.23241998141E+01  0.29498658374E+02  0.00000000000E+00 0.  1.
         11    1    1    2    0    0  0.38482015074E+02 -0.61490825222E+02 -0.58698582078E+02  0.93314042934E+02  0.00000000000E+00 0. -1.
</event>
<event>
 7    1  0.2842702E-009  0.1030140E+03  0.7561462E-02  0.1274083E+00
          1   -1    0    0  501    0  0.00000000000E+00  0.00000000000E+00  0.84489086908E+03  0.84489086908E+03  0.00000000000E+00 0. -1.
         -1   -1    0    0    0  501 -0.00000000000E+00 -0.00000000000E+00 -0.15177642827E+02  0.15177642827E+02  0.00000000000E+00 0.  1.
         25    2    1    2    0    0 -0.26473074803E+02  0.56877944362E+00  0.54579025421E+03  0.56056680650E+03  0.12508795209E+03 0.  0.
          5    1    3    3  502    0  0.31865875976E+02 -0.37907130917E+02  0.13507431701E+03  0.14392681523E+03  0.41800000000E+01 0. -1.
         -5    1    3    3    0  502 -0.58338950779E+02  0.38475910360E+02  0.41071593720E+03  0.41663999127E+03  0.41800000000E+01 0. -1.
        -11    1    1    2    0    0  0.54629003302E+02  0.11266827591E+02  0.11468793184E+03  0.12753270606E+03  0.00000000000E+00 0.  1.
         11    1    1    2    0    0 -0.28155928499E+02 -0.11835607035E+02  0.16923504020E+03  0.17196899934E+03  0.00000000000E+00 0. -1.
</event>
<event>
 7    1  0.2842702E-009  0.9605771E+02  0.7561462E-02  0.1288811E+00
         -1   -1    0    0    0  501 -0.00000000000E+00  0.00000000000E+00  0.18499569956E+02  0.18499569956E+02  0.00000000000E+00 0.  1.
          1   -1    0    0  501    0  0.00000000000E+00 -0.00000000000E+00 -0.71360509086E+03  0.71360509086E+03  0.00000000000E+00 0. -1.
         25    2    1    2    0    0  0.48007019393E+01  0.12795661972E+02 -0.50378942287E+03  0.51926603148E+03  0.12508658261E+03 0.  0.
          5    1    3    3  502    0  0.51277529573E+02  0.14151720537E+02 -0.41977274328E+03  0.42315042790E+03  0.41800000000E+01 0.  1.
         -5    1    3    3    0  502 -0.46476827633E+02 -0.13560585651E+01 -0.84016679592E+02  0.96115603579E+02  0.41800000000E+01 0.  1.
        -11    1    1    2    0    0 -0.54023657412E+01  0.39452762099E+02 -0.99883745614E+02  0.10752891997E+03  0.00000000000E+00 0. -1.
         11    1    1    2    0    0  0.60166380187E+00 -0.52248424071E+02 -0.91432352421E+02  0.10530970936E+03  0.00000000000E+00 0.  1.
</event>
<event>
 7    1  0.2842702E-009  0.1307940E+03  0.7561462E-02  0.1226282E+00
          1   -1    0    0  501    0  0.00000000000E+00  0.00000000000E+00  0.12015304291E+03  0.12015304291E+03  0.00000000000E+00 0. -1.
         -1   -1    0    0    0  501 -0.00000000000E+00 -0.00000000000E+00 -0.15991363297E+03  0.15991363297E+03  0.00000000000E+00 0.  1.
         25    2    1    2    0    0  0.71095349681E+02  0.26565290038E+02 -0.59563371869E+02  0.15797241667E+03  0.12508887153E+03 0.  0.
          5    1    3    3  502    0  0.16344348165E+01  0.64795697080E+02 -0.39719987737E+02  0.76133458893E+02  0.41800000000E+01 0.  1.
         -5    1    3    3    0  502  0.69460914864E+02 -0.38230407042E+02 -0.19843384132E+02  0.81838957778E+02  0.41800000000E+01 0.  1.
        -11    1    1    2    0    0 -0.89385324070E+02 -0.36354334862E+02  0.26890179230E+02  0.10017212966E+03  0.00000000000E+00 0.  1.
         11    1    1    2    0    0  0.18289974389E+02  0.97890448240E+01 -0.70873974123E+01  0.21922129545E+02  0.00000000000E+00 0. -1.
</event>
<event>
 7    1  0.2842702E-009  0.1009936E+03  0.7561462E-02  0.1278220E+00
          2   -1    0    0  501    0  0.00000000000E+00  0.00000000000E+00  0.35785175262E+03  0.35785175262E+03  0.00000000000E+00 0. -1.
         -2   -1    0    0    0  501 -0.00000000000E+00 -0.00000000000E+00 -0.41515833750E+02  0.41515833750E+02  0.00000000000E+00 0.  1.
         25    2    1    2    0    0 -0.47338042711E+02 -0.26124028294E+02  0.18596927939E+03  0.23055375390E+03  0.12508839042E+03 0.  0.
          5    1    3    3  502    0 -0.19782821418E+02 -0.75474891913E+02  0.12409074179E+03  0.14664175370E+03  0.41800000000E+01 0.  1.
         -5    1    3    3    0  502 -0.27555221293E+02  0.49350863619E+02  0.61878537603E+02  0.83912000193E+02  0.41800000000E+01 0.  1.
        -11    1    1    2    0    0  0.46807748349E+02  0.61696374719E+01  0.11916165389E+02  0.48693169229E+02  0.00000000000E+00 0.  1.
         11    1    1    2    0    0  0.53029436244E+00  0.19954390822E+02  0.11845047409E+03  0.12012066324E+03  0.00000000000E+00 0. -1.
</event>
<event>
 7    1  0.2842702E-009  0.1482027E+03  0.7561462E-02  0.1202699E+00
         -1   -1    0    0    0  501 -0.00000000000E+00  0.00000000000E+00  0.34041117303E+02  0.34041117303E+02  0.00000000000E+00 0. -1.
          1   -1    0    0  501    0  0.00000000000E+00 -0.00000000000E+00 -0.79928051171E+03  0.79928051171E+03  0.00000000000E+00 0.  1.
         25    2    1    2    0    0 -0.11373391721E+03  0.49113837609E+02 -0.42934137022E+03  0.46403593812E+03  0.12509103371E+03 0.  0.
          5    1    3    3  502    0  0.20662124542E+01 -0.31047470094E+02 -0.46657666602E+02  0.56237219756E+02  0.41800000000E+01 0. -1.
         -5    1    3    3    0  502 -0.11580012967E+03  0.80161307703E+02 -0.38268370362E+03  0.40779871836E+03  0.41800000000E+01 0. -1.
        -11    1    1    2    0    0  0.61089954931E+02 -0.30417572536E+02 -0.28713058790E+03  0.29512910026E+03  0.00000000000E+00 0.  1.
         11    1    1    2    0    0  0.52643962281E+02 -0.18696265073E+02 -0.48767436286E+02  0.74156590632E+02  0.00000000000E+00 0. -1.
</event>
<event>
 7    1  0.2842702E-009  0.1117846E+03  0.7561462E-02  0.1257300E+00
         -2   -1    0    0    0  501 -0.00000000000E+00  0.00000000000E+00  0.36531506090E+02  0.36531506090E+02  0.00000000000E+00 0.  1.
          2   -1    0    0  501    0  0.00000000000E+00 -0.00000000000E+00 -0.36238173950E+03  0.36238173950E+03  0.00000000000E+00 0. -1.
         25    2    1    2    0    0 -0.96616733787E+00 -0.41186239519E+02 -0.19013339660E+03  0.23131530187E+03  0.12513520915E+03 0.  0.
          5    1    3    3  502    0 -0.32875366577E+02  0.32878893422E+02 -0.99610526609E+02  0.11000700328E+03  0.41800000000E+01 0.  1.
         -5    1    3    3    0  502  0.31909199239E+02 -0.74065132941E+02 -0.90522869995E+02  0.12130829859E+03  0.41800000000E+01 0.  1.
        -11    1    1    2    0    0  0.63968091590E+01 -0.26990916731E+02 -0.24367139453E+02  0.36921352068E+02  0.00000000000E+00 0. -1.
         11    1    1    2    0    0 -0.54306418211E+01  0.68177156250E+02 -0.11134969735E+03  0.13067659165E+03  0.00000000000E+00 0.  1.
</event>
<event>
 7    1  0.2842702E-009  0.9308366E+02  0.7561462E-02  0.1295551E+00
          1   -1    0    0  501    0  0.00000000000E+00  0.00000000000E+00  0.72178696571E+03  0.72178696571E+03  0.00000000000E+00 0. -1.
         -1   -1    0    0    0  501 -0.00000000000E+00 -0.00000000000E+00 -0.19702936373E+02  0.19702936373E+02  0.00000000000E+00 0.  1.
         25    2    1    2    0    0  0.78448916821E+01  0.30419343300E+02  0.52428388040E+03  0.53991465386E+03  0.12508943774E+03 0.  0.
          5    1    3    3  502    0  0.38101645453E+02 -0.36509897614E+02  0.16911676277E+03  0.17720795653E+03  0.41800000000E+01 0.  1.
         -5    1    3    3    0  502 -0.30256753771E+02  0.66929240914E+02  0.35516711763E+03  0.36270669732E+03  0.41800000000E+01 0.  1.
        -11    1    1    2    0    0 -0.13072040806E+02  0.11504635303E+02 -0.13927012590E+01  0.17469244434E+02  0.00000000000E+00 0.  1.
         11    1    1    2    0    0  0.52271491244E+01 -0.41923978603E+02  0.17919285020E+03  0.18410600379E+03  0.00000000000E+00 0. -1.
</event>
<event>
 7    1  0.2842702E-009  0.8526814E+02  0.7561462E-02  0.1314733E+00
         -2   -1    0    0    0  501 -0.00000000000E+00  0.00000000000E+00  0.54249368346E+02  0.54249368346E+02  0.00000000000E+00 0.  1.
          2   -1    0    0  501    0  0.00000000000E+00 -0.00000000000E+00 -0.32124297855E+03  0.32124297855E+03  0.00000000000E+00 0. -1.
         25    2    1    2    0    0  0.70948080591E+02 -0.68291724761E+01 -0.18726921073E+03  0.23621365013E+03  0.12508742336E+03 0.  0.
          5    1    3    3  502    0  0.37063746063E+01 -0.25705033247E+02  0.90351343697E+01  0.27813521892E+02  0.41800000000E+01 0.  1.
         -5    1    3    3    0  502  0.67241705985E+02  0.18875860770E+02 -0.19630434510E+03  0.20840012824E+03  0.41800000000E+01 0.  1.
        -11    1    1    2    0    0 -0.25672759015E+02 -0.75527055436E+01 -0.87177985383E+02  0.91192845398E+02  0.00000000000E+00 0. -1.
         11    1    1    2    0    0 -0.45275321576E+02  0.14381878020E+02  0.74535859081E+01  0.48085851371E+02  0.00000000000E+00 0.  1.
</event>
<event>
 7    1  0.2842702E-009  0.1105992E+03  0.7561462E-02  0.1259464E+00
         -3   -1    0    0    0  501 -0.00000000000E+00  0.00000000000E+00  0.52847607459E+03  0.52847607459E+03  0.00000000000E+00 0.  1.
          3   -1    0    0  501    0  0.00000000000E+00 -0.00000000000E+00 -0.52765588377E+02  0.52765588377E+02  0.00000000000E+00 0. -1.
         25    2    1    2    0    0  0.79412904420E+02 -0.96580909176E+00  0.42691010452E+03  0.45189004108E+03  0.12508009318E+03 0.  0.
          5    1    3    3  502    0  0.10206271973E+03 -0.26907425455E+02  0.24658202034E+03  0.26825542578E+03  0.41800000000E+01 0.  1.
         -5    1    3    3    0  502 -0.22649815311E+02  0.25941616363E+02  0.18032808418E+03  0.18363461530E+03  0.41800000000E+01 0.  1.
        -11    1    1    2    0    0 -0.53661915179E+02  0.78164853640E+01 -0.18236867955E+02  0.57212602955E+02  0.00000000000E+00 0. -1.
         11    1    1    2    0    0 -0.25750989241E+02 -0.68506762722E+01  0.67037249650E+02  0.72139018935E+02  0.00000000000E+00 0.  1.
</event>
<event>
 7    1  0.2842702E-009  0.1065232E+03  0.7561462E-02  0.1267147E+00
          1   -1    0    0  501    0  0.00000000000E+00  0.00000000000E+00  0.79781742621E+03  0.79781742621E+03  0.00000000000E+00 0. -1.
         -1   -1    0    0    0  501 -0.00000000000E+00 -0.00000000000E+00 -0.20670801352E+02  0.20670801352E+02  0.00000000000E+00 0.  1.
         25    2    1    2    0    0 -0.18116635254E+02 -0.67986136144E+02  0.44437445864E+03  0.46697669875E+03  0.12509296743E+03 0.  0.
          5    1    3    3  502    0  0.77815850377E+01 -0.80909304529E+02  0.14584475067E+03  0.16701805987E+03  0.41800000000E+01 0.  1.
         -5    1    3    3    0  502 -0.25898220291E+02  0.12923168385E+02  0.29852970797E+03  0.29995863887E+03  0.41800000000E+01 0.  1.
        -11    1    1    2    0    0  0.43706126426E+02  0.20075135888E+02  0.23300113268E+03  0.23791335481E+03  0.00000000000E+00 0. -1.
         11    1    1    2    0    0 -0.25589491172E+02  0.47911000256E+02  0.99771033545E+02  0.11359817401E+03  0.00000000000E+00 0.  1.
</event>
<event>
 7    1  0.2842702E-009  0.1238672E+03  0.7561462E-02  0.1236850E+00
          2   -1    0    0  501    0  0.00000000000E+00  0.00000000000E+00  0.85871755585E+03  0.85871755585E+03  0.00000000000E+00 0. -1.
         -2   -1    0    0    0  501 -0.00000000000E+00 -0.00000000000E+00 -0.22004617872E+02  0.22004617872E+02  0.00000000000E+00 0.  1.
         25    2    1    2    0    0  0.61542097340E+02 -0.53039792507E+02  0.38206831041E+03  0.41015167406E+03  0.12509017777E+03 0.  0.
          5    1    3    3  502    0  0.75742174916E+02 -0.78130284991E+02  0.21989164969E+03  0.24537935630E+03  0.41800000000E+01 0.  1.
         -5    1    3    3    0  502 -0.14200077576E+02  0.25090492484E+02  0.16217666073E+03  0.16477231776E+03  0.41800000000E+01 0.  1.
        -11    1    1    2    0    0 -0.76376446210E+02  0.55835742672E+02  0.43799390715E+03  0.44809558623E+03  0.00000000000E+00 0.  1.
         11    1    1    2    0    0  0.14834348870E+02 -0.27959501656E+01  0.16650720414E+02  0.22474913438E+02  0.00000000000E+00 0. -1.
</event>
<event>
 7    1  0.2842702E-009  0.9900278E+02  0.7561462E-02  0.1282407E+00
          2   -1    0    0  501    0  0.00000000000E+00  0.00000000000E+00  0.88482147178E+02  0.88482147178E+02  0.00000000000E+00 0. -1.
         -2   -1    0    0    0  501 -0.00000000000E+00 -0.00000000000E+00 -0.16648340982E+03  0.16648340982E+03  0.00000000000E+00 0.  1.
         25    2    1    2    0    0  0.17299225058E+02 -0.46991045104E+02 -0.26660217391E+02  0.13735962594E+03  0.12509787424E+03 0.  0.
          5    1    3    3  502    0  0.48136766389E+02 -0.26118603596E+02 -0.64083813647E+02  0.84401050371E+02  0.41800000000E+01 0.  1.
         -5    1    3    3    0  502 -0.30837541331E+02 -0.20872441508E+02  0.37423596255E+02  0.52958575572E+02  0.41800000000E+01 0.  1.
        -11    1    1    2    0    0  0.11672420636E+02 -0.25226932755E+02 -0.16732083695E+02  0.32443892561E+02  0.00000000000E+00 0.  1.
         11    1    1    2    0    0 -0.28971645694E+02  0.72217977859E+02 -0.34608961555E+02  0.85162038493E+02  0.00000000000E+00 0. -1.
</event>
<event>
 6    1  0.2842702E-009  0.1670710E+03  0.7561462E-02  0.1180937E+00
         -2   -1    0    0    0  501 -0.00000000000E+00  0.00000000000E+00  0.21189943127E+03  0.21189943127E+03  0.00000000000E+00 0.  1.
          2   -1    0    0  501    0  0.00000000000E+00 -0.00000000000E+00 -0.13902207431E+03  0.13902207431E+03  0.00000000000E+00 0. -1.
          5    1    1    2  502    0 -0.74794523509E+02  0.11795820597E+03  0.60204992720E+02  0.15215279376E+03  0.41800000000E+01 0.  1.
         -5    1    1    2    0  502 -0.25270169192E+02 -0.26699387113E+02 -0.12378185709E+02  0.39014492239E+02  0.41800000000E+01 0.  1.
        -11    1    1    2    0    0  0.10808759933E+02 -0.62802825941E+02  0.15517023859E+02  0.65588125960E+02  0.00000000000E+00 0.  1.
         11    1    1    2    0    0  0.89255932768E+02 -0.28455992914E+02  0.95335260868E+01  0.94166093615E+02  0.00000000000E+00 0. -1.
</event>
<event>
 7    1  0.2842702E-009  0.9333330E+02  0.7561462E-02  0.1294975E+00
          1   -1    0    0  501    0  0.00000000000E+00  0.00000000000E+00  0.27987212037E+03  0.27987212037E+03  0.00000000000E+00 0.  1.
         -1   -1    0    0    0  501 -0.00000000000E+00 -0.00000000000E+00 -0.44887085852E+02  0.44887085852E+02  0.00000000000E+00 0. -1.
         25    2    1    2    0    0  0.49360280576E+01  0.28798641618E+02  0.12926106637E+03  0.18223948688E+03  0.12509628758E+03 0.  0.
          5    1    3    3  502    0  0.10693395881E+02 -0.48589146310E+02  0.40693031383E+02  0.64410007434E+02  0.41800000000E+01 0. -1.
         -5    1    3    3    0  502 -0.57573678230E+01  0.77387787928E+02  0.88568034987E+02  0.11782947944E+03  0.41800000000E+01 0. -1.
        -11    1    1    2    0    0 -0.22579378483E+02  0.28824224392E+01  0.10373450956E+03  0.10620256666E+03  0.00000000000E+00 0.  1.
         11    1    1    2    0    0  0.17643350425E+02 -0.31681064058E+02  0.19894585963E+01  0.36317152690E+02  0.00000000000E+00 0. -1.
</event>
<event>
 7    1  0.2842702E-009  0.1524752E+03  0.7561462E-02  0.1197464E+00
          1   -1    0    0  501    0  0.00000000000E+00  0.00000000000E+00  0.99078235564E+02  0.99078235564E+02  0.00000000000E+00 0. -1.
         -1   -1    0    0    0  501 -0.00000000000E+00 -0.00000000000E+00 -0.45600728832E+03  0.45600728832E+03  0.00000000000E+00 0.  1.
         25    2    1    2    0    0 -0.48918050504E+02  0.11739471194E+03 -0.35658435071E+03  0.39871757756E+03  0.12509521744E+03 0.  0.
          5    1    3    3  502    0  0.36163711213E+02  0.72651224604E+02 -0.18344359125E+03  0.20063658195E+03  0.41800000000E+01 0.  1.
         -5    1    3    3    0  502 -0.85081761717E+02  0.44743487341E+02 -0.17314075946E+03  0.19808099561E+03  0.41800000000E+01 0.  1.
        -11    1    1    2    0    0  0.46761171739E+02 -0.10577651383E+03  0.33593221560E+02  0.12043165113E+03  0.00000000000E+00 0. -1.
         11    1    1    2    0    0  0.21568787647E+01 -0.11618198118E+02 -0.33937923609E+02  0.35936295196E+02  0.00000000000E+00 0.  1.
</event>
<event>
 7    1  0.2842702E-009  0.1630027E+03  0.7561462E-02  0.1185348E+00
          2   -1    0    0  501    0  0.00000000000E+00  0.00000000000E+00  0.69246321712E+03  0.69246321712E+03  0.00000000000E+00 0. -1.
         -2   -1    0    0    0  501 -0.00000000000E+00 -0.00000000000E+00 -0.62628632916E+02  0.62628632916E+02  0.00000000000E+00 0.  1.
         25    2    1    2    0    0  0.56121403919E+02  0.12535119890E+03  0.12019816482E+03  0.22126457015E+03  0.12509147107E+03 0.  0.
          5    1    3    3  502    0  0.82481442156E+02  0.76045795847E+02  0.31969252730E+02  0.11672898906E+03  0.41800000000E+01 0.  1.
         -5    1    3    3    0  502 -0.26360038237E+02  0.49305403053E+02  0.88228912089E+02  0.10453558109E+03  0.41800000000E+01 0.  1.
        -11    1    1    2    0    0 -0.73873673714E+02 -0.79592096983E+02  0.31912725131E+03  0.33709705442E+03  0.00000000000E+00 0. -1.
         11    1    1    2    0    0  0.17752269795E+02 -0.45759101917E+02  0.19050916807E+03  0.19673022546E+03  0.00000000000E+00 0.  1.
</event>
<event>
 7    1  0.2842702E-009  0.1269478E+03  0.7561462E-02  0.1232056E+00
         -2   -1    0    0    0  501 -0.00000000000E+00  0.00000000000E+00  0.41062760320E+03  0.41062760320E+03  0.00000000000E+00 0. -1.
          2   -1    0    0  501    0  0.00000000000E+00 -0.00000000000E+00 -0.68984262393E+02  0.68984262393E+02  0.00000000000E+00 0.  1.
         25    2    1    2    0    0  0.12154825367E+02  0.80399809985E+02  0.32383242708E+03  0.35654692514E+03  0.12508556979E+03 0.  0.
          5    1    3    3  502    0 -0.34754277091E+02 -0.13606008545E+02  0.45380751903E+02  0.58905587918E+02  0.41800000000E+01 0. -1.
         -5    1    3    3    0  502  0.46909102459E+02  0.94005818529E+02  0.27845167518E+03  0.29764133722E+03  0.41800000000E+01 0. -1.
        -11    1    1    2    0    0 -0.41434181735E+02 -0.67498028865E+02 -0.11059462063E+02  0.79969287966E+02  0.00000000000E+00 0. -1.
         11    1    1    2    0    0  0.29279356368E+02 -0.12901781120E+02  0.28870375784E+02  0.43095652487E+02  0.00000000000E+00 0.  1.
</event>
<event>
 7    1  0.2842702E-009  0.9903914E+02  0.7561462E-02  0.1282330E+00
          1   -1    0    0  501    0  0.00000000000E+00  0.00000000000E+00  0.19874231756E+03  0.19874231756E+03  0.00000000000E+00 0. -1.
         -1   -1    0    0    0  501 -0.00000000000E+00 -0.00000000000E+00 -0.68009055972E+02  0.68009055972E+02  0.00000000000E+00 0.  1.
         25    2    1    2    0    0 -0.40618524010E+02  0.23074271068E+02  0.70165602345E+02  0.15083828989E+03  0.12508673577E+03 0.  0.
          5    1    3    3  502    0  0.89522879027E+01 -0.32842520675E+02 -0.15023350676E+02  0.37442597246E+02  0.41800000000E+01 0. -1.
         -5    1    3    3    0  502 -0.49570811913E+02  0.55916791743E+02  0.85188953021E+02  0.11339569264E+03  0.41800000000E+01 0. -1.
        -11    1    1    2    0    0 -0.11469624397E+02 -0.33856679134E+02  0.59756829342E+00  0.35751700570E+02  0.00000000000E+00 0.  1.
         11    1    1    2    0    0  0.52088148407E+02  0.10782408066E+02  0.59970090944E+02  0.80161383072E+02  0.00000000000E+00 0. -1.
</event>
<event>
 7    1  0.2842702E-009  0.1391596E+03  0.7561462E-02  0.1214464E+00
         -1   -1    0    0    0  501 -0.00000000000E+00  0.00000000000E+00  0.24033817571E+02  0.24033817571E+02  0.00000000000E+00 0.  1.
          1   -1    0    0  501    0  0.00000000000E+00 -0.00000000000E+00 -0.11273263695E+04  0.11273263695E+04  0.00000000000E+00 0. -1.
         25    2    1    2    0    0 -0.10228765557E+02  0.10730316035E+03 -0.79199855756E+03  0.80902923873E+03  0.12509195849E+03 0.  0.
          5    1    3    3  502    0 -0.60721542560E+02  0.42062224085E+02 -0.50460779068E+03  0.51000277572E+03  0.41800000000E+01 0.  1.
         -5    1    3    3    0  502  0.50492777003E+02  0.65240936263E+02 -0.28739076689E+03  0.29902646302E+03  0.41800000000E+01 0.  1.
        -11    1    1    2    0    0  0.19236090523E+02 -0.61765422776E+01 -0.67368003729E+01  0.21296979419E+02  0.00000000000E+00 0.  1.
         11    1    1    2    0    0 -0.90073249662E+01 -0.10112661807E+03 -0.30455719396E+03  0.32103396889E+03  0.00000000000E+00 0. -1.
</event>
<event>
 7    1  0.3278216E-009  0.1109648E+03  0.7561462E-02  0.1258794E+00
          2   -1    0    0  501    0  0.00000000000E+00  0.00000000000E+00  0.76611322684E+03  0.76611322684E+03  0.00000000000E+00 0. -1.
         -2   -1    0    0    0  501 -0.00000000000E+00 -0.00000000000E+00 -0.26173495448E+02  0.26173495448E+02  0.00000000000E+00 0.  1.
         25    2    1    2    0    0 -0.82567362682E+02 -0.35654504333E+02  0.44157211981E+03  0.46767738163E+03  0.12509030032E+03 0.  0.
          5    1    3    3  502    0 -0.98415126382E+02 -0.44013654401E+02  0.21688385550E+03  0.24223711121E+03  0.41800000000E+01 0.  1.
         -5    1    3    3    0  502  0.15847763700E+02  0.83591500675E+01  0.22468826431E+03  0.22544027041E+03  0.41800000000E+01 0.  1.
        -11    1    1    2    0    0  0.34777120381E+02  0.32738306233E+02  0.41364523350E+02  0.63184401469E+02  0.00000000000E+00 0.  1.
         11    1    1    2    0    0  0.47790242301E+02  0.29161981000E+01  0.25700308823E+03  0.26142493919E+03  0.00000000000E+00 0. -1.
</event>
<event>
 7    1  0.2842702E-009  0.1032081E+03  0.7561462E-02  0.1273691E+00
          2   -1    0    0  501    0  0.00000000000E+00  0.00000000000E+00  0.36848467934E+03  0.36848467934E+03  0.00000000000E+00 0. -1.
         -2   -1    0    0    0  501 -0.00000000000E+00 -0.00000000000E+00 -0.37555903826E+02  0.37555903826E+02  0.00000000000E+00 0.  1.
         25    2    1    2    0    0  0.37191566982E+02 -0.15278177406E+02  0.15647333239E+03  0.20432242519E+03  0.12508842602E+03 0.  0.
          5    1    3    3  502    0 -0.26363216599E+02  0.20774782790E+02  0.25925628412E+01  0.33923510601E+02  0.41800000000E+01 0. -1.
         -5    1    3    3    0  502  0.63554783582E+02 -0.36052960196E+02  0.15388076955E+03  0.17039891458E+03  0.41800000000E+01 0. -1.
        -11    1    1    2    0    0 -0.53775973496E+01  0.51164326214E+02  0.10943614746E+03  0.12092550269E+03  0.00000000000E+00 0. -1.
         11    1    1    2    0    0 -0.31813969633E+02 -0.35886148808E+02  0.65019295672E+02  0.80792655296E+02  0.00000000000E+00 0.  1.
</event>
<event>
 7    1  0.2842702E-009  0.1079177E+03  0.7561462E-02  0.1264475E+00
         -2   -1    0    0    0  501 -0.00000000000E+00  0.00000000000E+00  0.46464937222E+02  0.46464937222E+02  0.00000000000E+00 0.  1.
          2   -1    0    0  501    0  0.00000000000E+00 -0.00000000000E+00 -0.32407560827E+03  0.32407560827E+03  0.00000000000E+00 0. -1.
         25    2    1    2    0    0 -0.39615487215E+02  0.46898618279E+00 -0.16011543000E+03  0.20701288336E+03  0.12509107154E+03 0.  0.
          5    1    3    3  502    0 -0.69043343175E+02  0.41026251839E+02 -0.89494706429E+02  0.12032003763E+03  0.41800000000E+01 0. -1.
         -5    1    3    3    0  502  0.29427855960E+02 -0.40557265656E+02 -0.70620723567E+02  0.86692845731E+02  0.41800000000E+01 0. -1.
        -11    1    1    2    0    0  0.13182087688E+02 -0.37434131960E+02 -0.23701786569E+01  0.39758010743E+02  0.00000000000E+00 0.  1.
         11    1    1    2    0    0  0.26433399527E+02  0.36965145777E+02 -0.11512506239E+03  0.12376965138E+03  0.00000000000E+00 0. -1.
</event>
<event>
 7    1  0.2842702E-009  0.1007585E+03  0.7561462E-02  0.1278709E+00
         -2   -1    0    0    0  501 -0.00000000000E+00  0.00000000000E+00  0.26887014481E+03  0.26887014481E+03  0.00000000000E+00 0.  1.
          2   -1    0    0  501    0  0.00000000000E+00 -0.00000000000E+00 -0.54028234757E+02  0.54028234757E+02  0.00000000000E+00 0. -1.
         25    2    1    2    0    0  0.13022377284E+02  0.51285240315E+02  0.10447092515E+03  0.17135144399E+03  0.12508950783E+03 0.  0.
          5    1    3    3  502    0 -0.34865249170E+02  0.25494482367E+02 -0.10013724329E+02  0.44534271137E+02  0.41800000000E+01 0. -1.
         -5    1    3    3    0  502  0.47887626454E+02  0.25790757948E+02  0.11448464948E+03  0.12681717285E+03  0.41800000000E+01 0. -1.
        -11    1    1    2    0    0 -0.53933417458E+01 -0.76775258522E+02  0.86717954647E+02  0.11594624666E+03  0.00000000000E+00 0.  1.
         11    1    1    2    0    0 -0.76290355386E+01  0.25490018207E+02  0.23653030257E+02  0.35600688923E+02  0.00000000000E+00 0. -1.
</event>
<event>
 7    1  0.2842702E-009  0.1027757E+03  0.7561462E-02  0.1274565E+00
         -1   -1    0    0    0  501 -0.00000000000E+00  0.00000000000E+00  0.12983542207E+03  0.12983542207E+03  0.00000000000E+00 0.  1.
          1   -1    0    0  501    0  0.00000000000E+00 -0.00000000000E+00 -0.10124423950E+03  0.10124423950E+03  0.00000000000E+00 0. -1.
         25    2    1    2    0    0  0.99701251065E+01  0.56778278052E+01 -0.24044473553E+02  0.12789858063E+03  0.12509304175E+03 0.  0.
          5    1    3    3  502    0  0.45588695263E+02 -0.44528643050E+02 -0.10345155513E+02  0.64696397352E+02  0.41800000000E+01 0.  1.
         -5    1    3    3    0  502 -0.35618570157E+02  0.50206470855E+02 -0.13699318040E+02  0.63202183274E+02  0.41800000000E+01 0.  1.
        -11    1    1    2    0    0  0.31028303058E+02  0.14550663093E+02  0.10976817017E+01  0.34288223813E+02  0.00000000000E+00 0. -1.
         11    1    1    2    0    0 -0.40998428165E+02 -0.20228490899E+02  0.51537974417E+02  0.68892857126E+02  0.00000000000E+00 0.  1.
</event>
<event>
 7    1  0.2842702E-009  0.9241599E+02  0.7561462E-02  0.1297104E+00
         -1   -1    0    0    0  501 -0.00000000000E+00  0.00000000000E+00  0.28137302943E+03  0.28137302943E+03  0.00000000000E+00 0.  1.
          1   -1    0    0  501    0  0.00000000000E+00 -0.00000000000E+00 -0.48210747619E+02  0.48210747619E+02  0.00000000000E+00 0. -1.
         25    2    1    2    0    0 -0.16198195415E+02  0.82539558122E+01  0.77900536815E+02  0.14847502858E+03  0.12508329687E+03 0.  0.
          5    1    3    3  502    0 -0.49427931348E+02  0.33617136231E+02 -0.51818440408E-01  0.59922511052E+02  0.41800000000E+01 0.  1.
         -5    1    3    3    0  502  0.33229735933E+02 -0.25363180418E+02  0.77952355255E+02  0.88552517530E+02  0.41800000000E+01 0.  1.
        -11    1    1    2    0    0 -0.21321770054E+02 -0.32030775264E+02  0.31861927162E+02  0.49957690546E+02  0.00000000000E+00 0.  1.
         11    1    1    2    0    0  0.37519965469E+02  0.23776819452E+02  0.12339981784E+03  0.13115105792E+03  0.00000000000E+00 0. -1.
</event>
<event>
 7    1  0.2842702E-009  0.8528922E+02  0.7561462E-02  0.1314678E+00
         -1   -1    0    0    0  501 -0.00000000000E+00  0.00000000000E+00  0.29308850048E+03  0.29308850048E+03  0.00000000000E+00 0.  1.
          1   -1    0    0  501    0  0.00000000000E+00 -0.00000000000E+00 -0.54302705629E+02  0.54302705629E+02  0.00000000000E+00 0. -1.
         25    2    1    2    0    0 -0.41000573560E+02  0.37728813811E+02  0.88200928724E+02  0.16288104555E+03  0.12508525391E+03 0.  0.
          5    1    3    3  502    0 -0.25397794670E+02 -0.59859242806E+00  0.11202724156E+03  0.11494773394E+03  0.41800000000E+01 0. -1.
         -5    1    3    3    0  502 -0.15602778890E+02  0.38327406239E+02 -0.23826312835E+02  0.47933311605E+02  0.41800000000E+01 0. -1.
        -11    1    1    2    0    0  0.54360863603E+02 -0.57659998371E+02  0.13278549455E+03  0.15463429913E+03  0.00000000000E+00 0.  1.
         11    1    1    2    0    0 -0.13360290042E+02  0.19931184560E+02  0.17799371579E+02  0.29875861437E+02  0.00000000000E+00 0. -1.
</event>
<event>
 7    1  0.2842702E-009  0.8289873E+02  0.7561462E-02  0.1321021E+00
          1   -1    0    0  501    0  0.00000000000E+00  0.00000000000E+00  0.23939834193E+02  0.23939834193E+02  0.00000000000E+00 0. -1.
         -1   -1    0    0    0  501 -0.00000000000E+00 -0.00000000000E+00 -0.34415940873E+03  0.34415940873E+03  0.00000000000E+00 0.  1.
         25    2    1    2    0    0 -0.20473902619E+02  0.30922799569E+02 -0.19116240936E+03  0.23144480652E+03  0.12509289146E+03 0.  0.
          5    1    3    3  502    0  0.35018477974E+01  0.76476933033E+02 -0.93048958128E+02  0.12056767906E+03  0.41800000000E+01 0.  1.
         -5    1    3    3    0  502 -0.23975750416E+02 -0.45554133464E+02 -0.98113451230E+02  0.11087712747E+03  0.41800000000E+01 0.  1.
        -11    1    1    2    0    0  0.73903937224E+01 -0.16052049041E+02 -0.24328959144E+02  0.30069659971E+02  0.00000000000E+00 0. -1.
         11    1    1    2    0    0  0.13083508896E+02 -0.14870750528E+02 -0.10472820603E+03  0.10658477642E+03  0.00000000000E+00 0.  1.
</event>
<event>
 7    1  0.2842702E-009  0.1243803E+03  0.7561462E-02  0.1236041E+00
         -1   -1    0    0    0  501 -0.00000000000E+00  0.00000000000E+00  0.46724435469E+03  0.46724435469E+03  0.00000000000E+00 0.  1.
          1   -1    0    0  501    0  0.00000000000E+00 -0.00000000000E+00 -0.45492085244E+02  0.45492085244E+02  0.00000000000E+00 0. -1.
         25    2    1    2    0    0 -0.38863480375E+02 -0.58012263778E+02  0.34735354842E+03  0.37573660690E+03  0.12509083622E+03 0.  0.
          5    1    3    3  502    0 -0.19593813546E+02  0.34978041573E+02  0.54131242109E+02  0.67491071215E+02  0.41800000000E+01 0. -1.
         -5    1    3    3    0  502 -0.19269666828E+02 -0.92990305351E+02  0.29322230631E+03  0.30824553568E+03  0.41800000000E+01 0. -1.
        -11    1    1    2    0    0  0.21107302896E+02  0.81364203571E+02  0.44488638663E+02  0.95104630951E+02  0.00000000000E+00 0.  1.
         11    1    1    2    0    0  0.17756177479E+02 -0.23351939793E+02  0.29910082360E+02  0.41895202082E+02  0.00000000000E+00 0. -1.
</event>
<event>
 7    1  0.2842702E-009  0.7844697E+02  0.7561462E-02  0.1333517E+00
          1   -1    0    0  501    0  0.00000000000E+00  0.00000000000E+00  0.11378042894E+03  0.11378042894E+03  0.00000000000E+00 0. -1.
         -1   -1    0    0    0  501 -0.00000000000E+00 -0.00000000000E+00 -0.13124510289E+03  0.13124510289E+03  0.00000000000E+00 0.  1.
         25    2    1    2    0    0 -0.42525417859E+02  0.31020901399E+02  0.26770150483E+01  0.13574309176E+03  0.12509321750E+03 0.  0.
          5    1    3    3  502    0  0.17476162605E+02  0.85782339146E+00  0.50226640469E+02  0.53351100581E+02  0.41800000000E+01 0.  1.
         -5    1    3    3    0  502 -0.60001580463E+02  0.30163078007E+02 -0.47549625421E+02  0.82391991180E+02  0.41800000000E+01 0.  1.
        -11    1    1    2    0    0 -0.76736062910E+01 -0.18282834569E+02  0.30804743021E+02  0.36634389117E+02  0.00000000000E+00 0.  1.
         11    1    1    2    0    0  0.50199024150E+02 -0.12738066830E+02 -0.50946432016E+02  0.72648050954E+02  0.00000000000E+00 0. -1.
</event>
<event>
 7    1  0.2842702E-009  0.1444070E+03  0.7561462E-02  0.1207519E+00
          3   -1    0    0  501    0  0.00000000000E+00  0.00000000000E+00  0.53377962867E+02  0.53377962867E+02  0.00000000000E+00 0. -1.
         -3   -1    0    0    0  501 -0.00000000000E+00 -0.00000000000E+00 -0.57389687004E+03  0.57389687004E+03  0.00000000000E+00 0.  1.
         25    2    1    2    0    0  0.27000020886E+02 -0.97488565940E+02 -0.11009692964E+03  0.19494540268E+03  0.12509738004E+03 0.  0.
          5    1    3    3  502    0 -0.47751341335E+02 -0.16846057089E+02 -0.36637663296E+02  0.62640011258E+02  0.41800000000E+01 0.  1.
         -5    1    3    3    0  502  0.74751362221E+02 -0.80642508851E+02 -0.73459266349E+02  0.13230539143E+03  0.41800000000E+01 0.  1.
        -11    1    1    2    0    0 -0.43684621140E+02  0.18849048688E+02 -0.88016449750E+02  0.10005262709E+03  0.00000000000E+00 0. -1.
         11    1    1    2    0    0  0.16684600254E+02  0.78639517252E+02 -0.32240552778E+03  0.33227680314E+03  0.00000000000E+00 0.  1.
</event>
<event>
 7    1  0.2842702E-009  0.2597211E+03  0.7561462E-02  0.1107311E+00
         -2   -1    0    0    0  501 -0.00000000000E+00  0.00000000000E+00  0.18141270235E+03  0.18141270235E+03  0.00000000000E+00 0.  1.
          2   -1    0    0  501    0  0.00000000000E+00 -0.00000000000E+00 -0.41251347043E+03  0.41251347043E+03  0.00000000000E+00 0. -1.
         25    2    1    2    0    0  0.90138799542E+02 -0.23177049179E+03 -0.13765419519E+03  0.31054458480E+03  0.12508676046E+03 0.  0.
          5    1    3    3  502    0 -0.12150620869E+02 -0.54866319323E+02 -0.80590173760E+02  0.98337170440E+02  0.41800000000E+01 0.  1.
         -5    1    3    3    0  502  0.10228942041E+03 -0.17690417247E+03 -0.57064021427E+02  0.21220741435E+03  0.41800000000E+01 0.  1.
        -11    1    1    2    0    0 -0.68807617433E+02  0.80354560518E+02 -0.32256729713E+01  0.10583831338E+03  0.00000000000E+00 0.  1.
         11    1    1    2    0    0 -0.21331182109E+02  0.15141593128E+03 -0.90220899923E+02  0.17754327460E+03  0.00000000000E+00 0. -1.
</event>
<event>
 7    1  0.2842702E-009  0.2641084E+03  0.7561462E-02  0.1104700E+00
          2   -1    0    0  501    0  0.00000000000E+00  0.00000000000E+00  0.34619867907E+03  0.34619867907E+03  0.00000000000E+00 0. -1.
         -2   -1    0    0    0  501 -0.00000000000E+00 -0.00000000000E+00 -0.25234680634E+03  0.25234680634E+03  0.00000000000E+00 0.  1.
         25    2    1    2    0    0  0.78037327076E+02  0.23845631152E+03 -0.64152589730E+02  0.28760265279E+03  0.12509394150E+03 0.  0.
          5    1    3    3  502    0 -0.24661080236E+02  0.10824116474E+03 -0.47682690930E+02  0.12089429282E+03  0.41800000000E+01 0. -1.
         -5    1    3    3    0  502  0.10269840731E+03  0.13021514679E+03 -0.16469898800E+02  0.16670835997E+03  0.41800000000E+01 0. -1.
        -11    1    1    2    0    0 -0.47329684447E+02 -0.12397617940E+03  0.29153720266E+02  0.13586806650E+03  0.00000000000E+00 0.  1.
         11    1    1    2    0    0 -0.30707642629E+02 -0.11448013212E+03  0.12885074219E+03  0.17507476611E+03  0.00000000000E+00 0. -1.
</event>
<event>
 7    1  0.2842702E-009  0.9248743E+02  0.7561462E-02  0.1296937E+00
          2   -1    0    0  501    0  0.00000000000E+00  0.00000000000E+00  0.61376533879E+03  0.61376533879E+03  0.00000000000E+00 0. -1.
         -2   -1    0    0    0  501 -0.00000000000E+00 -0.00000000000E+00 -0.26463296282E+02  0.26463296282E+02  0.00000000000E+00 0.  1.
         25    2    1    2    0    0  0.44200122082E+02  0.18146148338E+02  0.43958414757E+03  0.45952759267E+03  0.12509377339E+03 0.  0.
          5    1    3    3  502    0  0.74743740606E+02  0.32119072857E+00  0.39709069496E+03  0.40408566214E+03  0.41800000000E+01 0. -1.
         -5    1    3    3    0  502 -0.30543618524E+02  0.17824957609E+02  0.42493452606E+02  0.55441930528E+02  0.41800000000E+01 0. -1.
        -11    1    1    2    0    0 -0.50817437720E+02  0.43983724398E+01  0.26989920854E+02  0.57708001908E+02  0.00000000000E+00 0.  1.
         11    1    1    2    0    0  0.66173156373E+01 -0.22544520777E+02  0.12072797409E+03  0.12299304050E+03  0.00000000000E+00 0. -1.
</event>
<event>
 7    1  0.2908494E-009  0.1655877E+03  0.7561462E-02  0.1182529E+00
         -2   -1    0    0    0  501 -0.00000000000E+00  0.00000000000E+00  0.82047890477E+02  0.82047890477E+02  0.00000000000E+00 0.  1.
          2   -1    0    0  501    0  0.00000000000E+00 -0.00000000000E+00 -0.38283644268E+03  0.38283644268E+03  0.00000000000E+00 0. -1.
         25    2    1    2    0    0 -0.34910289202E+02 -0.13321758616E+03 -0.12834892791E+03  0.22603175293E+03  0.12510496586E+03 0.  0.
          5    1    3    3  502    0  0.41867235679E+02 -0.79820549636E+02 -0.45651400185E+02  0.10112224437E+03  0.41800000000E+01 0.  1.
         -5    1    3    3    0  502 -0.76777524881E+02 -0.53397036526E+02 -0.82697527726E+02  0.12490950856E+03  0.41800000000E+01 0.  1.
        -11    1    1    2    0    0  0.21785021990E+00  0.97633130111E+02 -0.56721629921E+02  0.11291421015E+03  0.00000000000E+00 0.  1.
         11    1    1    2    0    0  0.34692438982E+02  0.35584456051E+02 -0.11571799437E+03  0.12593837007E+03  0.00000000000E+00 0. -1.
</event>
<event>
 7    1  0.2842702E-009  0.1105704E+03  0.7561462E-02  0.1259517E+00
          2   -1    0    0  501    0  0.00000000000E+00  0.00000000000E+00  0.30375506546E+03  0.30375506546E+03  0.00000000000E+00 0. -1.
         -2   -1    0    0    0  501 -0.00000000000E+00 -0.00000000000E+00 -0.41260357640E+02  0.41260357640E+02  0.00000000000E+00 0.  1.
         25    2    1    2    0    0 -0.18450586849E+02 -0.25743332986E+02  0.14676635577E+03  0.19542640609E+03  0.12509186090E+03 0.  0.
          5    1    3    3  502    0 -0.15473196181E+02  0.49039327985E+02  0.41569500225E+02  0.66255348752E+02  0.41800000000E+01 0.  1.
         -5    1    3    3    0  502 -0.29773906682E+01 -0.74782660971E+02  0.10519685554E+03  0.12917105734E+03  0.41800000000E+01 0.  1.
        -11    1    1    2    0    0 -0.18285195882E+02  0.48187882352E+02  0.58287329326E+02  0.77806382476E+02  0.00000000000E+00 0.  1.
         11    1    1    2    0    0  0.36735782731E+02 -0.22444549366E+02  0.57441022723E+02  0.71782634533E+02  0.00000000000E+00 0. -1.
</event>
<event>
 7    1  0.2842702E-009  0.1023481E+03  0.7561462E-02  0.1275434E+00
          1   -1    0    0  501    0  0.00000000000E+00  0.00000000000E+00  0.59409980699E+03  0.59409980699E+03  0.00000000000E+00 0. -1.
         -1   -1    0    0    0  501 -0.00000000000E+00 -0.00000000000E+00 -0.25635855045E+02  0.25635855045E+02  0.00000000000E+00 0.  1.
         25    2    1    2    0    0 -0.31529125774E+02 -0.51278819965E+02  0.31542860237E+03  0.34462643746E+03  0.12509426467E+03 0.  0.
          5    1    3    3  502    0 -0.61833225007E+02 -0.30959402961E+02  0.29411799173E+03  0.30216667223E+03  0.41800000000E+01 0. -1.
         -5    1    3    3    0  502  0.30304099233E+02 -0.20319417004E+02  0.21310610646E+02  0.42459765235E+02  0.41800000000E+01 0. -1.
        -11    1    1    2    0    0 -0.26329941715E+02  0.18691183910E+02  0.37049070848E+02  0.49145293136E+02  0.00000000000E+00 0.  1.
         11    1    1    2    0    0  0.57859067489E+02  0.32587636055E+02  0.21598627872E+03  0.22596393144E+03  0.00000000000E+00 0. -1.
</event>
<event>
 7    1  0.2842702E-009  0.1072495E+03  0.7561462E-02  0.1265750E+00
          2   -1    0    0  501    0  0.00000000000E+00  0.00000000000E+00  0.13433042995E+03  0.13433042995E+03  0.00000000000E+00 0. -1.
         -2   -1    0    0    0  501 -0.00000000000E+00 -0.00000000000E+00 -0.33232564104E+03  0.33232564104E+03  0.00000000000E+00 0.  1.
         25    2    1    2    0    0 -0.86405803871E+02  0.45719086394E+02 -0.27140859494E+03  0.31442963439E+03  0.12508865565E+03 0.  0.
          5    1    3    3  502    0 -0.62277345521E+02  0.19594620205E+02 -0.32862098679E+02  0.73210701647E+02  0.41800000000E+01 0. -1.
         -5    1    3    3    0  502 -0.24128458350E+02  0.26124466188E+02 -0.23854649626E+03  0.24121893275E+03  0.41800000000E+01 0. -1.
        -11    1    1    2    0    0  0.45737314287E+02  0.74413548820E+01  0.71578576380E+02  0.85268800139E+02  0.00000000000E+00 0. -1.
         11    1    1    2    0    0  0.40668489584E+02 -0.53160441276E+02  0.18348074785E+01  0.66957636459E+02  0.00000000000E+00 0.  1.
</event>
<event>
 7    1  0.2842702E-009  0.1178675E+03  0.7561462E-02  0.1246657E+00
         -1   -1    0    0    0  501 -0.00000000000E+00  0.00000000000E+00  0.15387725674E+03  0.15387725674E+03  0.00000000000E+00 0.  1.
          1   -1    0    0  501    0  0.00000000000E+00 -0.00000000000E+00 -0.13119166477E+03  0.13119166477E+03  0.00000000000E+00 0. -1.
         25    2    1    2    0    0 -0.32389835652E+02 -0.80485568877E+02  0.42401658404E+02  0.15802188138E+03  0.12508391627E+03 0.  0.
          5    1    3    3  502    0  0.25640288171E+02 -0.13272609057E+02 -0.31124310648E+02  0.42658898743E+02  0.41800000000E+01 0. -1.
         -5    1    3    3    0  502 -0.58030123823E+02 -0.67212959819E+02  0.73525969051E+02  0.11536298264E+03  0.41800000000E+01 0. -1.
        -11    1    1    2    0    0 -0.22205221385E+02  0.50983815200E+02  0.12689861724E+02  0.57039055564E+02  0.00000000000E+00 0.  1.
         11    1    1    2    0    0  0.54595057037E+02  0.29501753677E+02 -0.32405928155E+02  0.70007984563E+02  0.00000000000E+00 0. -1.
</event>
<event>
 7    1  0.3071833E-009  0.7038119E+02  0.7561462E-02  0.1358802E+00
          2   -1    0    0  501    0  0.00000000000E+00  0.00000000000E+00  0.16414434190E+03  0.16414434190E+03  0.00000000000E+00 0. -1.
         -2   -1    0    0    0  501 -0.00000000000E+00 -0.00000000000E+00 -0.85504549372E+02  0.85504549372E+02  0.00000000000E+00 0.  1.
         25    2    1    2    0    0  0.42702848328E+02  0.16183217925E+02  0.57201698045E+02  0.14493222403E+03  0.12509150852E+03 0.  0.
          5    1    3    3  502    0  0.12962246612E+02  0.19518417782E+01  0.94199786198E+02  0.95199273334E+02  0.41800000000E+01 0. -1.
         -5    1    3    3    0  502  0.29740601717E+02  0.14231376146E+02 -0.36998088154E+02  0.49732950692E+02  0.41800000000E+01 0. -1.
        -11    1    1    2    0    0 -0.16550959931E+02 -0.49050380293E+02 -0.93941102549E+01  0.52612958376E+02  0.00000000000E+00 0. -1.
         11    1    1    2    0    0 -0.26151888397E+02  0.32867162369E+02  0.30832204734E+02  0.52103708866E+02  0.00000000000E+00 0.  1.
</event>
<event>
 7    1  0.2842702E-009  0.1030225E+03  0.7561462E-02  0.1274066E+00
          2   -1    0    0  501    0  0.00000000000E+00  0.00000000000E+00  0.56641566586E+02  0.56641566586E+02  0.00000000000E+00 0. -1.
         -2   -1    0    0    0  501 -0.00000000000E+00 -0.00000000000E+00 -0.31707592910E+03  0.31707592910E+03  0.00000000000E+00 0.  1.
         25    2    1    2    0    0 -0.45493884547E+02  0.63084982902E+02 -0.16347385572E+03  0.22004628460E+03  0.12508899737E+03 0.  0.
          5    1    3    3  502    0  0.17445926724E+02  0.39661055176E+02 -0.14335123197E+03  0.14981457795E+03  0.41800000000E+01 0.  1.
         -5    1    3    3    0  502 -0.62939811271E+02  0.23423927726E+02 -0.20122623746E+02  0.70231706653E+02  0.41800000000E+01 0.  1.
        -11    1    1    2    0    0  0.38298864536E+02 -0.73318178588E+02 -0.10864693279E+03  0.13655224034E+03  0.00000000000E+00 0.  1.
         11    1    1    2    0    0  0.71950200110E+01  0.10233195686E+02  0.11686425998E+02  0.17118970749E+02  0.00000000000E+00 0. -1.
</event>
<event>
 7    1  0.2842702E-009  0.1040504E+03  0.7561462E-02  0.1272002E+00
          2   -1    0    0  501    0  0.00000000000E+00  0.00000000000E+00  0.68945233039E+02  0.68945233039E+02  0.00000000000E+00 0. -1.
         -2   -1    0    0    0  501 -0.00000000000E+00 -0.00000000000E+00 -0.17522134976E+03  0.17522134976E+03  0.00000000000E+00 0.  1.
         25    2    1    2    0    0 -0.15424659780E+01  0.17358761872E+02 -0.51951869461E+02  0.13656415802E+03  0.12508823566E+03 0.  0.
          5    1    3    3  502    0  0.33915860312E+02  0.60412321935E+02 -0.37068369673E+02  0.78685898689E+02  0.41800000000E+01 0.  1.
         -5    1    3    3    0  502 -0.35458326289E+02 -0.43053560062E+02 -0.14883499788E+02  0.57878259331E+02  0.41800000000E+01 0.  1.
        -11    1    1    2    0    0 -0.14486614983E+02  0.29701565320E+02  0.12072956023E+01  0.33068150217E+02  0.00000000000E+00 0. -1.
         11    1    1    2    0    0  0.16029080961E+02 -0.47060327192E+02 -0.55531542862E+02  0.74534274562E+02  0.00000000000E+00 0.  1.
</event>
<event>
 7    1  0.2842702E-009  0.9202241E+02  0.7561462E-02  0.1298027E+00
         -1   -1    0    0    0  501 -0.00000000000E+00  0.00000000000E+00  0.44892077020E+02  0.44892077020E+02  0.00000000000E+00 0.  1.
          1   -1    0    0  501    0  0.00000000000E+00 -0.00000000000E+00 -0.34855712667E+03  0.34855712667E+03  0.00000000000E+00 0. -1.
         25    2    1    2    0    0 -0.47214165802E+02  0.31662184216E+02 -0.20581672089E+03  0.24747617336E+03  0.12510900216E+03 0.  0.
          5    1    3    3  502    0 -0.64815091441E+02  0.11681189957E+02 -0.35295341078E+02  0.74837689563E+02  0.41800000000E+01 0.  1.
         -5    1    3    3    0  502  0.17600925639E+02  0.19980994259E+02 -0.17052137981E+03  0.17263848379E+03  0.41800000000E+01 0.  1.
        -11    1    1    2    0    0  0.63856047202E+02 -0.11377900000E+02 -0.26702228871E+02  0.70143142212E+02  0.00000000000E+00 0.  1.
         11    1    1    2    0    0 -0.16641881400E+02 -0.20284284216E+02 -0.71146099889E+02  0.75829888118E+02  0.00000000000E+00 0. -1.
</event>
<event>
 7    1  0.2842702E-009  0.1132191E+03  0.7561462E-02  0.1254722E+00
          1   -1    0    0  501    0  0.00000000000E+00  0.00000000000E+00  0.61535851400E+03  0.61535851400E+03  0.00000000000E+00 0. -1.
         -1   -1    0    0    0  501 -0.00000000000E+00 -0.00000000000E+00 -0.22381954200E+02  0.22381954200E+02  0.00000000000E+00 0.  1.
         25    2    1    2    0    0 -0.30622756536E+02 -0.30275821315E+02  0.41174747179E+03  0.43247863095E+03  0.12508959641E+03 0.  0.
          5    1    3    3  502    0  0.48233830664E+02 -0.20007020479E+02  0.14988801802E+03  0.15877869389E+03  0.41800000000E+01 0. -1.
         -5    1    3    3    0  502 -0.78856587200E+02 -0.10268800837E+02  0.26185945378E+03  0.27369993706E+03  0.41800000000E+01 0. -1.
        -11    1    1    2    0    0  0.31620900301E+02 -0.24272668069E+02  0.97410810191E+02  0.10525164936E+03  0.00000000000E+00 0.  1.
         11    1    1    2    0    0 -0.99814376491E+00  0.54548489384E+02  0.83818277820E+02  0.10001018789E+03  0.00000000000E+00 0. -1.
</event>
<event>
 7    1  0.2842702E-009  0.1191391E+03  0.7561462E-02  0.1244524E+00
         -1   -1    0    0    0  501 -0.00000000000E+00  0.00000000000E+00  0.31102942195E+02  0.31102942195E+02  0.00000000000E+00 0.  1.
          1   -1    0    0  501    0  0.00000000000E+00 -0.00000000000E+00 -0.49508708981E+03  0.49508708981E+03  0.00000000000E+00 0. -1.
         25    2    1    2    0    0 -0.30769710199E+00 -0.53291266291E+02 -0.27742881313E+03  0.30895639888E+03  0.12508899357E+03 0.  0.
          5    1    3    3  502    0 -0.53962572025E+02 -0.49947928550E+02 -0.21047990350E+03  0.22299331139E+03  0.41800000000E+01 0.  1.
         -5    1    3    3    0  502  0.53654874923E+02 -0.33433377417E+01 -0.66948909627E+02  0.85963087488E+02  0.41800000000E+01 0.  1.
        -11    1    1    2    0    0 -0.37879302713E-01  0.81998438578E+02 -0.14752054546E+03  0.16877812861E+03  0.00000000000E+00 0. -1.
         11    1    1    2    0    0  0.34557640470E+00 -0.28707172287E+02 -0.39034789023E+02  0.48455504515E+02  0.00000000000E+00 0.  1.
</event>
<event>
 7    1  0.2842702E-009  0.1317635E+03  0.7561462E-02  0.1224862E+00
          2   -1    0    0  501    0  0.00000000000E+00  0.00000000000E+00  0.63710858747E+03  0.63710858747E+03  0.00000000000E+00 0. -1.
         -2   -1    0    0    0  501 -0.00000000000E+00 -0.00000000000E+00 -0.33331751935E+02  0.33331751935E+02  0.00000000000E+00 0.  1.
         25    2    1    2    0    0 -0.44294061568E+02 -0.81472313580E+02  0.26021266890E+03  0.30324500653E+03  0.12508876512E+03 0.  0.
          5    1    3    3  502    0 -0.84224696774E+02 -0.37290570455E+02  0.18920247733E+03  0.21047431202E+03  0.41800000000E+01 0.  1.
         -5    1    3    3    0  502  0.39930635206E+02 -0.44181743125E+02  0.71010191568E+02  0.92770694510E+02  0.41800000000E+01 0.  1.
        -11    1    1    2    0    0  0.38626747003E+01  0.69287573533E+02  0.29401348975E+03  0.30209207248E+03  0.00000000000E+00 0. -1.
         11    1    1    2    0    0  0.40431386867E+02  0.12184740046E+02  0.49550676887E+02  0.65103260394E+02  0.00000000000E+00 0.  1.
</event>
<event>
 7    1  0.2842702E-009  0.9578802E+02  0.7561462E-02  0.1289411E+00
         -1   -1    0    0    0  501 -0.00000000000E+00  0.00000000000E+00  0.15486176779E+03  0.15486176779E+03  0.00000000000E+00 0.  1.
          1   -1    0    0  501    0  0.00000000000E+00 -0.00000000000E+00 -0.94200839533E+02  0.94200839533E+02  0.00000000000E+00 0. -1.
         25    2    1    2    0    0  0.44383485220E+02 -0.29860283076E+02  0.30239173102E+02  0.13936678156E+03  0.12508861637E+03 0.  0.
          5    1    3    3  502    0  0.40494879302E+02 -0.74807203339E+02  0.38239480783E+02  0.93357823515E+02  0.41800000000E+01 0. -1.
         -5    1    3    3    0  502  0.38886059188E+01  0.44946920262E+02 -0.80003076809E+01  0.46008958041E+02  0.41800000000E+01 0. -1.
        -11    1    1    2    0    0 -0.21288315864E+02  0.31420509755E+02  0.60696530513E+02  0.71585680424E+02  0.00000000000E+00 0.  1.
         11    1    1    2    0    0 -0.23095169357E+02 -0.15602266783E+01 -0.30274775358E+02  0.38110145341E+02  0.00000000000E+00 0. -1.
</event>
<event>
 7    1  0.2842702E-009  0.1068894E+03  0.7561462E-02  0.1266441E+00
         -1   -1    0    0    0  501 -0.00000000000E+00  0.00000000000E+00  0.73945354746E+02  0.73945354746E+02  0.00000000000E+00 0.  1.
          1   -1    0    0  501    0  0.00000000000E+00 -0.00000000000E+00 -0.23122798592E+03  0.23122798592E+03  0.00000000000E+00 0. -1.
         25    2    1    2    0    0 -0.20071007393E+02  0.36678186190E+02 -0.27417952291E+02  0.13469681225E+03  0.12507338823E+03 0.  0.
          5    1    3    3  502    0  0.40324321598E+02 -0.18940565680E+02  0.75134993799E+01  0.45373130965E+02  0.41800000000E+01 0.  1.
         -5    1    3    3    0  502 -0.60395328991E+02  0.55618751870E+02 -0.34931451670E+02  0.89323681290E+02  0.41800000000E+01 0.  1.
        -11    1    1    2    0    0  0.36549667655E+02  0.95229622738E+01 -0.73111529798E+01  0.38471001729E+02  0.00000000000E+00 0.  1.
         11    1    1    2    0    0 -0.16478660262E+02 -0.46201148464E+02 -0.12255352591E+03  0.13200552669E+03  0.00000000000E+00 0. -1.
</event>
<event>
 7    1  0.2842702E-009  0.1547737E+03  0.7561462E-02  0.1194727E+00
          2   -1    0    0  501    0  0.00000000000E+00  0.00000000000E+00  0.80376953430E+03  0.80376953430E+03  0.00000000000E+00 0. -1.
         -2   -1    0    0    0  501 -0.00000000000E+00 -0.00000000000E+00 -0.31778279656E+02  0.31778279656E+02  0.00000000000E+00 0.  1.
         25    2    1    2    0    0  0.98407803924E+02 -0.61383325006E+02  0.46922507533E+03  0.49927111619E+03  0.12508983845E+03 0.  0.
          5    1    3    3  502    0 -0.23554735253E+02 -0.37907120217E+02  0.97172787953E+02  0.10701307600E+03  0.41800000000E+01 0.  1.
         -5    1    3    3    0  502  0.12196253918E+03 -0.23476204788E+02  0.37205228737E+03  0.39225804019E+03  0.41800000000E+01 0.  1.
        -11    1    1    2    0    0 -0.10951230019E+03  0.66609006309E+02  0.23764317910E+03  0.27000737802E+03  0.00000000000E+00 0.  1.
         11    1    1    2    0    0  0.11104496261E+02 -0.52256813033E+01  0.65123000208E+02  0.66269319737E+02  0.00000000000E+00 0. -1.
</event>
<event>
 7    1  0.2842702E-009  0.1759675E+03  0.7561462E-02  0.1171764E+00
         -1   -1    0    0    0  501 -0.00000000000E+00  0.00000000000E+00  0.71142877697E+02  0.71142877697E+02  0.00000000000E+00 0.  1.
          1   -1    0    0  501    0  0.00000000000E+00 -0.00000000000E+00 -0.52212082332E+03  0.52212082332E+03  0.00000000000E+00 0. -1.
         25    2    1    2    0    0  0.12056573888E+03 -0.98820336699E+02 -0.18823241072E+03  0.27455553932E+03  0.12509095646E+03 0.  0.
          5    1    3    3  502    0  0.12657045426E+03 -0.36179696251E+02 -0.15455311844E+03  0.20305957040E+03  0.41800000000E+01 0. -1.
         -5    1    3    3    0  502 -0.60047153798E+01 -0.62640640448E+02 -0.33679292279E+02  0.71495968914E+02  0.41800000000E+01 0. -1.
        -11    1    1    2    0    0 -0.44293048739E+02  0.24266278354E+02 -0.17007475806E+03  0.17741519034E+03  0.00000000000E+00 0. -1.
         11    1    1    2    0    0 -0.76272690139E+02  0.74554058345E+02 -0.92670776834E+02  0.14129297136E+03  0.00000000000E+00 0.  1.
</event>
<event>
 7    1  0.2842702E-009  0.1224774E+03  0.7561462E-02  0.1239065E+00
         -2   -1    0    0    0  501 -0.00000000000E+00  0.00000000000E+00  0.78949829414E+02  0.78949829414E+02  0.00000000000E+00 0.  1.
          2   -1    0    0  501    0  0.00000000000E+00 -0.00000000000E+00 -0.29157108830E+03  0.29157108830E+03  0.00000000000E+00 0. -1.
         25    2    1    2    0    0  0.53974551865E+02 -0.73932015680E+02 -0.17848213020E+03  0.23639527825E+03  0.12509061350E+03 0.  0.
          5    1    3    3  502    0  0.72092282238E+02 -0.66009994421E+02 -0.18958062704E+03  0.21333753320E+03  0.41800000000E+01 0. -1.
         -5    1    3    3    0  502 -0.18117730373E+02 -0.79220212590E+01  0.11098496841E+02  0.23057745050E+02  0.41800000000E+01 0. -1.
        -11    1    1    2    0    0 -0.51824427505E+02  0.93670779319E+02 -0.38559356541E+02  0.11378405056E+03  0.00000000000E+00 0. -1.
         11    1    1    2    0    0 -0.21501243599E+01 -0.19738763639E+02  0.44202278602E+01  0.20341588903E+02  0.00000000000E+00 0.  1.
</event>
<event>
 6    1  0.2842702E-009  0.1179002E+03  0.7561462E-02  0.1246602E+00
         -2   -1    0    0    0  501 -0.00000000000E+00  0.00000000000E+00  0.46365133761E+03  0.46365133761E+03  0.00000000000E+00 0. -1.
          2   -1    0    0  501    0  0.00000000000E+00 -0.00000000000E+00 -0.35432305745E+02  0.35432305745E+02  0.00000000000E+00 0.  1.
          5    1    1    2  502    0  0.42236224964E+02  0.52098803800E+02  0.19915185345E+03  0.21018353216E+03  0.41800000000E+01 0.  1.
         -5    1    1    2    0  502  0.13084409803E+02 -0.64806050369E+02  0.11655354973E+03  0.13406426929E+03  0.41800000000E+01 0.  1.
        -11    1    1    2    0    0 -0.70965473953E+02 -0.13112081957E+02  0.58259864116E+02  0.92748245015E+02  0.00000000000E+00 0. -1.
         11    1    1    2    0    0  0.15644839186E+02  0.25819328526E+02  0.54253764558E+02  0.62087596889E+02  0.00000000000E+00 0.  1.
</event>
<event>
 7    1  0.2842702E-009  0.8179776E+02  0.7561462E-02  0.1324026E+00
         -2   -1    0    0    0  501 -0.00000000000E+00  0.00000000000E+00  0.10423338680E+03  0.10423338680E+03  0.00000000000E+00 0.  1.
          2   -1    0    0  501    0  0.00000000000E+00 -0.00000000000E+00 -0.16305808638E+03  0.16305808638E+03  0.00000000000E+00 0. -1.
         25    2    1    2    0    0  0.58225871327E+02 -0.27531787166E+02  0.63676600983E+01  0.14084180207E+03  0.12509042617E+03 0.  0.
          5    1    3    3  502    0  0.14315288812E+02 -0.38819774177E+01 -0.57597405605E+02  0.59623240224E+02  0.41800000000E+01 0. -1.
         -5    1    3    3    0  502  0.43910582515E+02 -0.23649809748E+02  0.63965065703E+02  0.81218561846E+02  0.41800000000E+01 0. -1.
        -11    1    1    2    0    0 -0.28438352207E+02 -0.24922875016E+02 -0.25109642939E+00  0.37814714394E+02  0.00000000000E+00 0.  1.
         11    1    1    2    0    0 -0.29787519120E+02  0.52454662182E+02 -0.64941263248E+02  0.88634956716E+02  0.00000000000E+00 0. -1.
</event>
<event>
 7    1  0.2842702E-009  0.1047517E+03  0.7561462E-02  0.1270610E+00
         -3   -1    0    0    0  501 -0.00000000000E+00  0.00000000000E+00  0.72884094205E+03  0.72884094205E+03  0.00000000000E+00 0.  1.
          3   -1    0    0  501    0  0.00000000000E+00 -0.00000000000E+00 -0.17412725532E+02  0.17412725532E+02  0.00000000000E+00 0. -1.
         25    2    1    2    0    0  0.13247272385E+02  0.23777249675E+02  0.42854892649E+03  0.44725838834E+03  0.12508011719E+03 0.  0.
          5    1    3    3  502    0  0.59073250740E+02  0.39952220499E+02  0.32552388252E+03  0.33327030976E+03  0.41800000000E+01 0.  1.
         -5    1    3    3    0  502 -0.45825978355E+02 -0.16174970824E+02  0.10302504398E+03  0.11398807859E+03  0.41800000000E+01 0.  1.
        -11    1    1    2    0    0  0.34180362804E+02 -0.24166264077E+02  0.76172715288E+02  0.86917133381E+02  0.00000000000E+00 0. -1.
         11    1    1    2    0    0 -0.47427635189E+02  0.38901440218E+00  0.20670657474E+03  0.21207814586E+03  0.00000000000E+00 0.  1.
</event>
<event>
 7    1  0.2842702E-009  0.1957426E+03  0.7561462E-02  0.1153381E+00
         -1   -1    0    0    0  501 -0.00000000000E+00  0.00000000000E+00  0.27277888351E+03  0.27277888351E+03  0.00000000000E+00 0.  1.
          1   -1    0    0  501    0  0.00000000000E+00 -0.00000000000E+00 -0.15070639900E+03  0.15070639900E+03  0.00000000000E+00 0. -1.
         25    2    1    2    0    0  0.13170726546E+03  0.10645022934E+03  0.84726807879E+02  0.22694586085E+03  0.12508931482E+03 0.  0.
          5    1    3    3  502    0  0.10599818797E+03  0.12692805415E+03  0.96824526595E+02  0.19167370225E+03  0.41800000000E+01 0. -1.
         -5    1    3    3    0  502  0.25709077485E+02 -0.20477824812E+02 -0.12097718716E+02  0.35272158600E+02  0.41800000000E+01 0. -1.
        -11    1    1    2    0    0 -0.44187455335E+02  0.11876816073E+02  0.74843236527E+01  0.46363833637E+02  0.00000000000E+00 0.  1.
         11    1    1    2    0    0 -0.87519810121E+02 -0.11832704541E+03  0.29861352983E+02  0.15017558803E+03  0.00000000000E+00 0. -1.
</event>
<event>
 7    1  0.2842702E-009  0.1794814E+03  0.7561462E-02  0.1168306E+00
         -2   -1    0    0    0  501 -0.00000000000E+00  0.00000000000E+00  0.10170322571E+03  0.10170322571E+03  0.00000000000E+00 0. -1.
          2   -1    0    0  501    0  0.00000000000E+00 -0.00000000000E+00 -0.33270632580E+03  0.33270632580E+03  0.00000000000E+00 0.  1.
         25    2    1    2    0    0 -0.14760333937E+02  0.14383666763E+03 -0.16374811569E+03  0.25172797649E+03  0.12508666732E+03 0.  0.
          5    1    3    3  502    0 -0.34231133686E+02 -0.97758703970E+01 -0.24276220613E+02  0.43291401487E+02  0.41800000000E+01 0. -1.
         -5    1    3    3    0  502  0.19470799749E+02  0.15361253803E+03 -0.13947189508E+03  0.20843657500E+03  0.41800000000E+01 0. -1.
        -11    1    1    2    0    0  0.12058820888E+02 -0.15564280254E+03 -0.55167282617E+02  0.16557030596E+03  0.00000000000E+00 0.  1.
         11    1    1    2    0    0  0.27015130494E+01  0.11806134915E+02 -0.12087701787E+02  0.17111269061E+02  0.00000000000E+00 0. -1.
</event>
<event>
 7    1  0.2842702E-009  0.9007611E+02  0.7561462E-02  0.1302667E+00
          3   -1    0    0  501    0  0.00000000000E+00  0.00000000000E+00  0.23660523696E+03  0.23660523696E+03  0.00000000000E+00 0. -1.
         -3   -1    0    0    0  501 -0.00000000000E+00 -0.00000000000E+00 -0.10499886145E+03  0.10499886145E+03  0.00000000000E+00 0.  1.
         25    2    1    2    0    0  0.81386937780E+02 -0.34027410032E+02  0.10180428652E+02  0.15340341749E+03  0.12508904467E+03 0.  0.
          5    1    3    3  502    0  0.48594422011E+02 -0.13196410648E+02  0.67325468765E+02  0.84176922307E+02  0.41800000000E+01 0.  1.
         -5    1    3    3    0  502  0.32792515769E+02 -0.20830999384E+02 -0.57145040113E+02  0.69226495183E+02  0.41800000000E+01 0.  1.
        -11    1    1    2    0    0 -0.47551960254E+02  0.30590836271E+02  0.13889840529E+03  0.14996584671E+03  0.00000000000E+00 0. -1.
         11    1    1    2    0    0 -0.33834977526E+02  0.34365737608E+01 -0.17472458438E+02  0.38234834213E+02  0.00000000000E+00 0.  1.
</event>
<event>
 7    1  0.2842702E-009  0.8607990E+02  0.7561462E-02  0.1312632E+00
         -2   -1    0    0    0  501 -0.00000000000E+00  0.00000000000E+00  0.85186302200E+02  0.85186302200E+02  0.00000000000E+00 0.  1.
          2   -1    0    0  501    0  0.00000000000E+00 -0.00000000000E+00 -0.15026766806E+03  0.15026766806E+03  0.00000000000E+00 0. -1.
         25    2    1    2    0    0  0.17184083400E+01 -0.21639337578E+02 -0.62580876970E+02  0.14154533965E+03  0.12508998024E+03 0.  0.
          5    1    3    3  502    0 -0.32830262850E+02 -0.28076516535E+02  0.22868640793E+02  0.49056743382E+02  0.41800000000E+01 0. -1.
         -5    1    3    3    0  502  0.34548671190E+02  0.64371789566E+01 -0.85449517763E+02  0.92488596269E+02  0.41800000000E+01 0. -1.
        -11    1    1    2    0    0  0.42996760775E+02  0.22739993400E+02  0.35663255090E+01  0.48770353849E+02  0.00000000000E+00 0. -1.
         11    1    1    2    0    0 -0.44715169115E+02 -0.11006558217E+01 -0.60668144019E+01  0.45138276764E+02  0.00000000000E+00 0.  1.
</event>
<event>
 7    1  0.2842702E-009  0.1939742E+03  0.7561462E-02  0.1154925E+00
          2   -1    0    0  501    0  0.00000000000E+00  0.00000000000E+00  0.13799034388E+04  0.13799034388E+04  0.00000000000E+00 0. -1.
         -2   -1    0    0    0  501 -0.00000000000E+00 -0.00000000000E+00 -0.32630428368E+02  0.32630428368E+02  0.00000000000E+00 0.  1.
         25    2    1    2    0    0  0.16769698846E+02 -0.16014930554E+03  0.41873648686E+03  0.46574343434E+03  0.12509068046E+03 0.  0.
          5    1    3    3  502    0  0.13975721783E+02  0.19401380675E+02  0.51282359638E+02  0.56737000110E+02  0.41800000000E+01 0.  1.
         -5    1    3    3    0  502  0.27939770628E+01 -0.17955068621E+03  0.36745412722E+03  0.40900643423E+03  0.41800000000E+01 0.  1.
        -11    1    1    2    0    0 -0.53711649703E+02  0.91726949463E+02  0.58321838425E+03  0.59282582459E+03  0.00000000000E+00 0. -1.
         11    1    1    2    0    0  0.36941950857E+02  0.68422356075E+02  0.34531813937E+03  0.35396460829E+03  0.00000000000E+00 0.  1.
</event>
<event>
 7    1  0.2842702E-009  0.1088790E+03  0.7561462E-02  0.1262660E+00
          1   -1    0    0  501    0  0.00000000000E+00  0.00000000000E+00  0.43937502461E+02  0.43937502461E+02  0.00000000000E+00 0. -1.
         -1   -1    0    0    0  501 -0.00000000000E+00 -0.00000000000E+00 -0.30809919195E+03  0.30809919195E+03  0.00000000000E+00 0.  1.
         25    2    1    2    0    0 -0.33769366651E+02  0.24887082664E+02 -0.16067656356E+03  0.20790450098E+03  0.12509031314E+03 0.  0.
          5    1    3    3  502    0  0.21721622282E+02 -0.40328598726E+02 -0.61760285013E+02  0.77006687727E+02  0.41800000000E+01 0.  1.
         -5    1    3    3    0  502 -0.55490988933E+02  0.65215681391E+02 -0.98916278548E+02  0.13089781325E+03  0.41800000000E+01 0.  1.
        -11    1    1    2    0    0 -0.17981178385E+00 -0.46033444949E+02 -0.17405869551E+02  0.49214577931E+02  0.00000000000E+00 0.  1.
         11    1    1    2    0    0  0.33949178435E+02  0.21146362285E+02 -0.86079256379E+02  0.94917615504E+02  0.00000000000E+00 0. -1.
</event>
<event>
 7    1  0.2842702E-009  0.8265746E+02  0.7561462E-02  0.1321675E+00
          2   -1    0    0  501    0  0.00000000000E+00  0.00000000000E+00  0.27969555760E+04  0.27969555760E+04  0.00000000000E+00 0.  1.
         -2   -1    0    0    0  501 -0.00000000000E+00 -0.00000000000E+00 -0.98757497121E+01  0.98757497121E+01  0.00000000000E+00 0. -1.
         25    2    1    2    0    0  0.41201957103E+02  0.11831914572E+02  0.24783696627E+04  0.24818946571E+04  0.12508920113E+03 0.  0.
          5    1    3    3  502    0 -0.65182111242E+01 -0.15781801074E+02  0.51922739918E+02  0.54817840545E+02  0.41800000000E+01 0. -1.
         -5    1    3    3    0  502  0.47720168227E+02  0.27613715646E+02  0.24264469228E+04  0.24270768165E+04  0.41800000000E+01 0. -1.
        -11    1    1    2    0    0 -0.46659413066E+02  0.26544318189E+02  0.24109219021E+03  0.24699624661E+03  0.00000000000E+00 0.  1.
         11    1    1    2    0    0  0.54574559631E+01 -0.38376232761E+02  0.67617973369E+02  0.77940422048E+02  0.00000000000E+00 0. -1.
</event>
<event>
 7    1  0.2842702E-009  0.1593441E+03  0.7561462E-02  0.1189439E+00
          1   -1    0    0  501    0  0.00000000000E+00  0.00000000000E+00  0.18307221025E+03  0.18307221025E+03  0.00000000000E+00 0. -1.
         -1   -1    0    0    0  501 -0.00000000000E+00 -0.00000000000E+00 -0.15686994979E+03  0.15686994979E+03  0.00000000000E+00 0.  1.
         25    2    1    2    0    0 -0.23694297585E+02  0.12723414287E+03  0.43476666815E+01  0.18006557237E+03  0.12511898856E+03 0.  0.
          5    1    3    3  502    0 -0.73000158839E+02  0.52708405008E+02  0.83192151230E+01  0.90520057939E+02  0.41800000000E+01 0. -1.
         -5    1    3    3    0  502  0.49305861254E+02  0.74525737860E+02 -0.39715484415E+01  0.89545514430E+02  0.41800000000E+01 0. -1.
        -11    1    1    2    0    0  0.33867520995E+02 -0.12381184219E+03 -0.75420217181E+01  0.12858173796E+03  0.00000000000E+00 0.  1.
         11    1    1    2    0    0 -0.10173223409E+02 -0.34223006779E+01  0.29396615489E+02  0.31294849715E+02  0.00000000000E+00 0. -1.
</event>
<event>
 7    1  0.2842702E-009  0.9153732E+02  0.7561462E-02  0.1299171E+00
          2   -1    0    0  501    0  0.00000000000E+00  0.00000000000E+00  0.36695831623E+02  0.36695831623E+02  0.00000000000E+00 0. -1.
         -2   -1    0    0    0  501 -0.00000000000E+00 -0.00000000000E+00 -0.34491313920E+03  0.34491313920E+03  0.00000000000E+00 0.  1.
         25    2    1    2    0    0  0.49414986129E+01 -0.28713981072E+02 -0.17234937828E+03  0.21494296769E+03  0.12508900851E+03 0.  0.
          5    1    3    3  502    0  0.50696224045E+02  0.11034373789E+02 -0.29778086158E+02  0.59967252334E+02  0.41800000000E+01 0. -1.
         -5    1    3    3    0  502 -0.45754725432E+02 -0.39748354861E+02 -0.14257129212E+03  0.15497571536E+03  0.41800000000E+01 0. -1.
        -11    1    1    2    0    0  0.26755324446E+02 -0.10690753452E+01 -0.11563784349E+03  0.11869751959E+03  0.00000000000E+00 0.  1.
         11    1    1    2    0    0 -0.31696823059E+02  0.29783056417E+02 -0.20230085798E+02  0.47968483538E+02  0.00000000000E+00 0. -1.
</event>
<event>
 7    1  0.2842702E-009  0.8396455E+02  0.7561462E-02  0.1318163E+00
         -2   -1    0    0    0  501 -0.00000000000E+00  0.00000000000E+00  0.52332765358E+02  0.52332765358E+02  0.00000000000E+00 0.  1.
          2   -1    0    0  501    0  0.00000000000E+00 -0.00000000000E+00 -0.34570418766E+03  0.34570418766E+03  0.00000000000E+00 0. -1.
         25    2    1    2    0    0 -0.22104075864E+02 -0.30079536349E+02 -0.26187490859E+03  0.29260810031E+03  0.12509062293E+03 0.  0.
          5    1    3    3  502    0 -0.15623829673E+02 -0.60003329511E+02 -0.25290901640E+03  0.26043223031E+03  0.41800000000E+01 0. -1.
         -5    1    3    3    0  502 -0.64802461913E+01  0.29923793162E+02 -0.89658921837E+01  0.32175870004E+02  0.41800000000E+01 0. -1.
        -11    1    1    2    0    0  0.40972378855E+02  0.36580494997E+02  0.13190803780E+02  0.56487748650E+02  0.00000000000E+00 0.  1.
         11    1    1    2    0    0 -0.18868302991E+02 -0.65009586479E+01 -0.44687317501E+02  0.48941104059E+02  0.00000000000E+00 0. -1.
</event>
<event>
 7    1  0.2842702E-009  0.9869127E+02  0.7561462E-02  0.1283072E+00
          1   -1    0    0  501    0  0.00000000000E+00  0.00000000000E+00  0.23477977819E+03  0.23477977819E+03  0.00000000000E+00 0. -1.
         -1   -1    0    0    0  501 -0.00000000000E+00 -0.00000000000E+00 -0.62555788476E+02  0.62555788476E+02  0.00000000000E+00 0.  1.
         25    2    1    2    0    0  0.60327818861E+01 -0.25128149741E+02  0.33440102027E+02  0.13203060361E+03  0.12508405774E+03 0.  0.
          5    1    3    3  502    0 -0.13395023181E+02  0.38617512635E+02  0.48517594377E+02  0.63578048824E+02  0.41800000000E+01 0.  1.
         -5    1    3    3    0  502  0.19427805067E+02 -0.63745662376E+02 -0.15077492349E+02  0.68452554788E+02  0.41800000000E+01 0.  1.
        -11    1    1    2    0    0  0.39812156855E+02  0.15203668852E+02  0.59564147010E+02  0.73239654485E+02  0.00000000000E+00 0.  1.
         11    1    1    2    0    0 -0.45844938742E+02  0.99244808888E+01  0.79219740674E+02  0.92065308567E+02  0.00000000000E+00 0. -1.
</event>
<event>
 7    1  0.2842702E-009  0.1094601E+03  0.7561462E-02  0.1261573E+00
         -1   -1    0    0    0  501 -0.00000000000E+00  0.00000000000E+00  0.39572392258E+02  0.39572392258E+02  0.00000000000E+00 0.  1.
          1   -1    0    0  501    0  0.00000000000E+00 -0.00000000000E+00 -0.46832254054E+03  0.46832254054E+03  0.00000000000E+00 0. -1.
         25    2    1    2    0    0  0.70945289348E+02  0.17579233610E+02 -0.24214141241E+03  0.28217502404E+03  0.12509203433E+03 0.  0.
          5    1    3    3  502    0  0.10474047936E+03  0.17947438392E+02 -0.14945991943E+03  0.18343505248E+03  0.41800000000E+01 0. -1.
         -5    1    3    3    0  502 -0.33795190015E+02 -0.36820478188E+00 -0.92681492982E+02  0.98739971563E+02  0.41800000000E+01 0. -1.
        -11    1    1    2    0    0 -0.33284844574E+02  0.63657542530E+01 -0.40357215838E-01  0.33888129695E+02  0.00000000000E+00 0.  1.
         11    1    1    2    0    0 -0.37660444774E+02 -0.23944987863E+02 -0.18656837866E+03  0.19183177906E+03  0.00000000000E+00 0. -1.
</event>
<event>
 7    1  0.2842702E-009  0.1548480E+03  0.7561462E-02  0.1194639E+00
         -2   -1    0    0    0  501 -0.00000000000E+00  0.00000000000E+00  0.15865590874E+03  0.15865590874E+03  0.00000000000E+00 0.  1.
          2   -1    0    0  501    0  0.00000000000E+00 -0.00000000000E+00 -0.17742568083E+03  0.17742568083E+03  0.00000000000E+00 0. -1.
         25    2    1    2    0    0 -0.12221014926E+03 -0.13244790377E+02 -0.45232186028E+02  0.18111975868E+03  0.12509065224E+03 0.  0.
          5    1    3    3  502    0 -0.27051379962E+02  0.51745206411E+02 -0.40589057677E+01  0.58679559136E+02  0.41800000000E+01 0. -1.
         -5    1    3    3    0  502 -0.95158769293E+02 -0.64989996788E+02 -0.41173280260E+02  0.12244019954E+03  0.41800000000E+01 0. -1.
        -11    1    1    2    0    0  0.95039697252E+02  0.34752497044E+02  0.50196846749E+02  0.11296018559E+03  0.00000000000E+00 0.  1.
         11    1    1    2    0    0  0.27170452004E+02 -0.21507706667E+02 -0.23734432806E+02  0.42001645310E+02  0.00000000000E+00 0. -1.
</event>
<event>
 7    1  0.2842702E-009  0.9834395E+02  0.7561462E-02  0.1283817E+00
          2   -1    0    0  501    0  0.00000000000E+00  0.00000000000E+00  0.25794655917E+03  0.25794655917E+03  0.00000000000E+00 0. -1.
         -2   -1    0    0    0  501 -0.00000000000E+00 -0.00000000000E+00 -0.53399352357E+02  0.53399352357E+02  0.00000000000E+00 0.  1.
         25    2    1    2    0    0 -0.22435241807E+02  0.25665378350E+02  0.15239506803E+03  0.20008561989E+03  0.12509175354E+03 0.  0.
          5    1    3    3  502    0  0.30447612225E+02  0.35249569628E+02  0.13588506203E+03  0.14370738232E+03  0.41800000000E+01 0. -1.
         -5    1    3    3    0  502 -0.52882854033E+02 -0.95841912786E+01  0.16510006001E+02  0.56378237568E+02  0.41800000000E+01 0. -1.
        -11    1    1    2    0    0  0.17774934353E+02  0.32830776902E+02  0.32133380774E+02  0.49258119769E+02  0.00000000000E+00 0.  1.
         11    1    1    2    0    0  0.46603074541E+01 -0.58496155252E+02  0.20018758007E+02  0.62002171873E+02  0.00000000000E+00 0. -1.
</event>
<event>
 7    1  0.2842702E-009  0.1024595E+03  0.7561462E-02  0.1275207E+00
         -2   -1    0    0    0  501 -0.00000000000E+00  0.00000000000E+00  0.97312901017E+02  0.97312901017E+02  0.00000000000E+00 0.  1.
          2   -1    0    0  501    0  0.00000000000E+00 -0.00000000000E+00 -0.18096911242E+03  0.18096911242E+03  0.00000000000E+00 0. -1.
         25    2    1    2    0    0  0.13152078411E+02 -0.55601602617E+01 -0.12080962888E+03  0.17448675734E+03  0.12508704772E+03 0.  0.
          5    1    3    3  502    0 -0.34947286696E+02 -0.47834738649E+02 -0.41427191433E+02  0.72409665508E+02  0.41800000000E+01 0.  1.
         -5    1    3    3    0  502  0.48099365107E+02  0.42274578387E+02 -0.79382437449E+02  0.10207709183E+03  0.41800000000E+01 0.  1.
        -11    1    1    2    0    0  0.34007664385E+02  0.24585300678E+01  0.44399814026E+02  0.55981328070E+02  0.00000000000E+00 0.  1.
         11    1    1    2    0    0 -0.47159742795E+02  0.31016301938E+01 -0.72463965469E+01  0.47813928026E+02  0.00000000000E+00 0. -1.
</event>
<event>
 7    1  0.2842702E-009  0.1017790E+03  0.7561462E-02  0.1276599E+00
         -1   -1    0    0    0  501 -0.00000000000E+00  0.00000000000E+00  0.22764889909E+02  0.22764889909E+02  0.00000000000E+00 0.  1.
          1   -1    0    0  501    0  0.00000000000E+00 -0.00000000000E+00 -0.51782580511E+03  0.51782580511E+03  0.00000000000E+00 0. -1.
         25    2    1    2    0    0 -0.20371153747E+02 -0.44661687634E+01 -0.27082977048E+03  0.29905075847E+03  0.12509061114E+03 0.  0.
          5    1    3    3  502    0  0.27809390207E+02  0.46360394721E+02 -0.89790447063E+02  0.10489254104E+03  0.41800000000E+01 0. -1.
         -5    1    3    3    0  502 -0.48180543954E+02 -0.50826563485E+02 -0.18103932341E+03  0.19415821743E+03  0.41800000000E+01 0. -1.
        -11    1    1    2    0    0  0.40478515471E+02 -0.21896447422E+02 -0.69915902013E+02  0.83703034465E+02  0.00000000000E+00 0.  1.
         11    1    1    2    0    0 -0.20107361723E+02  0.26362616185E+02 -0.15431524271E+03  0.15783690208E+03  0.00000000000E+00 0. -1.
</event>
<event>
 7    1  0.2842702E-009  0.1654197E+03  0.7561462E-02  0.1182710E+00
         -1   -1    0    0    0  501 -0.00000000000E+00  0.00000000000E+00  0.20898475795E+03  0.20898475795E+03  0.00000000000E+00 0.  1.
          1   -1    0    0  501    0  0.00000000000E+00 -0.00000000000E+00 -0.15986618195E+03  0.15986618195E+03  0.00000000000E+00 0. -1.
         25    2    1    2    0    0 -0.14168133244E+03  0.69876482400E+01 -0.14006478019E+02  0.18964816245E+03  0.12509123432E+03 0.  0.
          5    1    3    3  502    0  0.12816797989E+02  0.29583881662E+02 -0.72214462602E+01  0.33303123742E+02  0.41800000000E+01 0. -1.
         -5    1    3    3    0  502 -0.15449813043E+03 -0.22596233422E+02 -0.67850317590E+01  0.15634503871E+03  0.41800000000E+01 0. -1.
        -11    1    1    2    0    0  0.24000859603E+02  0.21453520867E+01  0.55987533816E+02  0.60952832092E+02  0.00000000000E+00 0.  1.
         11    1    1    2    0    0  0.11768047284E+03 -0.91330003267E+01  0.71375202096E+01  0.11824994536E+03  0.00000000000E+00 0. -1.
</event>
<event>
 7    1  0.2842702E-009  0.2221149E+03  0.7561462E-02  0.1132316E+00
          2   -1    0    0  501    0  0.00000000000E+00  0.00000000000E+00  0.23784141371E+04  0.23784141371E+04  0.00000000000E+00 0. -1.
         -2   -1    0    0    0  501 -0.00000000000E+00 -0.00000000000E+00 -0.24402666050E+02  0.24402666050E+02  0.00000000000E+00 0.  1.
         25    2    1    2    0    0  0.65394239603E+02 -0.19370432734E+03  0.15310143130E+04  0.15496609982E+04  0.12508640985E+03 0.  0.
          5    1    3    3  502    0  0.29611001699E+02 -0.95950021262E-01  0.81175800232E+02  0.86508979715E+02  0.41800000000E+01 0.  1.
         -5    1    3    3    0  502  0.35783237904E+02 -0.19360837732E+03  0.14498385127E+04  0.14631520185E+04  0.41800000000E+01 0.  1.
        -11    1    1    2    0    0 -0.36369927781E+02  0.20450499824E+02  0.87050498776E+02  0.96533848607E+02  0.00000000000E+00 0.  1.
         11    1    1    2    0    0 -0.29024311823E+02  0.17325382751E+03  0.73594665931E+03  0.75662195631E+03  0.00000000000E+00 0. -1.
</event>
<event>
 7    1  0.2842702E-009  0.1504747E+03  0.7561462E-02  0.1199891E+00
         -2   -1    0    0    0  501 -0.00000000000E+00  0.00000000000E+00  0.12668627421E+03  0.12668627421E+03  0.00000000000E+00 0. -1.
          2   -1    0    0  501    0  0.00000000000E+00 -0.00000000000E+00 -0.31772009833E+03  0.31772009833E+03  0.00000000000E+00 0.  1.
         25    2    1    2    0    0 -0.72519019864E+02 -0.98021511545E+02 -0.22600922330E+03  0.28564794582E+03  0.12508938790E+03 0.  0.
          5    1    3    3  502    0 -0.38018299508E+02  0.14284904404E+02 -0.13883233937E+02  0.43123846951E+02  0.41800000000E+01 0.  1.
         -5    1    3    3    0  502 -0.34500720356E+02 -0.11230641595E+03 -0.21212598936E+03  0.24252409887E+03  0.41800000000E+01 0.  1.
        -11    1    1    2    0    0  0.54362125215E+02  0.10867197878E+03  0.43400439007E+01  0.12158813927E+03  0.00000000000E+00 0.  1.
         11    1    1    2    0    0  0.18156894649E+02 -0.10650467238E+02  0.30635355287E+02  0.37170287451E+02  0.00000000000E+00 0. -1.
</event>
<event>
 7    1  0.2842702E-009  0.1907596E+03  0.7561462E-02  0.1157778E+00
          1   -1    0    0  501    0  0.00000000000E+00  0.00000000000E+00  0.53356927526E+03  0.53356927526E+03  0.00000000000E+00 0. -1.
         -1   -1    0    0    0  501 -0.00000000000E+00 -0.00000000000E+00 -0.77222149780E+02  0.77222149780E+02  0.00000000000E+00 0.  1.
         25    2    1    2    0    0 -0.42590185696E+02 -0.16527975155E+03  0.26001433707E+03  0.33523891144E+03  0.12508537911E+03 0.  0.
          5    1    3    3  502    0 -0.51369172957E+02 -0.18918029043E+02  0.12221677221E+03  0.13398169861E+03  0.41800000000E+01 0.  1.
         -5    1    3    3    0  502  0.87789872611E+01 -0.14636172251E+03  0.13779756486E+03  0.20125721283E+03  0.41800000000E+01 0.  1.
        -11    1    1    2    0    0  0.56681996330E+02  0.12473582105E+03  0.98575095380E+02  0.16878662030E+03  0.00000000000E+00 0.  1.
         11    1    1    2    0    0 -0.14091810634E+02  0.40543930500E+02  0.97757693031E+02  0.10676589331E+03  0.00000000000E+00 0. -1.
</event>
<event>
 7    1  0.2842702E-009  0.8664957E+02  0.7561462E-02  0.1311174E+00
          2   -1    0    0  501    0  0.00000000000E+00  0.00000000000E+00  0.55705496661E+03  0.55705496661E+03  0.00000000000E+00 0. -1.
         -2   -1    0    0    0  501 -0.00000000000E+00 -0.00000000000E+00 -0.21609964847E+02  0.21609964847E+02  0.00000000000E+00 0.  1.
         25    2    1    2    0    0  0.10395828191E+02 -0.56894238922E+01  0.35049311038E+03  0.37233501318E+03  0.12508996292E+03 0.  0.
          5    1    3    3  502    0 -0.34756903854E+02 -0.35411801382E+02  0.27451800003E+03  0.27899756770E+03  0.41800000000E+01 0.  1.
         -5    1    3    3    0  502  0.45152732045E+02  0.29722377490E+02  0.75975110357E+02  0.93337445479E+02  0.41800000000E+01 0.  1.
        -11    1    1    2    0    0 -0.10229683487E+02  0.36789522930E+02  0.30762237997E+02  0.49034994731E+02  0.00000000000E+00 0.  1.
         11    1    1    2    0    0 -0.16614470454E+00 -0.31100099038E+02  0.15418965339E+03  0.15729492355E+03  0.00000000000E+00 0. -1.
</event>
<event>
 7    1  0.2842702E-009  0.1199426E+03  0.7561462E-02  0.1243192E+00
          1   -1    0    0  501    0  0.00000000000E+00  0.00000000000E+00  0.58133927737E+03  0.58133927737E+03  0.00000000000E+00 0. -1.
         -1   -1    0    0    0  501 -0.00000000000E+00 -0.00000000000E+00 -0.42380597092E+02  0.42380597092E+02  0.00000000000E+00 0.  1.
         25    2    1    2    0    0  0.94448831246E+01 -0.84777237035E+02  0.14392115117E+03  0.20889310200E+03  0.12508654832E+03 0.  0.
          5    1    3    3  502    0  0.35307332004E+02 -0.80279935192E+02  0.15652986703E+03  0.17947297111E+03  0.41800000000E+01 0.  1.
         -5    1    3    3    0  502 -0.25862448879E+02 -0.44973018428E+01 -0.12608715854E+02  0.29420130886E+02  0.41800000000E+01 0.  1.
        -11    1    1    2    0    0 -0.26130005998E+02  0.99731264565E+02  0.34328481310E+03  0.35843209294E+03  0.00000000000E+00 0. -1.
         11    1    1    2    0    0  0.16685122874E+02 -0.14954027530E+02  0.51752716002E+02  0.56394679521E+02  0.00000000000E+00 0.  1.
</event>
<event>
 7    1  0.2842702E-009  0.1210646E+03  0.7561462E-02  0.1241351E+00
          2   -1    0    0  501    0  0.00000000000E+00  0.00000000000E+00  0.66888336076E+03  0.66888336076E+03  0.00000000000E+00 0. -1.
         -2   -1    0    0    0  501 -0.00000000000E+00 -0.00000000000E+00 -0.24565576802E+02  0.24565576802E+02  0.00000000000E+00 0.  1.
         25    2    1    2    0    0  0.13451364512E+02 -0.61982275219E+02  0.29332775903E+03  0.32513361750E+03  0.12509177975E+03 0.  0.
          5    1    3    3  502    0  0.64733875990E+02 -0.53174245171E+02  0.14045637940E+03  0.16359536046E+03  0.41800000000E+01 0.  1.
         -5    1    3    3    0  502 -0.51282511477E+02 -0.88080300480E+01  0.15287137963E+03  0.16153825704E+03  0.41800000000E+01 0.  1.
        -11    1    1    2    0    0 -0.21846740713E+02 -0.16338942957E+02  0.47570519571E+02  0.54837901756E+02  0.00000000000E+00 0.  1.
         11    1    1    2    0    0  0.83953762005E+01  0.78321218176E+02  0.30341950536E+03  0.31347741831E+03  0.00000000000E+00 0. -1.
</event>
<event>
 7    1  0.2842702E-009  0.1264515E+03  0.7561462E-02  0.1232818E+00
         -2   -1    0    0    0  501 -0.00000000000E+00  0.00000000000E+00  0.22876165662E+02  0.22876165662E+02  0.00000000000E+00 0.  1.
          2   -1    0    0  501    0  0.00000000000E+00 -0.00000000000E+00 -0.10371632032E+04  0.10371632032E+04  0.00000000000E+00 0. -1.
         25    2    1    2    0    0  0.94552560138E+02 -0.15462857936E+02 -0.73274988227E+03  0.74949930903E+03  0.12509011815E+03 0.  0.
          5    1    3    3  502    0  0.42048021905E+02  0.46361676572E+02 -0.17575025039E+03  0.18660938914E+03  0.41800000000E+01 0. -1.
         -5    1    3    3    0  502  0.52504538233E+02 -0.61824534509E+02 -0.55699963188E+03  0.56288991989E+03  0.41800000000E+01 0. -1.
        -11    1    1    2    0    0 -0.54605741251E+02  0.34616979419E+02 -0.73726757807E+02  0.98059966645E+02  0.00000000000E+00 0.  1.
         11    1    1    2    0    0 -0.39946818887E+02 -0.19154121483E+02 -0.20781039742E+03  0.21248009315E+03  0.00000000000E+00 0. -1.
</event>
<event>
 7    1  0.2842702E-009  0.2553056E+03  0.7561462E-02  0.1109997E+00
          2   -1    0    0  501    0  0.00000000000E+00  0.00000000000E+00  0.25943433162E+04  0.25943433162E+04  0.00000000000E+00 0. -1.
         -2   -1    0    0    0  501 -0.00000000000E+00 -0.00000000000E+00 -0.36214701492E+02  0.36214701492E+02  0.00000000000E+00 0.  1.
         25    2    1    2    0    0  0.17121283339E+03 -0.15970712074E+03  0.20108286069E+04  0.20282753704E+04  0.12509633595E+03 0.  0.
          5    1    3    3  502    0  0.54276017824E+02  0.78275807104E+01  0.63164406749E+03  0.63403379841E+03  0.41800000000E+01 0. -1.
         -5    1    3    3    0  502  0.11693681557E+03 -0.16753470145E+03  0.13791845394E+04  0.13942415720E+04  0.41800000000E+01 0. -1.
        -11    1    1    2    0    0 -0.69511044549E+02  0.12638897783E+03  0.32432971566E+03  0.35495876308E+03  0.00000000000E+00 0. -1.
         11    1    1    2    0    0 -0.10170178885E+03  0.33318142912E+02  0.22297029221E+03  0.24732388423E+03  0.00000000000E+00 0.  1.
</event>
<event>
 7    1  0.2842702E-009  0.1195828E+03  0.7561462E-02  0.1243787E+00
          1   -1    0    0  501    0  0.00000000000E+00  0.00000000000E+00  0.38484439373E+03  0.38484439373E+03  0.00000000000E+00 0. -1.
         -1   -1    0    0    0  501 -0.00000000000E+00 -0.00000000000E+00 -0.40638553752E+02  0.40638553752E+02  0.00000000000E+00 0.  1.
         25    2    1    2    0    0 -0.40466226493E+02  0.28952985800E+02  0.13277194392E+03  0.18907721620E+03  0.12508402664E+03 0.  0.
          5    1    3    3  502    0 -0.24205230387E+02 -0.48981051202E+02  0.57683495506E+02  0.79560634793E+02  0.41800000000E+01 0. -1.
         -5    1    3    3    0  502 -0.16260996106E+02  0.77934037001E+02  0.75088448415E+02  0.10951658141E+03  0.41800000000E+01 0. -1.
        -11    1    1    2    0    0 -0.20335839166E+02 -0.38075454173E+02  0.70826325062E+02  0.82943685033E+02  0.00000000000E+00 0.  1.
         11    1    1    2    0    0  0.60802065659E+02  0.91224683733E+01  0.14060757100E+03  0.15346204625E+03  0.00000000000E+00 0. -1.
</event>
<event>
 7    1  0.2842702E-009  0.1469326E+03  0.7561462E-02  0.1204294E+00
          2   -1    0    0  501    0  0.00000000000E+00  0.00000000000E+00  0.97375447153E+02  0.97375447153E+02  0.00000000000E+00 0. -1.
         -2   -1    0    0    0  501 -0.00000000000E+00 -0.00000000000E+00 -0.26636554054E+03  0.26636554054E+03  0.00000000000E+00 0.  1.
         25    2    1    2    0    0 -0.93177461028E+02  0.82358184663E+02 -0.11053079206E+03  0.20815764998E+03  0.12509053293E+03 0.  0.
          5    1    3    3  502    0 -0.24514489671E+02  0.88207647359E+02 -0.19143673942E+02  0.93624259187E+02  0.41800000000E+01 0. -1.
         -5    1    3    3    0  502 -0.68662971357E+02 -0.58494626958E+01 -0.91387118115E+02  0.11453339079E+03  0.41800000000E+01 0. -1.
        -11    1    1    2    0    0  0.85403034484E+01  0.62975236771E+01  0.10515636862E+02  0.14939016235E+02  0.00000000000E+00 0. -1.
         11    1    1    2    0    0  0.84637157579E+02 -0.88655708340E+02 -0.68974938188E+02  0.14064432147E+03  0.00000000000E+00 0.  1.
</event>
<event>
 7    1  0.2842702E-009  0.7987681E+02  0.7561462E-02  0.1329401E+00
         -1   -1    0    0    0  501 -0.00000000000E+00  0.00000000000E+00  0.29481132409E+02  0.29481132409E+02  0.00000000000E+00 0.  1.
          1   -1    0    0  501    0  0.00000000000E+00 -0.00000000000E+00 -0.46543403451E+03  0.46543403451E+03  0.00000000000E+00 0. -1.
         25    2    1    2    0    0  0.52952564423E+01  0.42743030268E+02 -0.24868419465E+03  0.28168508596E+03  0.12509057759E+03 0.  0.
          5    1    3    3  502    0 -0.18716921232E+02  0.21026137307E+02 -0.24738285148E+03  0.24901439556E+03  0.41800000000E+01 0.  1.
         -5    1    3    3    0  502  0.24012177674E+02  0.21716892961E+02 -0.13013431706E+01  0.32670690390E+02  0.41800000000E+01 0.  1.
        -11    1    1    2    0    0  0.38719608635E+02 -0.38216504416E+02 -0.75815556818E+02  0.93315100377E+02  0.00000000000E+00 0.  1.
         11    1    1    2    0    0 -0.44014865077E+02 -0.45265258520E+01 -0.11145315063E+03  0.11991498059E+03  0.00000000000E+00 0. -1.
</event>
<event>
 7    1  0.2842702E-009  0.1868025E+03  0.7561462E-02  0.1161377E+00
         -1   -1    0    0    0  501 -0.00000000000E+00  0.00000000000E+00  0.79405601301E+02  0.79405601301E+02  0.00000000000E+00 0.  1.
          1   -1    0    0  501    0  0.00000000000E+00 -0.00000000000E+00 -0.73774793433E+03  0.73774793433E+03  0.00000000000E+00 0. -1.
         25    2    1    2    0    0 -0.14752205512E+03  0.40980919629E+02 -0.59659954273E+03  0.62850661460E+03  0.12508939879E+03 0.  0.
          5    1    3    3  502    0 -0.14660260925E+03 -0.73327950150E+01 -0.40288433605E+03  0.42881156183E+03  0.41800000000E+01 0.  1.
         -5    1    3    3    0  502 -0.91944587518E+00  0.48313714644E+02 -0.19371520668E+03  0.19969505277E+03  0.41800000000E+01 0.  1.
        -11    1    1    2    0    0  0.26941463517E+02 -0.50566332190E+02 -0.19738945392E+02  0.60600514625E+02  0.00000000000E+00 0. -1.
         11    1    1    2    0    0  0.12058059161E+03  0.95854125611E+01 -0.42003844905E+02  0.12804640640E+03  0.00000000000E+00 0.  1.
</event>
<event>
 7    1  0.2842702E-009  0.1086470E+03  0.7561462E-02  0.1263096E+00
          1   -1    0    0  501    0  0.00000000000E+00  0.00000000000E+00  0.60376336726E+03  0.60376336726E+03  0.00000000000E+00 0. -1.
         -1   -1    0    0    0  501 -0.00000000000E+00 -0.00000000000E+00 -0.22846673980E+02  0.22846673980E+02  0.00000000000E+00 0.  1.
         25    2    1    2    0    0  0.13794856691E+02  0.60635708308E+01  0.44471488983E+03  0.46221697834E+03  0.12508451890E+03 0.  0.
          5    1    3    3  502    0 -0.19320657330E+02 -0.53494996040E+02  0.17866009543E+03  0.18754174068E+03  0.41800000000E+01 0. -1.
         -5    1    3    3    0  502  0.33115514021E+02  0.59558566871E+02  0.26605479440E+03  0.27467523766E+03  0.41800000000E+01 0. -1.
        -11    1    1    2    0    0  0.27567969835E+02 -0.32716879039E+02  0.60257661318E+02  0.73901102038E+02  0.00000000000E+00 0. -1.
         11    1    1    2    0    0 -0.41362826526E+02  0.26653308208E+02  0.75944142136E+02  0.90491960866E+02  0.00000000000E+00 0.  1.
</event>
<event>
 7    1  0.2842702E-009  0.1250021E+03  0.7561462E-02  0.1235066E+00
          2   -1    0    0  501    0  0.00000000000E+00  0.00000000000E+00  0.54801354941E+02  0.54801354941E+02  0.00000000000E+00 0. -1.
         -2   -1    0    0    0  501 -0.00000000000E+00 -0.00000000000E+00 -0.42111714385E+03  0.42111714385E+03  0.00000000000E+00 0.  1.
         25    2    1    2    0    0 -0.77197871256E+02 -0.37137784844E+02 -0.29664985015E+03  0.33314914326E+03  0.12509393141E+03 0.  0.
          5    1    3    3  502    0 -0.79063003665E+02  0.25649043204E+02 -0.21125799234E+03  0.22706000021E+03  0.41800000000E+01 0. -1.
         -5    1    3    3    0  502  0.18651324099E+01 -0.62786828047E+02 -0.85391857802E+02  0.10608914305E+03  0.41800000000E+01 0. -1.
        -11    1    1    2    0    0  0.69465594139E+02  0.52201904344E+02 -0.18455246881E+02  0.88831884612E+02  0.00000000000E+00 0. -1.
         11    1    1    2    0    0  0.77322771164E+01 -0.15064119500E+02 -0.51210691883E+02  0.53937470916E+02  0.00000000000E+00 0.  1.
</event>
<event>
 7    1  0.2842702E-009  0.1118740E+03  0.7561462E-02  0.1257138E+00
          1   -1    0    0  501    0  0.00000000000E+00  0.00000000000E+00  0.98659035557E+02  0.98659035557E+02  0.00000000000E+00 0.  1.
         -1   -1    0    0    0  501 -0.00000000000E+00 -0.00000000000E+00 -0.21221996338E+03  0.21221996338E+03  0.00000000000E+00 0. -1.
         25    2    1    2    0    0 -0.77945174723E+01  0.58161180245E+02 -0.14148599497E+03  0.19776151013E+03  0.12509136951E+03 0.  0.
          5    1    3    3  502    0  0.39520886476E+02 -0.17236256521E+02 -0.74883285905E+02  0.86509929573E+02  0.41800000000E+01 0. -1.
         -5    1    3    3    0  502 -0.47315403949E+02  0.75397436767E+02 -0.66602709067E+02  0.11125158056E+03  0.41800000000E+01 0. -1.
        -11    1    1    2    0    0  0.21506398278E+02  0.86004951451E+01  0.37718102691E+02  0.44262274617E+02  0.00000000000E+00 0.  1.
         11    1    1    2    0    0 -0.13711880806E+02 -0.66761675390E+02 -0.97930355434E+01  0.68855214191E+02  0.00000000000E+00 0. -1.
</event>
<event>
 7    1  0.2842702E-009  0.1079583E+03  0.7561462E-02  0.1264398E+00
          2   -1    0    0  501    0  0.00000000000E+00  0.00000000000E+00  0.20742272859E+03  0.20742272859E+03  0.00000000000E+00 0. -1.
         -2   -1    0    0    0  501 -0.00000000000E+00 -0.00000000000E+00 -0.12345259128E+03  0.12345259128E+03  0.00000000000E+00 0.  1.
         25    2    1    2    0    0  0.92223652772E+02 -0.21220613559E+02 -0.23029793107E+02  0.15853422219E+03  0.12508881511E+03 0.  0.
          5    1    3    3  502    0  0.13060762591E+02 -0.27820158085E+02  0.44462976757E+02  0.54212299503E+02  0.41800000000E+01 0. -1.
         -5    1    3    3    0  502  0.79162890181E+02  0.65995445265E+01 -0.67492769864E+02  0.10432192269E+03  0.41800000000E+01 0. -1.
        -11    1    1    2    0    0 -0.34160674976E+02 -0.14577659323E+02 -0.85935842219E+01  0.38122297359E+02  0.00000000000E+00 0.  1.
         11    1    1    2    0    0 -0.58062977796E+02  0.35798272882E+02  0.11559351464E+03  0.13421880032E+03  0.00000000000E+00 0. -1.
</event>
<event>
 7    1  0.2842702E-009  0.2395670E+03  0.7561462E-02  0.1120082E+00
          1   -1    0    0  501    0  0.00000000000E+00  0.00000000000E+00  0.10543967588E+03  0.10543967588E+03  0.00000000000E+00 0.  1.
         -1   -1    0    0    0  501 -0.00000000000E+00 -0.00000000000E+00 -0.67121763243E+03  0.67121763243E+03  0.00000000000E+00 0. -1.
         25    2    1    2    0    0 -0.16114321390E+03  0.16446450176E+03 -0.17842344502E+03  0.31701811112E+03  0.12509935781E+03 0.  0.
          5    1    3    3  502    0 -0.85409651009E+01 -0.74892361551E+01  0.13046188102E+02  0.17796408824E+02  0.41800000000E+01 0.  1.
         -5    1    3    3    0  502 -0.15260224879E+03  0.17195373792E+03 -0.19146963312E+03  0.29922170230E+03  0.41800000000E+01 0.  1.
        -11    1    1    2    0    0  0.86861141836E+02 -0.48815344658E+02 -0.23031214889E+03  0.25094119184E+03  0.00000000000E+00 0. -1.
         11    1    1    2    0    0  0.74282072060E+02 -0.11564915711E+03 -0.15704236264E+03  0.20869800534E+03  0.00000000000E+00 0.  1.
</event>
<event>
 7    1  0.2842702E-009  0.1128174E+03  0.7561462E-02  0.1255440E+00
         -2   -1    0    0    0  501 -0.00000000000E+00  0.00000000000E+00  0.24589594097E+02  0.24589594097E+02  0.00000000000E+00 0. -1.
          2   -1    0    0  501    0  0.00000000000E+00 -0.00000000000E+00 -0.70836744044E+03  0.70836744044E+03  0.00000000000E+00 0.  1.
         25    2    1    2    0    0  0.76824170663E+02  0.18030666908E+02 -0.38087218289E+03  0.40858020519E+03  0.12508839365E+03 0.  0.
          5    1    3    3  502    0  0.64144522791E+02  0.68831330992E+02 -0.21877785640E+03  0.23818794004E+03  0.41800000000E+01 0.  1.
         -5    1    3    3    0  502  0.12679647872E+02 -0.50800664084E+02 -0.16209432649E+03  0.17039226515E+03  0.41800000000E+01 0.  1.
        -11    1    1    2    0    0 -0.23822021446E+02 -0.47891564394E+01 -0.97624680844E+01  0.26186456581E+02  0.00000000000E+00 0. -1.
         11    1    1    2    0    0 -0.53002149217E+02 -0.13241510469E+02 -0.29314319537E+03  0.29819037277E+03  0.00000000000E+00 0.  1.
</event>
<event>
 7    1  0.2842702E-009  0.1387375E+03  0.7561462E-02  0.1215038E+00
          2   -1    0    0  501    0  0.00000000000E+00  0.00000000000E+00  0.11730673958E+04  0.11730673958E+04  0.00000000000E+00 0. -1.
         -2   -1    0    0    0  501 -0.00000000000E+00 -0.00000000000E+00 -0.20666153646E+02  0.20666153646E+02  0.00000000000E+00 0.  1.
         25    2    1    2    0    0 -0.30735634728E+02 -0.10430537704E+03  0.66974276838E+03  0.68994703959E+03  0.12508897122E+03 0.  0.
          5    1    3    3  502    0 -0.18296040870E+02  0.17033909939E+02  0.28927808465E+03  0.29038626320E+03  0.41800000000E+01 0.  1.
         -5    1    3    3    0  502 -0.12439593858E+02 -0.12133928698E+03  0.38046468373E+03  0.39956077638E+03  0.41800000000E+01 0.  1.
        -11    1    1    2    0    0  0.49807399782E+02  0.42740496854E+02  0.35234738935E+03  0.35840788207E+03  0.00000000000E+00 0. -1.
         11    1    1    2    0    0 -0.19071765054E+02  0.61564880185E+02  0.13031108443E+03  0.14537862779E+03  0.00000000000E+00 0.  1.
</event>
<event>
 7    1  0.2842702E-009  0.1189172E+03  0.7561462E-02  0.1244894E+00
          1   -1    0    0  501    0  0.00000000000E+00  0.00000000000E+00  0.67237381693E+03  0.67237381693E+03  0.00000000000E+00 0. -1.
         -1   -1    0    0    0  501 -0.00000000000E+00 -0.00000000000E+00 -0.30161780805E+02  0.30161780805E+02  0.00000000000E+00 0.  1.
         25    2    1    2    0    0 -0.66707858270E+02 -0.12309205364E+02  0.47902013873E+03  0.49970977689E+03  0.12509241748E+03 0.  0.
          5    1    3    3  502    0 -0.67127074398E+02  0.38166199705E+02  0.17260427454E+03  0.18913595879E+03  0.41800000000E+01 0. -1.
         -5    1    3    3    0  502  0.41921612748E+00 -0.50475405068E+02  0.30641586419E+03  0.31057381810E+03  0.41800000000E+01 0. -1.
        -11    1    1    2    0    0  0.18807858960E+02 -0.36752737049E+02  0.10524128729E+03  0.11304966957E+03  0.00000000000E+00 0. -1.
         11    1    1    2    0    0  0.47899999310E+02  0.49061942413E+02  0.57950610098E+02  0.89776151276E+02  0.00000000000E+00 0.  1.
</event>
<event>
 7    1  0.4409972E-009  0.9482509E+02  0.7561462E-02  0.1291571E+00
          1   -1    0    0  501    0  0.00000000000E+00  0.00000000000E+00  0.47720534321E+03  0.47720534321E+03  0.00000000000E+00 0. -1.
         -1   -1    0    0    0  501 -0.00000000000E+00 -0.00000000000E+00 -0.36021021457E+02  0.36021021457E+02  0.00000000000E+00 0.  1.
         25    2    1    2    0    0  0.22019391734E+02 -0.42488415782E+02  0.13573390280E+03  0.19071246210E+03  0.12512965972E+03 0.  0.
          5    1    3    3  502    0  0.82658962679E+01 -0.79445875079E+02  0.12703062921E+03  0.15011404087E+03  0.41800000000E+01 0. -1.
         -5    1    3    3    0  502  0.13753495466E+02  0.36957459296E+02  0.87032735898E+01  0.40598421230E+02  0.41800000000E+01 0. -1.
        -11    1    1    2    0    0  0.16811410868E+02  0.12521863429E+02  0.10374459366E+02  0.23389100159E+02  0.00000000000E+00 0.  1.
         11    1    1    2    0    0 -0.38830802603E+02  0.29966552353E+02  0.29507595958E+03  0.29912480241E+03  0.00000000000E+00 0. -1.
</event>
<event>
 7    1  0.2842702E-009  0.1217091E+03  0.7561462E-02  0.1240304E+00
          2   -1    0    0  501    0  0.00000000000E+00  0.00000000000E+00  0.19029061589E+04  0.19029061589E+04  0.00000000000E+00 0.  1.
         -2   -1    0    0    0  501 -0.00000000000E+00 -0.00000000000E+00 -0.11310055618E+02  0.11310055618E+02  0.00000000000E+00 0. -1.
         25    2    1    2    0    0  0.31571347243E+02 -0.57993211981E+02  0.14837383551E+04  0.14904654032E+04  0.12509056326E+03 0.  0.
          5    1    3    3  502    0 -0.32223171536E+02 -0.65205135312E+02  0.60402642473E+03  0.60840400773E+03  0.41800000000E+01 0. -1.
         -5    1    3    3    0  502  0.63794518779E+02  0.72119233306E+01  0.87971193037E+03  0.88206139543E+03  0.41800000000E+01 0. -1.
        -11    1    1    2    0    0 -0.54595534641E+02  0.13668130769E+02  0.13341835284E+03  0.14480313214E+03  0.00000000000E+00 0. -1.
         11    1    1    2    0    0  0.23024187397E+02  0.44325081212E+02  0.27443939537E+03  0.27894767926E+03  0.00000000000E+00 0.  1.
</event>
<event>
 7    1  0.2842702E-009  0.2066365E+03  0.7561462E-02  0.1144258E+00
         -1   -1    0    0    0  501 -0.00000000000E+00  0.00000000000E+00  0.34191657347E+02  0.34191657347E+02  0.00000000000E+00 0.  1.
          1   -1    0    0  501    0  0.00000000000E+00 -0.00000000000E+00 -0.13256037300E+04  0.13256037300E+04  0.00000000000E+00 0. -1.
         25    2    1    2    0    0 -0.16676541837E+03 -0.73394641609E+02 -0.65013017645E+03  0.68666612982E+03  0.12507457508E+03 0.  0.
          5    1    3    3  502    0 -0.47992914101E+02  0.27012867779E+02 -0.27606134556E+03  0.28153215401E+03  0.41800000000E+01 0. -1.
         -5    1    3    3    0  502 -0.11877250427E+03 -0.10040750939E+03 -0.37406883089E+03  0.40513397581E+03  0.41800000000E+01 0. -1.
        -11    1    1    2    0    0  0.78691956784E+02 -0.12214499662E+02 -0.30111579561E+03  0.31146804078E+03  0.00000000000E+00 0. -1.
         11    1    1    2    0    0  0.88073461586E+02  0.85609141271E+02 -0.34016610063E+03  0.36166121678E+03  0.00000000000E+00 0.  1.
</event>
<event>
 7    1  0.2842702E-009  0.1336453E+03  0.7561462E-02  0.1222145E+00
         -3   -1    0    0    0  501 -0.00000000000E+00  0.00000000000E+00  0.11400233670E+03  0.11400233670E+03  0.00000000000E+00 0.  1.
          3   -1    0    0  501    0  0.00000000000E+00 -0.00000000000E+00 -0.27100310852E+03  0.27100310852E+03  0.00000000000E+00 0. -1.
         25    2    1    2    0    0 -0.36364999915E+02 -0.10411921611E+03 -0.17393958667E+03  0.24096828935E+03  0.12509001671E+03 0.  0.
          5    1    3    3  502    0 -0.37302510406E+01 -0.87830328478E+02 -0.30873771084E+02  0.93267054818E+02  0.41800000000E+01 0.  1.
         -5    1    3    3    0  502 -0.32634748874E+02 -0.16288887630E+02 -0.14306581558E+03  0.14770123453E+03  0.41800000000E+01 0.  1.
        -11    1    1    2    0    0 -0.26737513786E+01  0.10349067908E+03  0.17474583023E+02  0.10498966928E+03  0.00000000000E+00 0. -1.
         11    1    1    2    0    0  0.39038751293E+02  0.62853702465E+00 -0.53576817942E+00  0.39047486588E+02  0.00000000000E+00 0.  1.
</event>
<event>
 7    1  0.2842702E-009  0.1135437E+03  0.7561462E-02  0.1254145E+00
          1   -1    0    0  501    0  0.00000000000E+00  0.00000000000E+00  0.12485130636E+03  0.12485130636E+03  0.00000000000E+00 0. -1.
         -1   -1    0    0    0  501 -0.00000000000E+00 -0.00000000000E+00 -0.11199266986E+03  0.11199266986E+03  0.00000000000E+00 0.  1.
         25    2    1    2    0    0  0.45261705190E+02 -0.11041336945E+02 -0.40647965616E+01  0.13359905713E+03  0.12514652379E+03 0.  0.
          5    1    3    3  502    0  0.51747589862E+02 -0.59051923851E+02 -0.22197502874E+02  0.81701556294E+02  0.41800000000E+01 0. -1.
         -5    1    3    3    0  502 -0.64858846724E+01  0.48010586906E+02  0.18132706313E+02  0.51897500838E+02  0.41800000000E+01 0. -1.
        -11    1    1    2    0    0 -0.48558726226E+02 -0.31033569481E+02  0.19820667772E+02  0.60941703278E+02  0.00000000000E+00 0. -1.
         11    1    1    2    0    0  0.32970210363E+01  0.42074906426E+02 -0.28972347143E+01  0.42303215806E+02  0.00000000000E+00 0.  1.
</event>
<event>
 7    1  0.2842702E-009  0.1392487E+03  0.7561462E-02  0.1214343E+00
          1   -1    0    0  501    0  0.00000000000E+00  0.00000000000E+00  0.86777056924E+02  0.86777056924E+02  0.00000000000E+00 0. -1.
         -1   -1    0    0    0  501 -0.00000000000E+00 -0.00000000000E+00 -0.11165669274E+04  0.11165669274E+04  0.00000000000E+00 0.  1.
         25    2    1    2    0    0  0.12556801232E+03  0.33816006877E+02 -0.10293768139E+04  0.10450717571E+04  0.12508998480E+03 0.  0.
          5    1    3    3  502    0  0.62695298783E+02  0.21640056755E+02 -0.15896544955E+03  0.17229764681E+03  0.41800000000E+01 0.  1.
         -5    1    3    3    0  502  0.62872713540E+02  0.12175950122E+02 -0.87041136440E+03  0.87277411026E+03  0.41800000000E+01 0.  1.
        -11    1    1    2    0    0 -0.60886018441E+02 -0.52652759561E+02 -0.28348650326E+02  0.85340882971E+02  0.00000000000E+00 0.  1.
         11    1    1    2    0    0 -0.64681993882E+02  0.18836752684E+02  0.27935593766E+02  0.72931344313E+02  0.00000000000E+00 0. -1.
</event>
<event>
 7    1  0.2842702E-009  0.1119105E+03  0.7561462E-02  0.1257072E+00
          2   -1    0    0  501    0  0.00000000000E+00  0.00000000000E+00  0.18812910445E+03  0.18812910445E+03  0.00000000000E+00 0. -1.
         -2   -1    0    0    0  501 -0.00000000000E+00 -0.00000000000E+00 -0.68402384525E+02  0.68402384525E+02  0.00000000000E+00 0.  1.
         25    2    1    2    0    0 -0.95829073590E+01 -0.31299608252E+02  0.82068544393E+02  0.15315445395E+03  0.12509813426E+03 0.  0.
          5    1    3    3  502    0 -0.30220030671E+02 -0.74521499251E+02  0.59017724287E+02  0.99836207282E+02  0.41800000000E+01 0. -1.
         -5    1    3    3    0  502  0.20637123312E+02  0.43221891000E+02  0.23050820106E+02  0.53318246668E+02  0.41800000000E+01 0. -1.
        -11    1    1    2    0    0 -0.10822448848E+02  0.59463095565E+02  0.16436830505E+02  0.62635090247E+02  0.00000000000E+00 0.  1.
         11    1    1    2    0    0  0.20405356207E+02 -0.28163487313E+02  0.21221345028E+02  0.40741944779E+02  0.00000000000E+00 0. -1.
</event>
<event>
 7    1  0.2842702E-009  0.1245296E+03  0.7561462E-02  0.1235806E+00
          3   -1    0    0  501    0  0.00000000000E+00  0.00000000000E+00  0.98563465550E+03  0.98563465550E+03  0.00000000000E+00 0. -1.
         -3   -1    0    0    0  501 -0.00000000000E+00 -0.00000000000E+00 -0.18500469729E+02  0.18500469729E+02  0.00000000000E+00 0.  1.
         25    2    1    2    0    0  0.70284291911E+02 -0.30844114283E+02  0.61849424147E+03  0.63566614350E+03  0.12508028696E+03 0.  0.
          5    1    3    3  502    0 -0.31465241946E+02 -0.37243473782E+01  0.26138870689E+03  0.26333526294E+03  0.41800000000E+01 0.  1.
         -5    1    3    3    0  502  0.10174953386E+03 -0.27119766904E+02  0.35710553458E+03  0.37233088057E+03  0.41800000000E+01 0.  1.
        -11    1    1    2    0    0  0.91929698975E+01  0.30899328181E+02  0.16878648238E+03  0.17183758556E+03  0.00000000000E+00 0. -1.
         11    1    1    2    0    0 -0.79477261808E+02 -0.55213898573E-01  0.17985346192E+03  0.19663139617E+03  0.00000000000E+00 0.  1.
</event>
<event>
 7    1  0.2842702E-009  0.9881541E+02  0.7561462E-02  0.1282807E+00
         -2   -1    0    0    0  501 -0.00000000000E+00  0.00000000000E+00  0.28293103799E+02  0.28293103799E+02  0.00000000000E+00 0.  1.
          2   -1    0    0  501    0  0.00000000000E+00 -0.00000000000E+00 -0.96439001643E+03  0.96439001643E+03  0.00000000000E+00 0. -1.
         25    2    1    2    0    0 -0.92669907980E+02  0.18000609118E+02 -0.74144848685E+03  0.75783034779E+03  0.12509693681E+03 0.  0.
          5    1    3    3  502    0 -0.12744961068E+02  0.11549879038E+01 -0.54328996908E+03  0.54345674246E+03  0.41800000000E+01 0.  1.
         -5    1    3    3    0  502 -0.79924946912E+02  0.16845621214E+02 -0.19815851778E+03  0.21437360532E+03  0.41800000000E+01 0.  1.
        -11    1    1    2    0    0  0.11176389335E+02  0.11191223631E+02  0.55333082615E+01  0.16756272415E+02  0.00000000000E+00 0.  1.
         11    1    1    2    0    0  0.81493518645E+02 -0.29191832749E+02 -0.20018173404E+03  0.21809650003E+03  0.00000000000E+00 0. -1.
</event>
<event>
 7    1  0.2842702E-009  0.1183458E+03  0.7561462E-02  0.1245851E+00
         -1   -1    0    0    0  501 -0.00000000000E+00  0.00000000000E+00  0.35494180832E+03  0.35494180832E+03  0.00000000000E+00 0.  1.
          1   -1    0    0  501    0  0.00000000000E+00 -0.00000000000E+00 -0.51493932697E+02  0.51493932697E+02  0.00000000000E+00 0. -1.
         25    2    1    2    0    0 -0.47098530381E+02 -0.56785286658E+02  0.23662471668E+03  0.27763579107E+03  0.12509010990E+03 0.  0.
          5    1    3    3  502    0  0.17074620660E+02 -0.66991612448E+02  0.68806285767E+02  0.97627845260E+02  0.41800000000E+01 0. -1.
         -5    1    3    3    0  502 -0.64173151041E+02  0.10206325790E+02  0.16781843091E+03  0.18000794581E+03  0.41800000000E+01 0. -1.
        -11    1    1    2    0    0  0.53948579005E+02  0.97944221044E+01  0.59223562536E+02  0.80708179514E+02  0.00000000000E+00 0.  1.
         11    1    1    2    0    0 -0.68500486240E+01  0.46990864554E+02  0.75995964051E+01  0.48091770431E+02  0.00000000000E+00 0. -1.
</event>
<event>
 7    1  0.2842702E-009  0.1243491E+03  0.7561462E-02  0.1236090E+00
         -3   -1    0    0    0  501 -0.00000000000E+00  0.00000000000E+00  0.65859350849E+02  0.65859350849E+02  0.00000000000E+00 0.  1.
          3   -1    0    0  501    0  0.00000000000E+00 -0.00000000000E+00 -0.32653220543E+03  0.32653220543E+03  0.00000000000E+00 0. -1.
         25    2    1    2    0    0 -0.13594693284E+02  0.91544773223E+02 -0.18720079880E+03  0.24342738247E+03  0.12508992875E+03 0.  0.
          5    1    3    3  502    0  0.31081532036E+02  0.38479393286E+02 -0.16211448193E+03  0.16954439829E+03  0.41800000000E+01 0.  1.
         -5    1    3    3    0  502 -0.44676225319E+02  0.53065379937E+02 -0.25086316869E+02  0.73882984176E+02  0.41800000000E+01 0.  1.
        -11    1    1    2    0    0 -0.27792562742E+02 -0.82695738540E+02 -0.50721041351E+02  0.10091400177E+03  0.00000000000E+00 0. -1.
         11    1    1    2    0    0  0.41387256026E+02 -0.88490346826E+01 -0.22751014434E+02  0.48050172049E+02  0.00000000000E+00 0.  1.
</event>
<event>
 7    1  0.2842702E-009  0.1643054E+03  0.7561462E-02  0.1183920E+00
         -3   -1    0    0    0  501 -0.00000000000E+00  0.00000000000E+00  0.10881009676E+03  0.10881009676E+03  0.00000000000E+00 0.  1.
          3   -1    0    0  501    0  0.00000000000E+00 -0.00000000000E+00 -0.30100693682E+03  0.30100693682E+03  0.00000000000E+00 0. -1.
         25    2    1    2    0    0 -0.40340933450E+02 -0.13119777565E+03 -0.14777802058E+03  0.23732749899E+03  0.12508297712E+03 0.  0.
          5    1    3    3  502    0 -0.79574873116E+02 -0.71520295124E+02 -0.11936049451E+03  0.16034872340E+03  0.41800000000E+01 0. -1.
         -5    1    3    3    0  502  0.39233939666E+02 -0.59677480527E+02 -0.28417526067E+02  0.76978775592E+02  0.41800000000E+01 0. -1.
        -11    1    1    2    0    0 -0.14970458811E+02  0.14442979061E+02  0.19354240959E+02  0.28413041447E+02  0.00000000000E+00 0.  1.
         11    1    1    2    0    0  0.55311392260E+02  0.11675479659E+03 -0.63773060443E+02  0.14407649315E+03  0.00000000000E+00 0. -1.
</event>
<event>
 7    1  0.2842702E-009  0.9637758E+02  0.7561462E-02  0.1288103E+00
         -1   -1    0    0    0  501 -0.00000000000E+00  0.00000000000E+00  0.12719980043E+03  0.12719980043E+03  0.00000000000E+00 0. -1.
          1   -1    0    0  501    0  0.00000000000E+00 -0.00000000000E+00 -0.12783995346E+03  0.12783995346E+03  0.00000000000E+00 0.  1.
         25    2    1    2    0    0  0.51288165792E+02 -0.30674971154E+02 -0.27675911488E+02  0.14136580318E+03  0.12508758702E+03 0.  0.
          5    1    3    3  502    0 -0.57462219182E+01  0.16217988325E+02 -0.58591866078E+02  0.61208834184E+02  0.41800000000E+01 0.  1.
         -5    1    3    3    0  502  0.57034387710E+02 -0.46892959478E+02  0.30915954591E+02  0.80156968994E+02  0.41800000000E+01 0.  1.
        -11    1    1    2    0    0 -0.39508303080E+01 -0.26541428491E+02  0.28838902120E+02  0.39392115480E+02  0.00000000000E+00 0.  1.
         11    1    1    2    0    0 -0.47337335483E+02  0.57216399645E+02 -0.18031436592E+01  0.74281835236E+02  0.00000000000E+00 0. -1.
</event>
<event>
 7    1  0.2842702E-009  0.1392508E+03  0.7561462E-02  0.1214341E+00
         -2   -1    0    0    0  501 -0.00000000000E+00  0.00000000000E+00  0.73279663130E+02  0.73279663130E+02  0.00000000000E+00 0.  1.
          2   -1    0    0  501    0  0.00000000000E+00 -0.00000000000E+00 -0.38914330887E+03  0.38914330887E+03  0.00000000000E+00 0. -1.
         25    2    1    2    0    0  0.12453497600E+03  0.24087604427E+02 -0.20386367319E+03  0.27073237711E+03  0.12508576992E+03 0.  0.
          5    1    3    3  502    0  0.83103886395E+02  0.95527934048E+01 -0.21010874215E+03  0.22618724041E+03  0.41800000000E+01 0.  1.
         -5    1    3    3    0  502  0.41431089604E+02  0.14534811022E+02  0.62450689660E+01  0.44545136700E+02  0.41800000000E+01 0.  1.
        -11    1    1    2    0    0 -0.66589971982E+02  0.28460720780E+02 -0.77889327252E+02  0.10635311136E+03  0.00000000000E+00 0.  1.
         11    1    1    2    0    0 -0.57945004017E+02 -0.52548325206E+02 -0.34110645304E+02  0.85337483532E+02  0.00000000000E+00 0. -1.
</event>
<event>
 7    1  0.2842702E-009  0.2542049E+03  0.7561462E-02  0.1110676E+00
         -2   -1    0    0    0  501 -0.00000000000E+00  0.00000000000E+00  0.10902255700E+04  0.10902255700E+04  0.00000000000E+00 0.  1.
          2   -1    0    0  501    0  0.00000000000E+00 -0.00000000000E+00 -0.64626371312E+02  0.64626371312E+02  0.00000000000E+00 0. -1.
         25    2    1    2    0    0 -0.17463239223E+03 -0.14917019635E+03  0.69129437430E+03  0.73910909087E+03  0.12508443697E+03 0.  0.
          5    1    3    3  502    0 -0.98468678692E+02 -0.53987440400E+01  0.26899113979E+03  0.28652911336E+03  0.41800000000E+01 0.  1.
         -5    1    3    3    0  502 -0.76163713535E+02 -0.14377145231E+03  0.42230323452E+03  0.45257997751E+03  0.41800000000E+01 0.  1.
        -11    1    1    2    0    0  0.36850113816E+02  0.89526154958E+02  0.13922270044E+03  0.16957542165E+03  0.00000000000E+00 0. -1.
         11    1    1    2    0    0  0.13778227841E+03  0.59644041389E+02  0.19508212396E+03  0.24616742881E+03  0.00000000000E+00 0.  1.
</event>
<event>
 7    1  0.2842702E-009  0.7039019E+02  0.7561462E-02  0.1358771E+00
          2   -1    0    0  501    0  0.00000000000E+00  0.00000000000E+00  0.35030285191E+03  0.35030285191E+03  0.00000000000E+00 0. -1.
         -2   -1    0    0    0  501 -0.00000000000E+00 -0.00000000000E+00 -0.47758802782E+02  0.47758802782E+02  0.00000000000E+00 0.  1.
         25    2    1    2    0    0  0.29686011958E+02  0.12571606594E+02  0.72713092449E+02  0.14823660962E+03  0.12509034344E+03 0.  0.
          5    1    3    3  502    0  0.18965817911E+02 -0.10749230746E+02 -0.32778372099E+02  0.39587148017E+02  0.41800000000E+01 0. -1.
         -5    1    3    3    0  502  0.10720194048E+02  0.23320837340E+02  0.10549146455E+03  0.10864946161E+03  0.41800000000E+01 0. -1.
        -11    1    1    2    0    0  0.19510751847E+02 -0.33776001234E+02  0.13903310324E+03  0.14440114783E+03  0.00000000000E+00 0. -1.
         11    1    1    2    0    0 -0.49196763806E+02  0.21204394640E+02  0.90797853442E+02  0.10542389725E+03  0.00000000000E+00 0.  1.
</event>
<event>
 7    1  0.2842702E-009  0.8872419E+02  0.7561462E-02  0.1305971E+00
          3   -1    0    0  501    0  0.00000000000E+00  0.00000000000E+00  0.36718277523E+02  0.36718277523E+02  0.00000000000E+00 0. -1.
         -3   -1    0    0    0  501 -0.00000000000E+00 -0.00000000000E+00 -0.42407508554E+03  0.42407508554E+03  0.00000000000E+00 0.  1.
         25    2    1    2    0    0 -0.46768905793E+02  0.40212114651E+02 -0.22155517914E+03  0.26179896400E+03  0.12509058890E+03 0.  0.
          5    1    3    3  502    0 -0.58146540330E+02  0.16428476899E+02 -0.22666711801E+03  0.23461962789E+03  0.41800000000E+01 0. -1.
         -5    1    3    3    0  502  0.11377634537E+02  0.23783637752E+02  0.51119388605E+01  0.27179336109E+02  0.41800000000E+01 0. -1.
        -11    1    1    2    0    0 -0.92947016392E+01 -0.32247609650E+02 -0.12917947459E+02  0.35960717084E+02  0.00000000000E+00 0. -1.
         11    1    1    2    0    0  0.56063607432E+02 -0.79645050017E+01 -0.15288368141E+03  0.16303368198E+03  0.00000000000E+00 0.  1.
</event>
<event>
 7    1  0.2842702E-009  0.1383502E+03  0.7561462E-02  0.1215566E+00
          2   -1    0    0  501    0  0.00000000000E+00  0.00000000000E+00  0.54081902900E+03  0.54081902900E+03  0.00000000000E+00 0.  1.
         -2   -1    0    0    0  501 -0.00000000000E+00 -0.00000000000E+00 -0.39956525829E+02  0.39956525829E+02  0.00000000000E+00 0. -1.
         25    2    1    2    0    0  0.97916373100E+02  0.86576029275E+01  0.30475074811E+03  0.34377850563E+03  0.12509225496E+03 0.  0.
          5    1    3    3  502    0 -0.26499913640E+02 -0.17000992459E+02  0.53809245230E+02  0.62483489337E+02  0.41800000000E+01 0.  1.
         -5    1    3    3    0  502  0.12441628674E+03  0.25658595387E+02  0.25094150288E+03  0.28129501629E+03  0.41800000000E+01 0.  1.
        -11    1    1    2    0    0 -0.13719111470E+01 -0.20520017816E+02  0.30166704119E+01  0.20785898387E+02  0.00000000000E+00 0.  1.
         11    1    1    2    0    0 -0.96544461953E+02  0.11862414889E+02  0.19309508465E+03  0.21621115082E+03  0.00000000000E+00 0. -1.
</event>
<event>
 7    1  0.2842702E-009  0.1539121E+03  0.7561462E-02  0.1195747E+00
          1   -1    0    0  501    0  0.00000000000E+00  0.00000000000E+00  0.13113983851E+04  0.13113983851E+04  0.00000000000E+00 0. -1.
         -1   -1    0    0    0  501 -0.00000000000E+00 -0.00000000000E+00 -0.23175479591E+02  0.23175479591E+02  0.00000000000E+00 0.  1.
         25    2    1    2    0    0  0.13572028679E+03  0.78247046984E+01  0.67514722084E+03  0.69996590502E+03  0.12508907280E+03 0.  0.
          5    1    3    3  502    0  0.96352923999E+01  0.27497024579E+02  0.34080906399E+03  0.34207779191E+03  0.41800000000E+01 0.  1.
         -5    1    3    3    0  502  0.12608499439E+03 -0.19672319881E+02  0.33433815684E+03  0.35788811311E+03  0.41800000000E+01 0.  1.
        -11    1    1    2    0    0 -0.64068398444E+02 -0.36265988742E+02  0.17586273821E+03  0.19065068662E+03  0.00000000000E+00 0.  1.
         11    1    1    2    0    0 -0.71651888347E+02  0.28441284044E+02  0.43721294649E+03  0.44395727307E+03  0.00000000000E+00 0. -1.
</event>
<event>
 7    1  0.2842702E-009  0.1588603E+03  0.7561462E-02  0.1189989E+00
         -2   -1    0    0    0  501 -0.00000000000E+00  0.00000000000E+00  0.35358943840E+02  0.35358943840E+02  0.00000000000E+00 0.  1.
          2   -1    0    0  501    0  0.00000000000E+00 -0.00000000000E+00 -0.10269787496E+04  0.10269787496E+04  0.00000000000E+00 0. -1.
         25    2    1    2    0    0 -0.11328550102E+03  0.91715104942E+02 -0.36339286132E+03  0.41103120673E+03  0.12508803311E+03 0.  0.
          5    1    3    3  502    0 -0.31117564737E+02 -0.88186333735E+01 -0.19825975134E+03  0.20092404668E+03  0.41800000000E+01 0.  1.
         -5    1    3    3    0  502 -0.82167936287E+02  0.10053373832E+03 -0.16513310998E+03  0.21010716005E+03  0.41800000000E+01 0.  1.
        -11    1    1    2    0    0  0.54643596659E+02 -0.11507614008E+02 -0.10701355130E+03  0.12070728229E+03  0.00000000000E+00 0.  1.
         11    1    1    2    0    0  0.58641904364E+02 -0.80207490935E+02 -0.52121339318E+03  0.53059920447E+03  0.00000000000E+00 0. -1.
</event>
<event>
 7    1  0.2842702E-009  0.8140921E+02  0.7561462E-02  0.1325099E+00
          1   -1    0    0  501    0  0.00000000000E+00  0.00000000000E+00  0.55862453719E+03  0.55862453719E+03  0.00000000000E+00 0. -1.
         -1   -1    0    0    0  501 -0.00000000000E+00 -0.00000000000E+00 -0.23521590105E+02  0.23521590105E+02  0.00000000000E+00 0.  1.
         25    2    1    2    0    0 -0.41645774001E+02  0.34401241502E+01  0.37106850827E+03  0.39380875095E+03  0.12508912643E+03 0.  0.
          5    1    3    3  502    0 -0.50807290450E+02  0.46477397837E+02  0.31472709119E+03  0.32219891931E+03  0.41800000000E+01 0.  1.
         -5    1    3    3    0  502  0.91615164488E+01 -0.43037273686E+02  0.56341417074E+02  0.71609831643E+02  0.41800000000E+01 0.  1.
        -11    1    1    2    0    0  0.95166210792E+01  0.10882126543E+02 -0.52928100820E+01  0.15394823592E+02  0.00000000000E+00 0.  1.
         11    1    1    2    0    0  0.32129152922E+02 -0.14322250693E+02  0.16932724890E+03  0.17294255275E+03  0.00000000000E+00 0. -1.
</event>
<event>
 7    1  0.2842702E-009  0.1058932E+03  0.7561462E-02  0.1268370E+00
          2   -1    0    0  501    0  0.00000000000E+00  0.00000000000E+00  0.17924372476E+03  0.17924372476E+03  0.00000000000E+00 0. -1.
         -2   -1    0    0    0  501 -0.00000000000E+00 -0.00000000000E+00 -0.83518653802E+02  0.83518653802E+02  0.00000000000E+00 0.  1.
         25    2    1    2    0    0 -0.33248910620E+02 -0.35672035091E+02  0.10914937002E+02  0.13470318743E+03  0.12509128150E+03 0.  0.
          5    1    3    3  502    0 -0.59455318482E+02  0.20279531174E+02 -0.19231074680E+02  0.65829331713E+02  0.41800000000E+01 0.  1.
         -5    1    3    3    0  502  0.26206407862E+02 -0.55951566265E+02  0.30146011683E+02  0.68873855714E+02  0.41800000000E+01 0.  1.
        -11    1    1    2    0    0  0.52669690534E+02  0.82676993866E+01  0.76863417058E+02  0.93543765351E+02  0.00000000000E+00 0. -1.
         11    1    1    2    0    0 -0.19420779915E+02  0.27404335704E+02  0.79467169020E+01  0.34515425789E+02  0.00000000000E+00 0.  1.
</event>
<event>
 7    1  0.2842702E-009  0.1537720E+03  0.7561462E-02  0.1195913E+00
          1   -1    0    0  501    0  0.00000000000E+00  0.00000000000E+00  0.56174526214E+02  0.56174526214E+02  0.00000000000E+00 0. -1.
         -1   -1    0    0    0  501 -0.00000000000E+00 -0.00000000000E+00 -0.48921594564E+03  0.48921594564E+03  0.00000000000E+00 0.  1.
         25    2    1    2    0    0 -0.12605663396E+03 -0.99375670746E+01 -0.21801456383E+03  0.28136543428E+03  0.12508847813E+03 0.  0.
          5    1    3    3  502    0 -0.41084016038E+02 -0.59123967234E+02 -0.53731202736E+02  0.89933611196E+02  0.41800000000E+01 0. -1.
         -5    1    3    3    0  502 -0.84972617927E+02  0.49186400159E+02 -0.16428336109E+03  0.19143182308E+03  0.41800000000E+01 0. -1.
        -11    1    1    2    0    0  0.50862294304E+02  0.30363389441E+02 -0.37388064388E+02  0.70048381558E+02  0.00000000000E+00 0. -1.
         11    1    1    2    0    0  0.75194339661E+02 -0.20425822366E+02 -0.17763879121E+03  0.19397665601E+03  0.00000000000E+00 0.  1.
</event>
<event>
 7    1  0.2842702E-009  0.8081637E+02  0.7561462E-02  0.1326751E+00
          1   -1    0    0  501    0  0.00000000000E+00  0.00000000000E+00  0.49066541651E+02  0.49066541651E+02  0.00000000000E+00 0. -1.
         -1   -1    0    0    0  501 -0.00000000000E+00 -0.00000000000E+00 -0.25368340262E+03  0.25368340262E+03  0.00000000000E+00 0.  1.
         25    2    1    2    0    0  0.13596866609E+02  0.21843704695E+02 -0.13793705700E+03  0.18797211015E+03  0.12507941591E+03 0.  0.
          5    1    3    3  502    0  0.31927838568E+02  0.44248823984E+02 -0.86334928310E+01  0.55401758980E+02  0.41800000000E+01 0.  1.
         -5    1    3    3    0  502 -0.18330971959E+02 -0.22405119289E+02 -0.12930356416E+03  0.13257035117E+03  0.41800000000E+01 0.  1.
        -11    1    1    2    0    0 -0.11137031303E+01  0.27113054217E+02  0.44831781970E+01  0.27503762114E+02  0.00000000000E+00 0. -1.
         11    1    1    2    0    0 -0.12483163479E+02 -0.48956758913E+02 -0.71162982166E+02  0.87274072005E+02  0.00000000000E+00 0.  1.
</event>
<event>
 7    1  0.2842702E-009  0.1173539E+03  0.7561462E-02  0.1247527E+00
         -1   -1    0    0    0  501 -0.00000000000E+00  0.00000000000E+00  0.11497266069E+02  0.11497266069E+02  0.00000000000E+00 0.  1.
          1   -1    0    0  501    0  0.00000000000E+00 -0.00000000000E+00 -0.15201502444E+04  0.15201502444E+04  0.00000000000E+00 0. -1.
         25    2    1    2    0    0  0.71528047595E+02  0.12561596565E+02 -0.97536340745E+03  0.98603058379E+03  0.12509388586E+03 0.  0.
          5    1    3    3  502    0  0.18228356635E+02  0.50509306736E+02 -0.73237302860E+03  0.73435086197E+03  0.41800000000E+01 0. -1.
         -5    1    3    3    0  502  0.53299690960E+02 -0.37947710171E+02 -0.24299037885E+03  0.25167972182E+03  0.41800000000E+01 0. -1.
        -11    1    1    2    0    0 -0.81393021487E+02  0.17838559397E+02 -0.39181872426E+03  0.40058076692E+03  0.00000000000E+00 0.  1.
         11    1    1    2    0    0  0.98649738917E+01 -0.30400155962E+02 -0.14147084661E+03  0.14503615974E+03  0.00000000000E+00 0. -1.
</event>
<event>
 7    1  0.2842702E-009  0.9612533E+02  0.7561462E-02  0.1288661E+00
         -1   -1    0    0    0  501 -0.00000000000E+00  0.00000000000E+00  0.17171365740E+02  0.17171365740E+02  0.00000000000E+00 0.  1.
          1   -1    0    0  501    0  0.00000000000E+00 -0.00000000000E+00 -0.72595385020E+03  0.72595385020E+03  0.00000000000E+00 0. -1.
         25    2    1    2    0    0  0.14092855825E+01  0.26168333890E+02 -0.47342376158E+03  0.49037195520E+03  0.12509128121E+03 0.  0.
          5    1    3    3  502    0  0.52473331936E+02  0.96595903906E+01 -0.36929410082E+03  0.37315193093E+03  0.41800000000E+01 0. -1.
         -5    1    3    3    0  502 -0.51064046354E+02  0.16508743499E+02 -0.10412966076E+03  0.11722002428E+03  0.41800000000E+01 0. -1.
        -11    1    1    2    0    0 -0.31136668562E+01  0.29271805518E+02 -0.39943170005E+02  0.49618447675E+02  0.00000000000E+00 0.  1.
         11    1    1    2    0    0  0.17043812736E+01 -0.55440139408E+02 -0.19541555288E+03  0.20313481307E+03  0.00000000000E+00 0. -1.
</event>
<event>
 7    1  0.2842702E-009  0.1169649E+03  0.7561462E-02  0.1248190E+00
         -2   -1    0    0    0  501 -0.00000000000E+00  0.00000000000E+00  0.91870027660E+02  0.91870027660E+02  0.00000000000E+00 0.  1.
          2   -1    0    0  501    0  0.00000000000E+00 -0.00000000000E+00 -0.35829320067E+03  0.35829320067E+03  0.00000000000E+00 0. -1.
         25    2    1    2    0    0  0.57966355941E+02 -0.52594816881E+02  0.11955840378E+02  0.14804333578E+03  0.12509026327E+03 0.  0.
          5    1    3    3  502    0  0.53066565589E+01 -0.73832827363E+02 -0.27167739505E+02  0.78962050822E+02  0.41800000000E+01 0.  1.
         -5    1    3    3    0  502  0.52659699382E+02  0.21238010482E+02  0.39123579883E+02  0.69081284955E+02  0.41800000000E+01 0.  1.
        -11    1    1    2    0    0 -0.24542202947E+02  0.63191634924E+02 -0.24311916932E+03  0.25239340907E+03  0.00000000000E+00 0. -1.
         11    1    1    2    0    0 -0.33424152994E+02 -0.10596818043E+02 -0.35259844066E+02  0.49726483483E+02  0.00000000000E+00 0.  1.
</event>
<event>
 7    1  0.2842702E-009  0.8214343E+02  0.7561462E-02  0.1323076E+00
          1   -1    0    0  501    0  0.00000000000E+00  0.00000000000E+00  0.18231877674E+03  0.18231877674E+03  0.00000000000E+00 0. -1.
         -1   -1    0    0    0  501 -0.00000000000E+00 -0.00000000000E+00 -0.69511903787E+02  0.69511903787E+02  0.00000000000E+00 0.  1.
         25    2    1    2    0    0 -0.25922101966E+02  0.26567808870E+00  0.83306836907E+02  0.15251297501E+03  0.12509257578E+03 0.  0.
          5    1    3    3  502    0  0.17465497013E+02 -0.27934934078E+02 -0.18658347487E+02  0.38092131192E+02  0.41800000000E+01 0. -1.
         -5    1    3    3    0  502 -0.43387598979E+02  0.28200612166E+02  0.10196518439E+03  0.11442084382E+03  0.41800000000E+01 0. -1.
        -11    1    1    2    0    0  0.52532251188E+02  0.63910761019E+00  0.44418854456E+02  0.68797387339E+02  0.00000000000E+00 0. -1.
         11    1    1    2    0    0 -0.26610149223E+02 -0.90478569889E+00 -0.14918818410E+02  0.30520318176E+02  0.00000000000E+00 0.  1.
</event>
<event>
 7    1  0.2842702E-009  0.1795519E+03  0.7561462E-02  0.1168237E+00
         -1   -1    0    0    0  501 -0.00000000000E+00  0.00000000000E+00  0.11302709463E+03  0.11302709463E+03  0.00000000000E+00 0.  1.
          1   -1    0    0  501    0  0.00000000000E+00 -0.00000000000E+00 -0.34254769241E+03  0.34254769241E+03  0.00000000000E+00 0. -1.
         25    2    1    2    0    0 -0.14290051468E+03  0.49832852604E+02 -0.49259808409E+02  0.20243132067E+03  0.12509212832E+03 0.  0.
          5    1    3    3  502    0 -0.14180352639E+03  0.81986282301E+02 -0.39380574621E+02  0.16851792973E+03  0.41800000000E+01 0. -1.
         -5    1    3    3    0  502 -0.10969882890E+01 -0.32153429697E+02 -0.98792337883E+01  0.33913390937E+02  0.41800000000E+01 0. -1.
        -11    1    1    2    0    0  0.14016522089E+03 -0.30707747889E+02 -0.18413255040E+03  0.23343960899E+03  0.00000000000E+00 0.  1.
         11    1    1    2    0    0  0.27352937867E+01 -0.19125104715E+02  0.38717610268E+01  0.19703857386E+02  0.00000000000E+00 0. -1.
</event>
<event>
 7    1  0.2842702E-009  0.1416332E+03  0.7561462E-02  0.1211148E+00
         -2   -1    0    0    0  501 -0.00000000000E+00  0.00000000000E+00  0.15496341093E+02  0.15496341093E+02  0.00000000000E+00 0.  1.
          2   -1    0    0  501    0  0.00000000000E+00 -0.00000000000E+00 -0.14131824659E+04  0.14131824659E+04  0.00000000000E+00 0. -1.
         25    2    1    2    0    0  0.99120474243E+02  0.20322505081E+02 -0.73495345130E+03  0.75235683551E+03  0.12508540972E+03 0.  0.
          5    1    3    3  502    0 -0.20942058080E+02 -0.11280685690E+02 -0.27056649627E+03  0.27164227390E+03  0.41800000000E+01 0. -1.
         -5    1    3    3    0  502  0.12006253232E+03  0.31603190771E+02 -0.46438695504E+03  0.48071456161E+03  0.41800000000E+01 0. -1.
        -11    1    1    2    0    0 -0.19509168936E+02  0.33519331428E+02 -0.19270520684E+03  0.19656919900E+03  0.00000000000E+00 0.  1.
         11    1    1    2    0    0 -0.79611305308E+02 -0.53841836509E+02 -0.47002746666E+03  0.47975277248E+03  0.00000000000E+00 0. -1.
</event>
<event>
 7    1  0.2842702E-009  0.1236771E+03  0.7561462E-02  0.1237151E+00
         -2   -1    0    0    0  501 -0.00000000000E+00  0.00000000000E+00  0.30305629931E+02  0.30305629931E+02  0.00000000000E+00 0.  1.
          2   -1    0    0  501    0  0.00000000000E+00 -0.00000000000E+00 -0.55675665031E+03  0.55675665031E+03  0.00000000000E+00 0. -1.
         25    2    1    2    0    0  0.78022103318E+01  0.70167860666E+02 -0.31426144503E+03  0.34551838203E+03  0.12505316204E+03 0.  0.
          5    1    3    3  502    0 -0.56523192893E+02  0.41283366689E+02 -0.19082513952E+03  0.20330000977E+03  0.41800000000E+01 0. -1.
         -5    1    3    3    0  502  0.64325403224E+02  0.28884493977E+02 -0.12343630551E+03  0.14221837227E+03  0.41800000000E+01 0. -1.
        -11    1    1    2    0    0 -0.16112831633E+02 -0.86652327623E+02 -0.12836598708E+03  0.15571151487E+03  0.00000000000E+00 0. -1.
         11    1    1    2    0    0  0.83106213009E+01  0.16484466958E+02 -0.83823588277E+02  0.85832383335E+02  0.00000000000E+00 0.  1.
</event>
<event>
 7    1  0.2842702E-009  0.1090410E+03  0.7561462E-02  0.1262356E+00
          2   -1    0    0  501    0  0.00000000000E+00  0.00000000000E+00  0.16803551087E+04  0.16803551087E+04  0.00000000000E+00 0.  1.
         -2   -1    0    0    0  501 -0.00000000000E+00 -0.00000000000E+00 -0.84503569335E+01  0.84503569335E+01  0.00000000000E+00 0. -1.
         25    2    1    2    0    0 -0.43930757557E+02  0.33627836103E+02  0.11724233386E+04  0.11803749558E+04  0.12509120027E+03 0.  0.
          5    1    3    3  502    0  0.34626145394E+02  0.27651917510E+02  0.20688421286E+03  0.21161793028E+03  0.41800000000E+01 0. -1.
         -5    1    3    3    0  502 -0.78556902951E+02  0.59759185934E+01  0.96553912578E+03  0.96875702548E+03  0.41800000000E+01 0. -1.
        -11    1    1    2    0    0 -0.22250654214E+02 -0.10141430961E+02  0.14729602793E+03  0.14931195558E+03  0.00000000000E+00 0.  1.
         11    1    1    2    0    0  0.66181411771E+02 -0.23486405142E+02  0.35218538521E+03  0.35911855431E+03  0.00000000000E+00 0. -1.
</event>
<event>
 7    1  0.2842702E-009  0.1440411E+03  0.7561462E-02  0.1207993E+00
         -2   -1    0    0    0  501 -0.00000000000E+00  0.00000000000E+00  0.95888140159E+02  0.95888140159E+02  0.00000000000E+00 0.  1.
          2   -1    0    0  501    0  0.00000000000E+00 -0.00000000000E+00 -0.24609715443E+03  0.24609715443E+03  0.00000000000E+00 0. -1.
         25    2    1    2    0    0 -0.19020447418E+02  0.95924064805E+02 -0.13068698700E+03  0.20564619678E+03  0.12509223018E+03 0.  0.
          5    1    3    3  502    0 -0.70013638601E+02  0.62488367073E+02 -0.56874464792E+02  0.10981294439E+03  0.41800000000E+01 0.  1.
         -5    1    3    3    0  502  0.50993191184E+02  0.33435697731E+02 -0.73812522207E+02  0.95833252394E+02  0.41800000000E+01 0.  1.
        -11    1    1    2    0    0  0.32398396139E+02  0.36068766389E+01  0.49556355402E+01  0.32973079247E+02  0.00000000000E+00 0.  1.
         11    1    1    2    0    0 -0.13377948721E+02 -0.99530941443E+02 -0.24477662815E+02  0.10336601856E+03  0.00000000000E+00 0. -1.
</event>
<event>
 7    1  0.2842702E-009  0.6458841E+02  0.7561462E-02  0.1379526E+00
         -2   -1    0    0    0  501 -0.00000000000E+00  0.00000000000E+00  0.69838817737E+02  0.69838817737E+02  0.00000000000E+00 0.  1.
          2   -1    0    0  501    0  0.00000000000E+00 -0.00000000000E+00 -0.18451334495E+03  0.18451334495E+03  0.00000000000E+00 0. -1.
         25    2    1    2    0    0 -0.10909423312E+01  0.22530478949E+02 -0.83758798595E+02  0.15222279776E+03  0.12508969254E+03 0.  0.
          5    1    3    3  502    0 -0.25432758298E+02  0.32464591874E+01 -0.10895831549E+03  0.11201228329E+03  0.41800000000E+01 0. -1.
         -5    1    3    3    0  502  0.24341815967E+02  0.19284019761E+02  0.25199516897E+02  0.40210514478E+02  0.41800000000E+01 0. -1.
        -11    1    1    2    0    0  0.26378358466E+02  0.12069676838E+02  0.20257129944E+02  0.35381438749E+02  0.00000000000E+00 0.  1.
         11    1    1    2    0    0 -0.25287416135E+02 -0.34600155786E+02 -0.51172858560E+02  0.66747926173E+02  0.00000000000E+00 0. -1.
</event>
<event>
 7    1  0.2842702E-009  0.1062600E+03  0.7561462E-02  0.1267657E+00
          1   -1    0    0  501    0  0.00000000000E+00  0.00000000000E+00  0.13133814587E+03  0.13133814587E+03  0.00000000000E+00 0. -1.
         -1   -1    0    0    0  501 -0.00000000000E+00 -0.00000000000E+00 -0.12685682934E+03  0.12685682934E+03  0.00000000000E+00 0.  1.
         25    2    1    2    0    0  0.61805213671E+02  0.38584528264E+02  0.12066268289E+02  0.14527109607E+03  0.12509774684E+03 0.  0.
          5    1    3    3  502    0  0.86516330218E+02  0.23686695532E+02 -0.29482183788E+02  0.94513525490E+02  0.41800000000E+01 0. -1.
         -5    1    3    3    0  502 -0.24711116547E+02  0.14897832731E+02  0.41548452077E+02  0.50757570579E+02  0.41800000000E+01 0. -1.
        -11    1    1    2    0    0 -0.35030124745E+02 -0.52714156663E+02 -0.34788432396E+02  0.72222759439E+02  0.00000000000E+00 0.  1.
         11    1    1    2    0    0 -0.26775088926E+02  0.14129628399E+02  0.27203480638E+02  0.40701119696E+02  0.00000000000E+00 0. -1.
</event>
<event>
 7    1  0.2842702E-009  0.1561701E+03  0.7561462E-02  0.1193090E+00
         -1   -1    0    0    0  501 -0.00000000000E+00  0.00000000000E+00  0.11148125611E+03  0.11148125611E+03  0.00000000000E+00 0.  1.
          1   -1    0    0  501    0  0.00000000000E+00 -0.00000000000E+00 -0.40885236967E+03  0.40885236967E+03  0.00000000000E+00 0. -1.
         25    2    1    2    0    0 -0.48154333730E+02  0.13381743410E+03 -0.12632544947E+02  0.18982508889E+03  0.12509211667E+03 0.  0.
          5    1    3    3  502    0 -0.38653279669E+02  0.32530657130E+01 -0.40156320304E+02  0.55988042706E+02  0.41800000000E+01 0. -1.
         -5    1    3    3    0  502 -0.95010540615E+01  0.13056436839E+03  0.27523775357E+02  0.13383704618E+03  0.41800000000E+01 0. -1.
        -11    1    1    2    0    0  0.10969814388E+02 -0.38608121781E+02 -0.16392001536E+02  0.43354603095E+02  0.00000000000E+00 0.  1.
         11    1    1    2    0    0  0.37184519343E+02 -0.95209312318E+02 -0.26834656708E+03  0.28715393379E+03  0.00000000000E+00 0. -1.
</event>
<event>
 7    1  0.2842702E-009  0.1281836E+03  0.7561462E-02  0.1230176E+00
         -1   -1    0    0    0  501 -0.00000000000E+00  0.00000000000E+00  0.91610151910E+02  0.91610151910E+02  0.00000000000E+00 0.  1.
          1   -1    0    0  501    0  0.00000000000E+00 -0.00000000000E+00 -0.20420738687E+03  0.20420738687E+03  0.00000000000E+00 0. -1.
         25    2    1    2    0    0 -0.53339043409E+02 -0.52377151647E+02 -0.97270786419E+02  0.17521342720E+03  0.12509883938E+03 0.  0.
          5    1    3    3  502    0 -0.68808785026E+02  0.19790245222E+02 -0.50942031697E+02  0.87970822982E+02  0.41800000000E+01 0.  1.
         -5    1    3    3    0  502  0.15469741617E+02 -0.72167396868E+02 -0.46328754721E+02  0.87242604217E+02  0.41800000000E+01 0.  1.
        -11    1    1    2    0    0  0.24873336966E+02  0.71982045733E+02  0.11275597569E+02  0.76988550449E+02  0.00000000000E+00 0.  1.
         11    1    1    2    0    0  0.28465706443E+02 -0.19604894086E+02 -0.26602046106E+02  0.43615561127E+02  0.00000000000E+00 0. -1.
</event>
<event>
 7    1  0.2842702E-009  0.1296331E+03  0.7561462E-02  0.1228001E+00
         -3   -1    0    0    0  501 -0.00000000000E+00  0.00000000000E+00  0.17711034044E+03  0.17711034044E+03  0.00000000000E+00 0.  1.
          3   -1    0    0  501    0  0.00000000000E+00 -0.00000000000E+00 -0.11960863755E+03  0.11960863755E+03  0.00000000000E+00 0. -1.
         25    2    1    2    0    0  0.83741644678E+02 -0.36244028850E+02 -0.31956606524E+01  0.15486870527E+03  0.12509121050E+03 0.  0.
          5    1    3    3  502    0  0.56862937312E+02 -0.82284922983E+02 -0.11443384425E+02  0.10076023837E+03  0.41800000000E+01 0. -1.
         -5    1    3    3    0  502  0.26878707366E+02  0.46040894134E+02  0.82477237731E+01  0.54108466895E+02  0.41800000000E+01 0. -1.
        -11    1    1    2    0    0 -0.79227647160E+02  0.48312885943E+02  0.14540531557E+02  0.93928600972E+02  0.00000000000E+00 0. -1.
         11    1    1    2    0    0 -0.45139975183E+01 -0.12068857093E+02  0.46156831978E+02  0.47921671751E+02  0.00000000000E+00 0.  1.
</event>
<event>
 7    1  0.2842702E-009  0.1364146E+03  0.7561462E-02  0.1218236E+00
          3   -1    0    0  501    0  0.00000000000E+00  0.00000000000E+00  0.26045696757E+03  0.26045696757E+03  0.00000000000E+00 0. -1.
         -3   -1    0    0    0  501 -0.00000000000E+00 -0.00000000000E+00 -0.14481018801E+03  0.14481018801E+03  0.00000000000E+00 0.  1.
         25    2    1    2    0    0 -0.10296579065E+03  0.50181924432E+02  0.17906521625E+03  0.24664165379E+03  0.12509026392E+03 0.  0.
          5    1    3    3  502    0  0.15209018899E+02 -0.11612106612E+02  0.74772300474E+02  0.77295048962E+02  0.41800000000E+01 0. -1.
         -5    1    3    3    0  502 -0.11817480955E+03  0.61794031043E+02  0.10429291578E+03  0.16934660483E+03  0.41800000000E+01 0. -1.
        -11    1    1    2    0    0  0.10728555810E+02 -0.20132680727E+02  0.20262052404E+02  0.30511924073E+02  0.00000000000E+00 0. -1.
         11    1    1    2    0    0  0.92237234841E+02 -0.30049243704E+02 -0.83680489095E+02  0.12811357771E+03  0.00000000000E+00 0.  1.
</event>
<event>
 7    1  0.2842702E-009  0.1074840E+03  0.7561462E-02  0.1265301E+00
         -1   -1    0    0    0  501 -0.00000000000E+00  0.00000000000E+00  0.51534811140E+02  0.51534811140E+02  0.00000000000E+00 0.  1.
          1   -1    0    0  501    0  0.00000000000E+00 -0.00000000000E+00 -0.36739153677E+03  0.36739153677E+03  0.00000000000E+00 0. -1.
         25    2    1    2    0    0  0.42625573487E+02  0.68842185975E+02 -0.19046250733E+03  0.24182675652E+03  0.12509207564E+03 0.  0.
          5    1    3    3  502    0  0.56720152107E+02  0.23435312544E+02 -0.18357243017E+03  0.19360449129E+03  0.41800000000E+01 0. -1.
         -5    1    3    3    0  502 -0.14094578620E+02  0.45406873431E+02 -0.68900771608E+01  0.48222265236E+02  0.41800000000E+01 0. -1.
        -11    1    1    2    0    0  0.12912316458E+02  0.45496815743E+01  0.73740906230E+01  0.15550071744E+02  0.00000000000E+00 0.  1.
         11    1    1    2    0    0 -0.55537889945E+02 -0.73391867549E+02 -0.13276830893E+03  0.16154951965E+03  0.00000000000E+00 0. -1.
</event>
<event>
 7    1  0.2842702E-009  0.1055112E+03  0.7561462E-02  0.1269116E+00
         -2   -1    0    0    0  501 -0.00000000000E+00  0.00000000000E+00  0.47748134856E+02  0.47748134856E+02  0.00000000000E+00 0.  1.
          2   -1    0    0  501    0  0.00000000000E+00 -0.00000000000E+00 -0.32214866549E+03  0.32214866549E+03  0.00000000000E+00 0. -1.
         25    2    1    2    0    0 -0.25537856671E+02 -0.46822596642E+02 -0.20078225978E+03  0.24249468557E+03  0.12508244883E+03 0.  0.
          5    1    3    3  502    0 -0.22843343008E+02 -0.74997033305E+02 -0.19888688429E+03  0.21382197845E+03  0.41800000000E+01 0.  1.
         -5    1    3    3    0  502 -0.26945136623E+01  0.28174436663E+02 -0.18953754894E+01  0.28672707117E+02  0.41800000000E+01 0.  1.
        -11    1    1    2    0    0  0.40938362548E+02 -0.12348137328E+02 -0.27895398524E+02  0.51054669545E+02  0.00000000000E+00 0.  1.
         11    1    1    2    0    0 -0.15400505877E+02  0.59170733970E+02 -0.45722872327E+02  0.76347445233E+02  0.00000000000E+00 0. -1.
</event>
<event>
 7    1  0.2962452E-009  0.1252251E+03  0.7561462E-02  0.1234718E+00
         -2   -1    0    0    0  501 -0.00000000000E+00  0.00000000000E+00  0.24928251323E+02  0.24928251323E+02  0.00000000000E+00 0.  1.
          2   -1    0    0  501    0  0.00000000000E+00 -0.00000000000E+00 -0.68047036248E+03  0.68047036248E+03  0.00000000000E+00 0. -1.
         25    2    1    2    0    0 -0.25868414328E+02 -0.62351020053E+02 -0.43367316620E+03  0.45637395646E+03  0.12509176026E+03 0.  0.
          5    1    3    3  502    0  0.37222527668E+02 -0.64171219363E+02 -0.29046068919E+03  0.29981385279E+03  0.41800000000E+01 0. -1.
         -5    1    3    3    0  502 -0.63090941996E+02  0.18201993099E+01 -0.14321247701E+03  0.15656010366E+03  0.41800000000E+01 0. -1.
        -11    1    1    2    0    0 -0.15594393412E+02  0.69140015255E+02 -0.14617365678E+03  0.16245080718E+03  0.00000000000E+00 0. -1.
         11    1    1    2    0    0  0.41462807740E+02 -0.67889952019E+01 -0.75695288169E+02  0.86573850166E+02  0.00000000000E+00 0.  1.
</event>
<event>
 7    1  0.2842702E-009  0.1775662E+03  0.7561462E-02  0.1170179E+00
          1   -1    0    0  501    0  0.00000000000E+00  0.00000000000E+00  0.19580301245E+03  0.19580301245E+03  0.00000000000E+00 0. -1.
         -1   -1    0    0    0  501 -0.00000000000E+00 -0.00000000000E+00 -0.19055101338E+03  0.19055101338E+03  0.00000000000E+00 0.  1.
         25    2    1    2    0    0  0.12485434628E+03  0.84686941914E+02 -0.46705093437E+02  0.20146770886E+03  0.12508951213E+03 0.  0.
          5    1    3    3  502    0  0.83754581751E+02  0.11045214649E+03 -0.59840176859E+02  0.15103915318E+03  0.41800000000E+01 0. -1.
         -5    1    3    3    0  502  0.41099764533E+02 -0.25765204573E+02  0.13135083422E+02  0.50428555679E+02  0.41800000000E+01 0. -1.
        -11    1    1    2    0    0 -0.59686833048E+02 -0.83434291084E+02  0.60582177958E+02  0.11913857165E+03  0.00000000000E+00 0. -1.
         11    1    1    2    0    0 -0.65167513236E+02 -0.12526508304E+01 -0.86250854601E+01  0.65747745320E+02  0.00000000000E+00 0.  1.
</event>
<event>
 7    1  0.2842702E-009  0.9454884E+02  0.7561462E-02  0.1292195E+00
         -1   -1    0    0    0  501 -0.00000000000E+00  0.00000000000E+00  0.30354470176E+02  0.30354470176E+02  0.00000000000E+00 0.  1.
          1   -1    0    0  501    0  0.00000000000E+00 -0.00000000000E+00 -0.47903371337E+03  0.47903371337E+03  0.00000000000E+00 0. -1.
         25    2    1    2    0    0 -0.35089845698E+02 -0.40059083171E+02 -0.24883958262E+03  0.28355713178E+03  0.12508989445E+03 0.  0.
          5    1    3    3  502    0 -0.17404896636E+02 -0.56844996440E+02 -0.36722077461E+02  0.70001910118E+02  0.41800000000E+01 0.  1.
         -5    1    3    3    0  502 -0.17684949062E+02  0.16785913268E+02 -0.21211750515E+03  0.21355522167E+03  0.41800000000E+01 0.  1.
        -11    1    1    2    0    0  0.64946860830E+02  0.17274815005E+02 -0.13766504518E+03  0.15319327214E+03  0.00000000000E+00 0.  1.
         11    1    1    2    0    0 -0.29857015131E+02  0.22784268166E+02 -0.62174615399E+02  0.72637779622E+02  0.00000000000E+00 0. -1.
</event>
<event>
 7    1  0.2842702E-009  0.1085433E+03  0.7561462E-02  0.1263291E+00
         -3   -1    0    0    0  501 -0.00000000000E+00  0.00000000000E+00  0.49776102205E+02  0.49776102205E+02  0.00000000000E+00 0.  1.
          3   -1    0    0  501    0  0.00000000000E+00 -0.00000000000E+00 -0.30328357418E+03  0.30328357418E+03  0.00000000000E+00 0. -1.
         25    2    1    2    0    0 -0.12327129988E+02 -0.24765499212E+02 -0.21487937095E+03  0.25017260521E+03  0.12509156747E+03 0.  0.
          5    1    3    3  502    0  0.14224305599E+02 -0.70620876577E+02 -0.14875877125E+03  0.16533687883E+03  0.41800000000E+01 0. -1.
         -5    1    3    3    0  502 -0.26551435587E+02  0.45855377365E+02 -0.66120599702E+02  0.84835726377E+02  0.41800000000E+01 0. -1.
        -11    1    1    2    0    0  0.49349609381E+02  0.44651681459E+01 -0.34676782954E+02  0.60479756519E+02  0.00000000000E+00 0. -1.
         11    1    1    2    0    0 -0.37022479392E+02  0.20300331066E+02 -0.39513180685E+01  0.42407314655E+02  0.00000000000E+00 0.  1.
</event>
<event>
 7    1  0.2842702E-009  0.1228333E+03  0.7561462E-02  0.1238495E+00
          1   -1    0    0  501    0  0.00000000000E+00  0.00000000000E+00  0.67430111703E+03  0.67430111703E+03  0.00000000000E+00 0. -1.
         -1   -1    0    0    0  501 -0.00000000000E+00 -0.00000000000E+00 -0.29480458416E+02  0.29480458416E+02  0.00000000000E+00 0.  1.
         25    2    1    2    0    0  0.45472562949E+02  0.41957919735E+02  0.19163464696E+03  0.23706636584E+03  0.12509357653E+03 0.  0.
          5    1    3    3  502    0 -0.42801564366E+02  0.15232452372E+02  0.81038868520E+02  0.92998774876E+02  0.41800000000E+01 0.  1.
         -5    1    3    3    0  502  0.88274127315E+02  0.26725467363E+02  0.11059577844E+03  0.14406759097E+03  0.41800000000E+01 0.  1.
        -11    1    1    2    0    0 -0.38795915898E+02  0.21198280241E+02  0.12894775895E+03  0.13631586377E+03  0.00000000000E+00 0. -1.
         11    1    1    2    0    0 -0.66766470507E+01 -0.63156199976E+02  0.32423825270E+03  0.33039934584E+03  0.00000000000E+00 0.  1.
</event>
<event>
 7    1  0.2842702E-009  0.1094583E+03  0.7561462E-02  0.1261576E+00
          2   -1    0    0  501    0  0.00000000000E+00  0.00000000000E+00  0.74426422850E+03  0.74426422850E+03  0.00000000000E+00 0. -1.
         -2   -1    0    0    0  501 -0.00000000000E+00 -0.00000000000E+00 -0.17555871008E+02  0.17555871008E+02  0.00000000000E+00 0.  1.
         25    2    1    2    0    0  0.33936952412E+02  0.44777740993E+01  0.42464322015E+03  0.44400397545E+03  0.12508356645E+03 0.  0.
          5    1    3    3  502    0  0.16884593124E+02  0.64205072118E+02  0.19303066954E+03  0.20417074362E+03  0.41800000000E+01 0.  1.
         -5    1    3    3    0  502  0.17052359288E+02 -0.59727298019E+02  0.23161255061E+03  0.23983323182E+03  0.41800000000E+01 0.  1.
        -11    1    1    2    0    0 -0.59053597681E+02  0.11788481210E+02  0.25522905601E+03  0.26223685233E+03  0.00000000000E+00 0. -1.
         11    1    1    2    0    0  0.25116645268E+02 -0.16266255309E+02  0.46836081334E+02  0.55579271730E+02  0.00000000000E+00 0.  1.
</event>
<event>
 7    1  0.2842702E-009  0.1108933E+03  0.7561462E-02  0.1258925E+00
          1   -1    0    0  501    0  0.00000000000E+00  0.00000000000E+00  0.20315755352E+03  0.20315755352E+03  0.00000000000E+00 0. -1.
         -1   -1    0    0    0  501 -0.00000000000E+00 -0.00000000000E+00 -0.87354505378E+02  0.87354505378E+02  0.00000000000E+00 0.  1.
         25    2    1    2    0    0 -0.41134499234E+02  0.51103223365E+02  0.13322933707E+02  0.14187969653E+03  0.12509500893E+03 0.  0.
          5    1    3    3  502    0 -0.81118756385E+02  0.16335853729E+02  0.26741516047E+02  0.87061437129E+02  0.41800000000E+01 0. -1.
         -5    1    3    3    0  502  0.39984257151E+02  0.34767369636E+02 -0.13418582340E+02  0.54818259398E+02  0.41800000000E+01 0. -1.
        -11    1    1    2    0    0  0.48940964576E+02 -0.18600995078E+02  0.14218277254E+02  0.54252874943E+02  0.00000000000E+00 0.  1.
         11    1    1    2    0    0 -0.78064653421E+01 -0.32502228287E+02  0.88261837185E+02  0.94379487433E+02  0.00000000000E+00 0. -1.
</event>
<event>
 7    1  0.2842702E-009  0.1282304E+03  0.7561462E-02  0.1230105E+00
          2   -1    0    0  501    0  0.00000000000E+00  0.00000000000E+00  0.14819916183E+03  0.14819916183E+03  0.00000000000E+00 0.  1.
         -2   -1    0    0    0  501 -0.00000000000E+00 -0.00000000000E+00 -0.14891138328E+03  0.14891138328E+03  0.00000000000E+00 0. -1.
         25    2    1    2    0    0  0.52869246015E+02 -0.86653026925E+02 -0.19277380947E+01  0.16110489213E+03  0.12508863196E+03 0.  0.
          5    1    3    3  502    0  0.16714011951E+02  0.25963811716E+02 -0.25697395049E+02  0.40389432116E+02  0.41800000000E+01 0. -1.
         -5    1    3    3    0  502  0.36155234064E+02 -0.11261683864E+03  0.23769656955E+02  0.12071546002E+03  0.41800000000E+01 0. -1.
        -11    1    1    2    0    0 -0.41140459254E+01  0.37470059176E+02  0.41358032243E+02  0.55959070217E+02  0.00000000000E+00 0.  1.
         11    1    1    2    0    0 -0.48755200089E+02  0.49182967749E+02 -0.40142515596E+02  0.80046582755E+02  0.00000000000E+00 0. -1.
</event>
<event>
 7    1  0.2842702E-009  0.1032268E+03  0.7561462E-02  0.1273653E+00
         -2   -1    0    0    0  501 -0.00000000000E+00  0.00000000000E+00  0.19222698809E+02  0.19222698809E+02  0.00000000000E+00 0.  1.
          2   -1    0    0  501    0  0.00000000000E+00 -0.00000000000E+00 -0.82930615862E+03  0.82930615862E+03  0.00000000000E+00 0. -1.
         25    2    1    2    0    0 -0.31744634851E+02 -0.50610969681E+02 -0.53427393023E+03  0.55196580151E+03  0.12509365058E+03 0.  0.
          5    1    3    3  502    0 -0.60551701270E+02 -0.41617608097E+02 -0.15622477333E+03  0.17269101318E+03  0.41800000000E+01 0. -1.
         -5    1    3    3    0  502  0.28807066419E+02 -0.89933615840E+01 -0.37804915690E+03  0.37927478833E+03  0.41800000000E+01 0. -1.
        -11    1    1    2    0    0  0.37894655476E+02  0.71335484918E+02 -0.16556111455E+03  0.18421519746E+03  0.00000000000E+00 0.  1.
         11    1    1    2    0    0 -0.61500206255E+01 -0.20724515237E+02 -0.11024841502E+03  0.11234785846E+03  0.00000000000E+00 0. -1.
</event>
<event>
 7    1  0.2842702E-009  0.8809869E+02  0.7561462E-02  0.1307522E+00
         -2   -1    0    0    0  501 -0.00000000000E+00  0.00000000000E+00  0.26163202086E+02  0.26163202086E+02  0.00000000000E+00 0.  1.
          2   -1    0    0  501    0  0.00000000000E+00 -0.00000000000E+00 -0.54452070191E+03  0.54452070191E+03  0.00000000000E+00 0. -1.
         25    2    1    2    0    0 -0.26257113540E+02 -0.25942779393E+02 -0.35024928996E+03  0.37374415171E+03  0.12509061519E+03 0.  0.
          5    1    3    3  502    0 -0.53892133730E+02 -0.56032002052E+02 -0.29377696042E+03  0.30391828212E+03  0.41800000000E+01 0.  1.
         -5    1    3    3    0  502  0.27635020189E+02  0.30089222659E+02 -0.56472329538E+02  0.69825869594E+02  0.41800000000E+01 0.  1.
        -11    1    1    2    0    0  0.21030944204E+02 -0.83192267859E+01  0.25846821139E+01  0.22763803067E+02  0.00000000000E+00 0.  1.
         11    1    1    2    0    0  0.52261693362E+01  0.34262006178E+02 -0.17069289198E+03  0.17417594922E+03  0.00000000000E+00 0. -1.
</event>
<event>
 7    1  0.2842702E-009  0.1253751E+03  0.7561462E-02  0.1234484E+00
         -1   -1    0    0    0  501 -0.00000000000E+00  0.00000000000E+00  0.19079950111E+02  0.19079950111E+02  0.00000000000E+00 0.  1.
          1   -1    0    0  501    0  0.00000000000E+00 -0.00000000000E+00 -0.10342612856E+04  0.10342612856E+04  0.00000000000E+00 0. -1.
         25    2    1    2    0    0 -0.52424404931E+02  0.58614372255E+02 -0.71378920147E+03  0.72892058563E+03  0.12508490376E+03 0.  0.
          5    1    3    3  502    0 -0.16629557089E+02  0.91075893744E+02 -0.56142328273E+03  0.56902103246E+03  0.41800000000E+01 0.  1.
         -5    1    3    3    0  502 -0.35794847842E+02 -0.32461521489E+02 -0.15236591874E+03  0.15989955317E+03  0.41800000000E+01 0.  1.
        -11    1    1    2    0    0  0.71713590877E+02 -0.53910591768E+02 -0.28463551521E+03  0.29844022440E+03  0.00000000000E+00 0. -1.
         11    1    1    2    0    0 -0.19289185946E+02 -0.47037804869E+01 -0.16756618835E+02  0.25980425710E+02  0.00000000000E+00 0.  1.
</event>
<event>
 7    1  0.2842702E-009  0.1353111E+03  0.7561462E-02  0.1219781E+00
          1   -1    0    0  501    0  0.00000000000E+00  0.00000000000E+00  0.30911963768E+02  0.30911963768E+02  0.00000000000E+00 0. -1.
         -1   -1    0    0    0  501 -0.00000000000E+00 -0.00000000000E+00 -0.72313850488E+03  0.72313850488E+03  0.00000000000E+00 0.  1.
         25    2    1    2    0    0 -0.10216188303E+03 -0.20139363370E+02 -0.34056104717E+03  0.37745421771E+03  0.12508882968E+03 0.  0.
          5    1    3    3  502    0 -0.46844508898E+02  0.52517123515E+02 -0.16756660305E+03  0.18179245070E+03  0.41800000000E+01 0.  1.
         -5    1    3    3    0  502 -0.55317374133E+02 -0.72656486885E+02 -0.17299444413E+03  0.19566176700E+03  0.41800000000E+01 0.  1.
        -11    1    1    2    0    0  0.94533734847E+02  0.86620205694E+01 -0.35008199675E+03  0.36272449886E+03  0.00000000000E+00 0.  1.
         11    1    1    2    0    0  0.76281481842E+01  0.11477342800E+02 -0.15834971872E+01  0.13871752082E+02  0.00000000000E+00 0. -1.
</event>
<event>
 7    1  0.2842702E-009  0.1056161E+03  0.7561462E-02  0.1268911E+00
         -2   -1    0    0    0  501 -0.00000000000E+00  0.00000000000E+00  0.46402352401E+03  0.46402352401E+03  0.00000000000E+00 0.  1.
          2   -1    0    0  501    0  0.00000000000E+00 -0.00000000000E+00 -0.28421148272E+02  0.28421148272E+02  0.00000000000E+00 0. -1.
         25    2    1    2    0    0 -0.33576881573E+02  0.11641970413E+02  0.22237285962E+03  0.25759118420E+03  0.12506233258E+03 0.  0.
          5    1    3    3  502    0 -0.38996191618E+02 -0.49643597857E+02  0.76851710486E+02  0.99543194512E+02  0.41800000000E+01 0.  1.
         -5    1    3    3    0  502  0.54193100451E+01  0.61285568270E+02  0.14552114914E+03  0.15804798969E+03  0.41800000000E+01 0.  1.
        -11    1    1    2    0    0 -0.14576323502E+02 -0.31112909245E+02  0.34343715264E+02  0.48579554410E+02  0.00000000000E+00 0. -1.
         11    1    1    2    0    0  0.48153205075E+02  0.19470938833E+02  0.17888580085E+03  0.18627393366E+03  0.00000000000E+00 0.  1.
</event>
<event>
 7    1  0.2842702E-009  0.3972635E+02  0.7561462E-02  0.1510235E+00
         -1   -1    0    0    0  501 -0.00000000000E+00  0.00000000000E+00  0.64896935898E+02  0.64896935898E+02  0.00000000000E+00 0.  1.
          1   -1    0    0  501    0  0.00000000000E+00 -0.00000000000E+00 -0.18753559975E+03  0.18753559975E+03  0.00000000000E+00 0. -1.
         25    2    1    2    0    0 -0.34619768554E+01  0.90251930265E+01 -0.98652648771E+02  0.15960275043E+03  0.12508898210E+03 0.  0.
          5    1    3    3  502    0  0.11805174044E+02  0.17243178415E+02  0.26035591987E+02  0.33645412557E+02  0.41800000000E+01 0. -1.
         -5    1    3    3    0  502 -0.15267150900E+02 -0.82179853883E+01 -0.12468824076E+03  0.12595733787E+03  0.41800000000E+01 0. -1.
        -11    1    1    2    0    0 -0.14531961471E+02 -0.15440160393E+02 -0.53570299264E+02  0.57613830114E+02  0.00000000000E+00 0. -1.
         11    1    1    2    0    0  0.17993938327E+02  0.64149673666E+01  0.29584284187E+02  0.35215955101E+02  0.00000000000E+00 0.  1.
</event>
<event>
 7    1  0.2842702E-009  0.6390472E+02  0.7561462E-02  0.1382140E+00
          2   -1    0    0  501    0  0.00000000000E+00  0.00000000000E+00  0.15989676445E+03  0.15989676445E+03  0.00000000000E+00 0. -1.
         -2   -1    0    0    0  501 -0.00000000000E+00 -0.00000000000E+00 -0.80816137969E+02  0.80816137969E+02  0.00000000000E+00 0.  1.
         25    2    1    2    0    0 -0.46222889275E+00  0.26639586056E+02  0.22328941492E+02  0.12983171241E+03  0.12509120960E+03 0.  0.
          5    1    3    3  502    0 -0.24133873519E+02  0.12060912306E+01  0.68004498501E+02  0.72290958795E+02  0.41800000000E+01 0. -1.
         -5    1    3    3    0  502  0.23671644627E+02  0.25433494826E+02 -0.45675557009E+02  0.57540753614E+02  0.41800000000E+01 0. -1.
        -11    1    1    2    0    0  0.30702003661E+02 -0.21828783601E+02 -0.86633189826E+01  0.38654390670E+02  0.00000000000E+00 0.  1.
         11    1    1    2    0    0 -0.30239774769E+02 -0.48108024559E+01  0.65415003973E+02  0.72226799342E+02  0.00000000000E+00 0. -1.
</event>
<event>
 7    1  0.2842702E-009  0.9970301E+02  0.7561462E-02  0.1280922E+00
          1   -1    0    0  501    0  0.00000000000E+00  0.00000000000E+00  0.56392897960E+02  0.56392897960E+02  0.00000000000E+00 0. -1.
         -1   -1    0    0    0  501 -0.00000000000E+00 -0.00000000000E+00 -0.22159945564E+03  0.22159945564E+03  0.00000000000E+00 0.  1.
         25    2    1    2    0    0 -0.84441274457E+01  0.18339509349E+02 -0.11496920592E+03  0.17109261799E+03  0.12508846760E+03 0.  0.
          5    1    3    3  502    0  0.77172428744E+01  0.66138374296E+02 -0.32238064991E+02  0.74098620949E+02  0.41800000000E+01 0. -1.
         -5    1    3    3    0  502 -0.16161370320E+02 -0.47798864948E+02 -0.82731140934E+02  0.96993997036E+02  0.41800000000E+01 0. -1.
        -11    1    1    2    0    0 -0.30163402265E+02  0.12494325617E+02 -0.47207665529E+02  0.57397758610E+02  0.00000000000E+00 0.  1.
         11    1    1    2    0    0  0.38607529710E+02 -0.30833834965E+02 -0.30296862285E+01  0.49501977007E+02  0.00000000000E+00 0. -1.
</event>
<event>
 7    1  0.2842702E-009  0.1065879E+03  0.7561462E-02  0.1267022E+00
          2   -1    0    0  501    0  0.00000000000E+00  0.00000000000E+00  0.19970341471E+03  0.19970341471E+03  0.00000000000E+00 0. -1.
         -2   -1    0    0    0  501 -0.00000000000E+00 -0.00000000000E+00 -0.10777292168E+03  0.10777292168E+03  0.00000000000E+00 0.  1.
         25    2    1    2    0    0  0.44687560085E+02 -0.65513699947E+00  0.14147533650E+03  0.19405189852E+03  0.12507382320E+03 0.  0.
          5    1    3    3  502    0  0.78666720662E+02  0.34033938971E+01  0.43210004945E+02  0.89914475793E+02  0.41800000000E+01 0. -1.
         -5    1    3    3    0  502 -0.33979160577E+02 -0.40585308965E+01  0.98265331553E+02  0.10413742273E+03  0.41800000000E+01 0. -1.
        -11    1    1    2    0    0 -0.14809562437E+02 -0.43828741525E+02 -0.34667597019E+02  0.57811106254E+02  0.00000000000E+00 0. -1.
         11    1    1    2    0    0 -0.29877997648E+02  0.44483878525E+02 -0.14877246451E+02  0.55613331621E+02  0.00000000000E+00 0.  1.
</event>
<event>
 7    1  0.3727199E-009  0.1190566E+03  0.7561462E-02  0.1244662E+00
          2   -1    0    0  501    0  0.00000000000E+00  0.00000000000E+00  0.63944223204E+03  0.63944223204E+03  0.00000000000E+00 0. -1.
         -2   -1    0    0    0  501 -0.00000000000E+00 -0.00000000000E+00 -0.24877832050E+02  0.24877832050E+02  0.00000000000E+00 0.  1.
         25    2    1    2    0    0  0.53724447321E+02 -0.27251937851E+01  0.24905351138E+03  0.28384617736E+03  0.12508900012E+03 0.  0.
          5    1    3    3  502    0  0.94738245780E+02 -0.11278302662E+01  0.17771530008E+03  0.20143685734E+03  0.41800000000E+01 0. -1.
         -5    1    3    3    0  502 -0.41013798459E+02 -0.15973635190E+01  0.71338211297E+02  0.82409320015E+02  0.41800000000E+01 0. -1.
        -11    1    1    2    0    0 -0.48240488371E+02 -0.37699304984E+02  0.16835836514E+03  0.17914497321E+03  0.00000000000E+00 0.  1.
         11    1    1    2    0    0 -0.54839589498E+01  0.40424498769E+02  0.19715252348E+03  0.20132891353E+03  0.00000000000E+00 0. -1.
</event>
<event>
 7    1  0.2842702E-009  0.1040150E+03  0.7561462E-02  0.1272073E+00
         -1   -1    0    0    0  501 -0.00000000000E+00  0.00000000000E+00  0.19453319777E+03  0.19453319777E+03  0.00000000000E+00 0.  1.
          1   -1    0    0  501    0  0.00000000000E+00 -0.00000000000E+00 -0.66322753893E+02  0.66322753893E+02  0.00000000000E+00 0. -1.
         25    2    1    2    0    0  0.38550854157E+02  0.13173004034E+02  0.75465279599E+02  0.15166436828E+03  0.12508947114E+03 0.  0.
          5    1    3    3  502    0 -0.19749804134E+02 -0.42843205014E+02  0.44497413847E+02  0.64985284629E+02  0.41800000000E+01 0. -1.
         -5    1    3    3    0  502  0.58300658291E+02  0.56016209048E+02  0.30967865752E+02  0.86679083651E+02  0.41800000000E+01 0. -1.
        -11    1    1    2    0    0 -0.49219349254E+02 -0.31548645115E+02  0.71622030012E+01  0.58899562829E+02  0.00000000000E+00 0. -1.
         11    1    1    2    0    0  0.10668495097E+02  0.18375641082E+02  0.45582961273E+02  0.50292020552E+02  0.00000000000E+00 0.  1.
</event>
<event>
 7    1  0.2842702E-009  0.1126796E+03  0.7561462E-02  0.1255687E+00
          2   -1    0    0  501    0  0.00000000000E+00  0.00000000000E+00  0.12395942075E+02  0.12395942075E+02  0.00000000000E+00 0. -1.
         -2   -1    0    0    0  501 -0.00000000000E+00 -0.00000000000E+00 -0.11322271235E+04  0.11322271235E+04  0.00000000000E+00 0.  1.
         25    2    1    2    0    0 -0.26716888525E+02  0.36635258695E+02 -0.66699491322E+03  0.68013696795E+03  0.12509255218E+03 0.  0.
          5    1    3    3  502    0  0.11678115356E+02 -0.37467806282E+02 -0.10911819735E+03  0.11603649546E+03  0.41800000000E+01 0. -1.
         -5    1    3    3    0  502 -0.38395003881E+02  0.74103064977E+02 -0.55787671587E+03  0.56410047250E+03  0.41800000000E+01 0. -1.
        -11    1    1    2    0    0 -0.34087893304E+02 -0.75001663208E+01 -0.18722812350E+03  0.19045368779E+03  0.00000000000E+00 0.  1.
         11    1    1    2    0    0  0.60804781828E+02 -0.29135092374E+02 -0.26560814473E+03  0.27403240985E+03  0.00000000000E+00 0. -1.
</event>
<event>
 7    1  0.2842702E-009  0.1863872E+03  0.7561462E-02  0.1161761E+00
         -3   -1    0    0    0  501 -0.00000000000E+00  0.00000000000E+00  0.10319200691E+04  0.10319200691E+04  0.00000000000E+00 0.  1.
          3   -1    0    0  501    0  0.00000000000E+00 -0.00000000000E+00 -0.37397800907E+02  0.37397800907E+02  0.00000000000E+00 0. -1.
         25    2    1    2    0    0 -0.15182928229E+03 -0.30241854265E+02  0.66119156708E+03  0.69049945403E+03  0.12509399238E+03 0.  0.
          5    1    3    3  502    0 -0.16292104878E+03 -0.29030116705E+01  0.48119137967E+03  0.50804951715E+03  0.41800000000E+01 0. -1.
         -5    1    3    3    0  502  0.11091766495E+02 -0.27338842594E+02  0.18000018741E+03  0.18244993688E+03  0.41800000000E+01 0. -1.
        -11    1    1    2    0    0  0.69688370887E+02 -0.32227465783E+02  0.14390095304E+03  0.16310292111E+03  0.00000000000E+00 0. -1.
         11    1    1    2    0    0  0.82140911401E+02  0.62469320047E+02  0.18942974810E+03  0.21571549489E+03  0.00000000000E+00 0.  1.
</event>
<event>
 7    1  0.2842702E-009  0.9645477E+02  0.7561462E-02  0.1287933E+00
         -4   -1    0    0    0  501 -0.00000000000E+00  0.00000000000E+00  0.23647366963E+03  0.23647366963E+03  0.00000000000E+00 0. -1.
          4   -1    0    0  501    0  0.00000000000E+00 -0.00000000000E+00 -0.72024343849E+02  0.72024343849E+02  0.00000000000E+00 0.  1.
         25    2    1    2    0    0  0.59330638566E+02 -0.40228962858E+01  0.13896269370E+03  0.19619923117E+03  0.12508876730E+03 0.  0.
          5    1    3    3  502    0  0.82171100566E+02  0.23379667999E+01  0.14891412822E+03  0.17014830543E+03  0.41800000000E+01 0.  1.
         -5    1    3    3    0  502 -0.22840462000E+02 -0.63608630857E+01 -0.99514345126E+01  0.26050925750E+02  0.41800000000E+01 0.  1.
        -11    1    1    2    0    0 -0.60547826074E+02  0.25003829105E+02 -0.14529571539E+02  0.67099472139E+02  0.00000000000E+00 0.  1.
         11    1    1    2    0    0  0.12171875080E+01 -0.20980932820E+02  0.40016203617E+02  0.45199310165E+02  0.00000000000E+00 0. -1.
</event>
<event>
 7    1  0.2842702E-009  0.1034494E+03  0.7561462E-02  0.1273205E+00
         -1   -1    0    0    0  501 -0.00000000000E+00  0.00000000000E+00  0.71794183737E+02  0.71794183737E+02  0.00000000000E+00 0.  1.
          1   -1    0    0  501    0  0.00000000000E+00 -0.00000000000E+00 -0.20365316297E+03  0.20365316297E+03  0.00000000000E+00 0. -1.
         25    2    1    2    0    0 -0.30474188254E+00  0.39859300262E+02 -0.82155439988E+02  0.15486890962E+03  0.12508399642E+03 0.  0.
          5    1    3    3  502    0  0.43445528013E+02  0.43392303835E+02  0.95148394369E-01  0.61545815371E+02  0.41800000000E+01 0. -1.
         -5    1    3    3    0  502 -0.43750269896E+02 -0.35330035731E+01 -0.82250588382E+02  0.93323094245E+02  0.41800000000E+01 0. -1.
        -11    1    1    2    0    0 -0.16970390480E+02 -0.66985576709E+02 -0.10537585049E+02  0.69900660503E+02  0.00000000000E+00 0.  1.
         11    1    1    2    0    0  0.17275132362E+02  0.27126276447E+02 -0.39165954198E+02  0.50677776591E+02  0.00000000000E+00 0. -1.
</event>
<event>
 7    1  0.2842702E-009  0.2326906E+03  0.7561462E-02  0.1124760E+00
         -2   -1    0    0    0  501 -0.00000000000E+00  0.00000000000E+00  0.50379956363E+02  0.50379956363E+02  0.00000000000E+00 0.  1.
          2   -1    0    0  501    0  0.00000000000E+00 -0.00000000000E+00 -0.14132803708E+04  0.14132803708E+04  0.00000000000E+00 0. -1.
         25    2    1    2    0    0 -0.14432033106E+02  0.21397772435E+03 -0.10198809242E+04  0.10496663590E+04  0.12509042921E+03 0.  0.
          5    1    3    3  502    0 -0.67876481225E+02  0.15068359358E+03 -0.68453877112E+03  0.70421840621E+03  0.41800000000E+01 0.  1.
         -5    1    3    3    0  502  0.53444448119E+02  0.63294130777E+02 -0.33534215313E+03  0.34544795279E+03  0.41800000000E+01 0.  1.
        -11    1    1    2    0    0 -0.90273959550E+01 -0.11678301880E+03 -0.11110396641E+03  0.16144305098E+03  0.00000000000E+00 0. -1.
         11    1    1    2    0    0  0.23459429061E+02 -0.97194705556E+02 -0.23191552380E+03  0.25255091720E+03  0.00000000000E+00 0.  1.
</event>
<event>
 7    1  0.2842702E-009  0.1177129E+03  0.7561462E-02  0.1246918E+00
         -2   -1    0    0    0  501 -0.00000000000E+00  0.00000000000E+00  0.28895324339E+03  0.28895324339E+03  0.00000000000E+00 0.  1.
          2   -1    0    0  501    0  0.00000000000E+00 -0.00000000000E+00 -0.50861223403E+02  0.50861223403E+02  0.00000000000E+00 0. -1.
         25    2    1    2    0    0 -0.16107735635E+02  0.53279050578E+02  0.13122128969E+03  0.18964416370E+03  0.12509102918E+03 0.  0.
          5    1    3    3  502    0 -0.65704757654E+02  0.45363006804E+02  0.10741949132E+03  0.13390794255E+03  0.41800000000E+01 0. -1.
         -5    1    3    3    0  502  0.49597022019E+02  0.79160437741E+01  0.23801798373E+02  0.55736221149E+02  0.41800000000E+01 0. -1.
        -11    1    1    2    0    0  0.51545749169E+02 -0.45585841404E+02  0.76242167749E+02  0.10270297628E+03  0.00000000000E+00 0. -1.
         11    1    1    2    0    0 -0.35438013534E+02 -0.76932091737E+01  0.30628562551E+02  0.47467326811E+02  0.00000000000E+00 0.  1.
</event>
<event>
 7    1  0.2842702E-009  0.1818949E+03  0.7561462E-02  0.1165982E+00
         -2   -1    0    0    0  501 -0.00000000000E+00  0.00000000000E+00  0.57825824426E+02  0.57825824426E+02  0.00000000000E+00 0.  1.
          2   -1    0    0  501    0  0.00000000000E+00 -0.00000000000E+00 -0.72780392760E+03  0.72780392760E+03  0.00000000000E+00 0. -1.
         25    2    1    2    0    0  0.59958595735E+02 -0.15461706704E+03 -0.25038718747E+03  0.32533395989E+03  0.12508785386E+03 0.  0.
          5    1    3    3  502    0 -0.29465310458E+02 -0.25322153503E+02 -0.14188687781E+02  0.41571712009E+02  0.41800000000E+01 0. -1.
         -5    1    3    3    0  502  0.89423906193E+02 -0.12929491354E+03 -0.23619849969E+03  0.28376224788E+03  0.41800000000E+01 0. -1.
        -11    1    1    2    0    0 -0.30062954783E+02  0.10772570194E+03 -0.36734174004E+03  0.38399031509E+03  0.00000000000E+00 0. -1.
         11    1    1    2    0    0 -0.29895640952E+02  0.46891365106E+02 -0.52249175654E+02  0.76305477038E+02  0.00000000000E+00 0.  1.
</event>
<event>
 7    1  0.2842702E-009  0.8668365E+02  0.7561462E-02  0.1311087E+00
         -3   -1    0    0    0  501 -0.00000000000E+00  0.00000000000E+00  0.33983320887E+03  0.33983320887E+03  0.00000000000E+00 0.  1.
          3   -1    0    0  501    0  0.00000000000E+00 -0.00000000000E+00 -0.81953856503E+02  0.81953856503E+02  0.00000000000E+00 0. -1.
         25    2    1    2    0    0 -0.32709772664E+02  0.22989179406E+02 -0.14143434014E+02  0.13208555432E+03  0.12509246715E+03 0.  0.
          5    1    3    3  502    0 -0.47343789537E+02  0.42454593802E+02 -0.55104833433E+02  0.84248691446E+02  0.41800000000E+01 0. -1.
         -5    1    3    3    0  502  0.14634016873E+02 -0.19465414396E+02  0.40961399419E+02  0.47836862876E+02  0.41800000000E+01 0. -1.
        -11    1    1    2    0    0 -0.50785750033E+01 -0.42223766489E+02  0.21193103240E+03  0.21615596424E+03  0.00000000000E+00 0.  1.
         11    1    1    2    0    0  0.37788347668E+02  0.19234587083E+02  0.60091753976E+02  0.73545546810E+02  0.00000000000E+00 0. -1.
</event>
<event>
 7    1  0.2842702E-009  0.1811139E+03  0.7561462E-02  0.1166729E+00
         -2   -1    0    0    0  501 -0.00000000000E+00  0.00000000000E+00  0.85510778401E+02  0.85510778401E+02  0.00000000000E+00 0.  1.
          2   -1    0    0  501    0  0.00000000000E+00 -0.00000000000E+00 -0.63612439291E+03  0.63612439291E+03  0.00000000000E+00 0. -1.
         25    2    1    2    0    0  0.11426781030E+03  0.12675112773E+03 -0.10531701602E+03  0.23635163835E+03  0.12508973673E+03 0.  0.
          5    1    3    3  502    0  0.80535214178E+01  0.60818636521E+01 -0.71108836991E+02  0.71942945248E+02  0.41800000000E+01 0.  1.
         -5    1    3    3    0  502  0.10621428888E+03  0.12066926408E+03 -0.34208179031E+02  0.16440869310E+03  0.41800000000E+01 0.  1.
        -11    1    1    2    0    0 -0.65389983533E+02 -0.12560020483E+03 -0.36183460936E+03  0.38855571792E+03  0.00000000000E+00 0. -1.
         11    1    1    2    0    0 -0.48877826766E+02 -0.11509228960E+01 -0.83461989131E+02  0.96727815041E+02  0.00000000000E+00 0.  1.
</event>
<event>
 7    1  0.2842702E-009  0.1456540E+03  0.7561462E-02  0.1205917E+00
         -2   -1    0    0    0  501 -0.00000000000E+00  0.00000000000E+00  0.27368348058E+02  0.27368348058E+02  0.00000000000E+00 0.  1.
          2   -1    0    0  501    0  0.00000000000E+00 -0.00000000000E+00 -0.78209670896E+03  0.78209670896E+03  0.00000000000E+00 0. -1.
         25    2    1    2    0    0 -0.47768012534E+02 -0.92372154837E+02 -0.42591017938E+03  0.45591702260E+03  0.12508578092E+03 0.  0.
          5    1    3    3  502    0 -0.87294632905E+02 -0.38585992079E+02 -0.23784253821E+03  0.25631187468E+03  0.41800000000E+01 0. -1.
         -5    1    3    3    0  502  0.39526620371E+02 -0.53786162758E+02 -0.18806764117E+03  0.19960514792E+03  0.41800000000E+01 0. -1.
        -11    1    1    2    0    0  0.58255420478E+02  0.29770667071E+02 -0.18882766175E+03  0.19983961688E+03  0.00000000000E+00 0. -1.
         11    1    1    2    0    0 -0.10487407944E+02  0.62601487766E+02 -0.13999051977E+03  0.15370841754E+03  0.00000000000E+00 0.  1.
</event>
<event>
 7    1  0.2842702E-009  0.1033313E+03  0.7561462E-02  0.1273443E+00
         -2   -1    0    0    0  501 -0.00000000000E+00  0.00000000000E+00  0.49424926129E+03  0.49424926129E+03  0.00000000000E+00 0.  1.
          2   -1    0    0  501    0  0.00000000000E+00 -0.00000000000E+00 -0.35645190441E+02  0.35645190441E+02  0.00000000000E+00 0. -1.
         25    2    1    2    0    0 -0.14498171201E+02  0.74433544829E+02  0.25493591236E+03  0.29391862722E+03  0.12508113547E+03 0.  0.
          5    1    3    3  502    0  0.37663191986E+02  0.56815177536E+02  0.58670437758E+02  0.90034288445E+02  0.41800000000E+01 0. -1.
         -5    1    3    3    0  502 -0.52161363187E+02  0.17618367293E+02  0.19626547461E+03  0.20388433878E+03  0.41800000000E+01 0. -1.
        -11    1    1    2    0    0  0.25775652543E+02 -0.52986105810E+02  0.20337880981E+03  0.21174241888E+03  0.00000000000E+00 0.  1.
         11    1    1    2    0    0 -0.11277481342E+02 -0.21447439018E+02  0.28934867501E+00  0.24233405632E+02  0.00000000000E+00 0. -1.
</event>
<event>
 7    1  0.2842702E-009  0.1001225E+03  0.7561462E-02  0.1280039E+00
          1   -1    0    0  501    0  0.00000000000E+00  0.00000000000E+00  0.62918582530E+03  0.62918582530E+03  0.00000000000E+00 0. -1.
         -1   -1    0    0    0  501 -0.00000000000E+00 -0.00000000000E+00 -0.19486356270E+02  0.19486356270E+02  0.00000000000E+00 0.  1.
         25    2    1    2    0    0 -0.27320000711E+02 -0.57584640220E+01  0.36410410660E+03  0.38600429277E+03  0.12509185124E+03 0.  0.
          5    1    3    3  502    0  0.12548687199E+01  0.52112300295E+02  0.24453186039E+03  0.25006113190E+03  0.41800000000E+01 0. -1.
         -5    1    3    3    0  502 -0.28574869431E+02 -0.57870764318E+02  0.11957224621E+03  0.13594316088E+03  0.41800000000E+01 0. -1.
        -11    1    1    2    0    0 -0.11683837576E+02  0.33455151259E+02  0.49850022979E+02  0.61161948933E+02  0.00000000000E+00 0.  1.
         11    1    1    2    0    0  0.39003838287E+02 -0.27696687237E+02  0.19574533944E+03  0.20150593986E+03  0.00000000000E+00 0. -1.
</event>
<event>
 7    1  0.2842702E-009  0.1923122E+03  0.7561462E-02  0.1156392E+00
          2   -1    0    0  501    0  0.00000000000E+00  0.00000000000E+00  0.74202874082E+03  0.74202874082E+03  0.00000000000E+00 0. -1.
         -2   -1    0    0    0  501 -0.00000000000E+00 -0.00000000000E+00 -0.54562653617E+02  0.54562653617E+02  0.00000000000E+00 0.  1.
         25    2    1    2    0    0  0.14967743053E+03  0.82728790686E+02  0.35491965836E+03  0.41335543787E+03  0.12508944044E+03 0.  0.
          5    1    3    3  502    0  0.90906181011E+02 -0.20214897733E+02  0.15170301462E+03  0.17805575779E+03  0.41800000000E+01 0. -1.
         -5    1    3    3    0  502  0.58771249515E+02  0.10294368842E+03  0.20321664374E+03  0.23529968008E+03  0.41800000000E+01 0. -1.
        -11    1    1    2    0    0 -0.35237485085E+02 -0.80641792001E+01  0.15519991929E+03  0.15935409090E+03  0.00000000000E+00 0. -1.
         11    1    1    2    0    0 -0.11443994544E+03 -0.74664611486E+02  0.17734650956E+03  0.22388186567E+03  0.00000000000E+00 0.  1.
</event>
<event>
 7    1  0.2862200E-009  0.1044198E+03  0.7561462E-02  0.1271267E+00
          2   -1    0    0  501    0  0.00000000000E+00  0.00000000000E+00  0.26844879814E+03  0.26844879814E+03  0.00000000000E+00 0. -1.
         -2   -1    0    0    0  501 -0.00000000000E+00 -0.00000000000E+00 -0.59469093467E+02  0.59469093467E+02  0.00000000000E+00 0.  1.
         25    2    1    2    0    0  0.30415690668E+01 -0.17604921774E+02  0.36253098654E+02  0.13144221905E+03  0.12507431941E+03 0.  0.
          5    1    3    3  502    0 -0.27307024263E+02  0.41970855673E+02  0.40180334475E+02  0.64336288194E+02  0.41800000000E+01 0. -1.
         -5    1    3    3    0  502  0.30348593330E+02 -0.59575777447E+02 -0.39272358205E+01  0.67105930861E+02  0.41800000000E+01 0. -1.
        -11    1    1    2    0    0 -0.93527119080E+01 -0.36220272055E+02  0.91265118328E+02  0.98634188551E+02  0.00000000000E+00 0. -1.
         11    1    1    2    0    0  0.63111428413E+01  0.53825193828E+02  0.81461487691E+02  0.97841484000E+02  0.00000000000E+00 0.  1.
</event>
<event>
 7    1  0.2842702E-009  0.1137329E+03  0.7561462E-02  0.1253809E+00
          1   -1    0    0  501    0  0.00000000000E+00  0.00000000000E+00  0.73400037525E+02  0.73400037525E+02  0.00000000000E+00 0. -1.
         -1   -1    0    0    0  501 -0.00000000000E+00 -0.00000000000E+00 -0.25324251410E+03  0.25324251410E+03  0.00000000000E+00 0.  1.
         25    2    1    2    0    0  0.11554098734E+02 -0.81037139223E+02 -0.10240622420E+03  0.18119944938E+03  0.12508273489E+03 0.  0.
          5    1    3    3  502    0 -0.20811852658E+02  0.25577983928E+02 -0.44552059881E+02  0.55585294031E+02  0.41800000000E+01 0. -1.
         -5    1    3    3    0  502  0.32365951392E+02 -0.10661512315E+03 -0.57854164320E+02  0.12561415535E+03  0.41800000000E+01 0. -1.
        -11    1    1    2    0    0  0.12868068869E+01  0.32384907308E+02  0.18349933463E+02  0.37244572107E+02  0.00000000000E+00 0. -1.
         11    1    1    2    0    0 -0.12840905621E+02  0.48652231914E+02 -0.95786185834E+02  0.10819853014E+03  0.00000000000E+00 0.  1.
</event>
<event>
 7    1  0.2842702E-009  0.2224441E+03  0.7561462E-02  0.1132074E+00
          1   -1    0    0  501    0  0.00000000000E+00  0.00000000000E+00  0.90405070894E+03  0.90405070894E+03  0.00000000000E+00 0. -1.
         -1   -1    0    0    0  501 -0.00000000000E+00 -0.00000000000E+00 -0.73351092110E+02  0.73351092110E+02  0.00000000000E+00 0.  1.
         25    2    1    2    0    0 -0.98406159543E+02 -0.19396163218E+03  0.58167262063E+03  0.63347902253E+03  0.12509095650E+03 0.  0.
          5    1    3    3  502    0 -0.87026806467E+02 -0.14578460319E+03  0.54735781487E+03  0.57310109533E+03  0.41800000000E+01 0.  1.
         -5    1    3    3    0  502 -0.11379353075E+02 -0.48177028985E+02  0.34314805764E+02  0.60377927199E+02  0.41800000000E+01 0.  1.
        -11    1    1    2    0    0  0.46945192691E+02  0.35764225827E+02  0.23145594389E+02  0.63392819037E+02  0.00000000000E+00 0.  1.
         11    1    1    2    0    0  0.51460966851E+02  0.15819740635E+03  0.22588140181E+03  0.28052995949E+03  0.00000000000E+00 0. -1.
</event>
<event>
 7    1  0.2842702E-009  0.9102854E+02  0.7561462E-02  0.1300380E+00
          2   -1    0    0  501    0  0.00000000000E+00  0.00000000000E+00  0.62579539589E+03  0.62579539589E+03  0.00000000000E+00 0. -1.
         -2   -1    0    0    0  501 -0.00000000000E+00 -0.00000000000E+00 -0.34560953953E+02  0.34560953953E+02  0.00000000000E+00 0.  1.
         25    2    1    2    0    0  0.47609153622E+02  0.25089544657E+02  0.54308408962E+03  0.55989671253E+03  0.12509150070E+03 0.  0.
          5    1    3    3  502    0  0.31736333060E+02 -0.43187192006E+02  0.35660601127E+03  0.36063506216E+03  0.41800000000E+01 0.  1.
         -5    1    3    3    0  502  0.15872820562E+02  0.68276736663E+02  0.18647807835E+03  0.19926165037E+03  0.41800000000E+01 0.  1.
        -11    1    1    2    0    0 -0.29067579589E+02 -0.29753724431E+01 -0.13652019297E+02  0.32251428732E+02  0.00000000000E+00 0.  1.
         11    1    1    2    0    0 -0.18541574032E+02 -0.22114172214E+02  0.61802371612E+02  0.68208208577E+02  0.00000000000E+00 0. -1.
</event>
<event>
 7    1  0.2842702E-009  0.1536654E+03  0.7561462E-02  0.1196040E+00
         -1   -1    0    0    0  501 -0.00000000000E+00  0.00000000000E+00  0.37526873537E+02  0.37526873537E+02  0.00000000000E+00 0.  1.
          1   -1    0    0  501    0  0.00000000000E+00 -0.00000000000E+00 -0.94258644394E+03  0.94258644394E+03  0.00000000000E+00 0. -1.
         25    2    1    2    0    0  0.13432838420E+03 -0.37164477650E+02 -0.64307082289E+03  0.66978606257E+03  0.12509185888E+03 0.  0.
          5    1    3    3  502    0  0.12654240026E+03 -0.38069475192E+02 -0.64678357459E+03  0.66015810891E+03  0.41800000000E+01 0. -1.
         -5    1    3    3    0  502  0.77859839411E+01  0.90499754173E+00  0.37127516971E+01  0.96279536583E+01  0.41800000000E+01 0. -1.
        -11    1    1    2    0    0  0.76849985161E+01 -0.13435408105E+02 -0.27497191441E+02  0.31554158684E+02  0.00000000000E+00 0. -1.
         11    1    1    2    0    0 -0.14201338271E+03  0.50599885755E+02 -0.23449155607E+03  0.27877309622E+03  0.00000000000E+00 0.  1.
</event>
<event>
 7    1  0.2842702E-009  0.8155501E+02  0.7561462E-02  0.1324696E+00
         -1   -1    0    0    0  501 -0.00000000000E+00  0.00000000000E+00  0.11102121679E+03  0.11102121679E+03  0.00000000000E+00 0.  1.
          1   -1    0    0  501    0  0.00000000000E+00 -0.00000000000E+00 -0.19508182724E+03  0.19508182724E+03  0.00000000000E+00 0. -1.
         25    2    1    2    0    0  0.38730812207E+02  0.19438696735E+02 -0.13866196649E+03  0.19170952134E+03  0.12508981123E+03 0.  0.
          5    1    3    3  502    0  0.38685983095E+02  0.62822437263E+02 -0.40409607467E+02  0.84223943670E+02  0.41800000000E+01 0. -1.
         -5    1    3    3    0  502  0.44829112141E-01 -0.43383740527E+02 -0.98252359027E+02  0.10748557767E+03  0.41800000000E+01 0. -1.
        -11    1    1    2    0    0 -0.15753005058E+02 -0.35113636029E+00  0.76020484792E+02  0.77636296751E+02  0.00000000000E+00 0.  1.
         11    1    1    2    0    0 -0.22977807149E+02 -0.19087560375E+02 -0.21419128748E+02  0.36757225939E+02  0.00000000000E+00 0. -1.
</event>
<event>
 7    1  0.2842702E-009  0.1182796E+03  0.7561462E-02  0.1245962E+00
         -1   -1    0    0    0  501 -0.00000000000E+00  0.00000000000E+00  0.24972825995E+03  0.24972825995E+03  0.00000000000E+00 0.  1.
          1   -1    0    0  501    0  0.00000000000E+00 -0.00000000000E+00 -0.92562479499E+02  0.92562479499E+02  0.00000000000E+00 0. -1.
         25    2    1    2    0    0 -0.50888146447E+02  0.63838951526E+02  0.10305421619E+02  0.14972969214E+03  0.12509102211E+03 0.  0.
          5    1    3    3  502    0 -0.55236327856E+00  0.68264794264E+02 -0.39229078344E+02  0.78846561299E+02  0.41800000000E+01 0. -1.
         -5    1    3    3    0  502 -0.50335783168E+02 -0.44258427377E+01  0.49534499963E+02  0.70883130840E+02  0.41800000000E+01 0. -1.
        -11    1    1    2    0    0  0.23565061988E+02 -0.81559373617E+02  0.13157454224E+03  0.15658577118E+03  0.00000000000E+00 0.  1.
         11    1    1    2    0    0  0.27323084459E+02  0.17720422091E+02  0.15285816590E+02  0.35975276125E+02  0.00000000000E+00 0. -1.
</event>
<event>
 7    1  0.2842702E-009  0.9383736E+02  0.7561462E-02  0.1293816E+00
         -1   -1    0    0    0  501 -0.00000000000E+00  0.00000000000E+00  0.26889787442E+03  0.26889787442E+03  0.00000000000E+00 0.  1.
          1   -1    0    0  501    0  0.00000000000E+00 -0.00000000000E+00 -0.49499673264E+02  0.49499673264E+02  0.00000000000E+00 0. -1.
         25    2    1    2    0    0 -0.28173872481E+02 -0.29765888640E+02  0.14952926543E+03  0.19921398495E+03  0.12508970925E+03 0.  0.
          5    1    3    3  502    0 -0.54117272119E+02 -0.55707956299E+02  0.14143608394E+03  0.16141156643E+03  0.41800000000E+01 0.  1.
         -5    1    3    3    0  502  0.25943399638E+02  0.25942067660E+02  0.80931814896E+01  0.37802418518E+02  0.41800000000E+01 0.  1.
        -11    1    1    2    0    0  0.37946210778E+02 -0.36814622423E+01 -0.31723200877E+01  0.38256132729E+02  0.00000000000E+00 0. -1.
         11    1    1    2    0    0 -0.97723382966E+01  0.33447350882E+02  0.73041255813E+02  0.80927430007E+02  0.00000000000E+00 0.  1.
</event>
<event>
 7    1  0.2842702E-009  0.2074534E+03  0.7561462E-02  0.1143599E+00
         -2   -1    0    0    0  501 -0.00000000000E+00  0.00000000000E+00  0.58483322385E+02  0.58483322385E+02  0.00000000000E+00 0. -1.
          2   -1    0    0  501    0  0.00000000000E+00 -0.00000000000E+00 -0.95972714838E+03  0.95972714838E+03  0.00000000000E+00 0.  1.
         25    2    1    2    0    0 -0.13421691198E+03  0.14338070229E+03 -0.30534691163E+03  0.38400007092E+03  0.12508841980E+03 0.  0.
          5    1    3    3  502    0 -0.58804885656E+02  0.33220977818E+02 -0.22685100302E+02  0.71370400866E+02  0.41800000000E+01 0.  1.
         -5    1    3    3    0  502 -0.75412026329E+02  0.11015972447E+03 -0.28266181133E+03  0.31262967005E+03  0.41800000000E+01 0.  1.
        -11    1    1    2    0    0  0.92487569526E+02 -0.37383618313E+02 -0.33477863007E+03  0.34932537352E+03  0.00000000000E+00 0.  1.
         11    1    1    2    0    0  0.41729342458E+02 -0.10599708398E+03 -0.26111828430E+03  0.28488502633E+03  0.00000000000E+00 0. -1.
</event>
<event>
 7    1  0.2842702E-009  0.1495632E+03  0.7561462E-02  0.1201011E+00
          2   -1    0    0  501    0  0.00000000000E+00  0.00000000000E+00  0.50512762440E+03  0.50512762440E+03  0.00000000000E+00 0. -1.
         -2   -1    0    0    0  501 -0.00000000000E+00 -0.00000000000E+00 -0.56052703658E+02  0.56052703658E+02  0.00000000000E+00 0.  1.
         25    2    1    2    0    0 -0.97554487443E+02  0.84348295193E+02  0.26442849252E+03  0.31968870514E+03  0.12508767972E+03 0.  0.
          5    1    3    3  502    0  0.11338436132E+02  0.53593615699E+02  0.38852290671E+02  0.67288993661E+02  0.41800000000E+01 0.  1.
         -5    1    3    3    0  502 -0.10889292358E+03  0.30754679494E+02  0.22557620185E+03  0.25239971148E+03  0.41800000000E+01 0.  1.
        -11    1    1    2    0    0  0.16717140140E+02 -0.27319209021E+02  0.17194302288E-01  0.32028147802E+02  0.00000000000E+00 0.  1.
         11    1    1    2    0    0  0.80837347304E+02 -0.57029086172E+02  0.18462923392E+03  0.20946347512E+03  0.00000000000E+00 0. -1.
</event>
<event>
 7    1  0.2842702E-009  0.1112305E+03  0.7561462E-02  0.1258308E+00
          2   -1    0    0  501    0  0.00000000000E+00  0.00000000000E+00  0.17147109343E+03  0.17147109343E+03  0.00000000000E+00 0. -1.
         -2   -1    0    0    0  501 -0.00000000000E+00 -0.00000000000E+00 -0.92340579996E+02  0.92340579996E+02  0.00000000000E+00 0.  1.
         25    2    1    2    0    0  0.45841160132E+02 -0.42027204276E+02  0.56143940036E+02  0.15055799270E+03  0.12509144375E+03 0.  0.
          5    1    3    3  502    0 -0.36212219467E+02  0.13248785616E+02  0.49994336344E+01  0.39106545432E+02  0.41800000000E+01 0.  1.
         -5    1    3    3    0  502  0.82053379598E+02 -0.55275989893E+02  0.51144506401E+02  0.11145144726E+03  0.41800000000E+01 0.  1.
        -11    1    1    2    0    0 -0.52359466613E+02  0.51309950171E+02 -0.13941389242E+02  0.74622966067E+02  0.00000000000E+00 0.  1.
         11    1    1    2    0    0  0.65183064816E+01 -0.92827458944E+01  0.36927962643E+02  0.38630714667E+02  0.00000000000E+00 0. -1.
</event>
<event>
 7    1  0.2842702E-009  0.1493616E+03  0.7561462E-02  0.1201260E+00
          1   -1    0    0  501    0  0.00000000000E+00  0.00000000000E+00  0.45028596730E+02  0.45028596730E+02  0.00000000000E+00 0. -1.
         -1   -1    0    0    0  501 -0.00000000000E+00 -0.00000000000E+00 -0.81170143936E+03  0.81170143936E+03  0.00000000000E+00 0.  1.
         25    2    1    2    0    0 -0.40452440352E+02  0.11429269313E+03 -0.62546799113E+03  0.64927426205E+03  0.12509052640E+03 0.  0.
          5    1    3    3  502    0 -0.63534427025E+02  0.10537901866E+03 -0.32144722991E+03  0.34421963193E+03  0.41800000000E+01 0. -1.
         -5    1    3    3    0  502  0.23081986673E+02  0.89136744765E+01 -0.30402076123E+03  0.30505463012E+03  0.41800000000E+01 0. -1.
        -11    1    1    2    0    0  0.69035461579E+02 -0.75234748355E+02 -0.81820639223E+02  0.13084639589E+03  0.00000000000E+00 0.  1.
         11    1    1    2    0    0 -0.28583021227E+02 -0.39057944779E+02 -0.59384212277E+02  0.76609378150E+02  0.00000000000E+00 0. -1.
</event>
<event>
 7    1  0.2842702E-009  0.8059651E+02  0.7561462E-02  0.1327367E+00
          3   -1    0    0  501    0  0.00000000000E+00  0.00000000000E+00  0.85035381938E+02  0.85035381938E+02  0.00000000000E+00 0. -1.
         -3   -1    0    0    0  501 -0.00000000000E+00 -0.00000000000E+00 -0.21170229030E+03  0.21170229030E+03  0.00000000000E+00 0.  1.
         25    2    1    2    0    0  0.43889804357E+02  0.22056212339E+02 -0.26047902911E+01  0.13441376670E+03  0.12508990494E+03 0.  0.
          5    1    3    3  502    0  0.51646797659E+02  0.21318522347E+02 -0.56633562338E+02  0.79666202914E+02  0.41800000000E+01 0. -1.
         -5    1    3    3    0  502 -0.77569933018E+01  0.73768999114E+00  0.54028772047E+02  0.54747563786E+02  0.41800000000E+01 0. -1.
        -11    1    1    2    0    0 -0.62885399863E+02  0.51981031457E+01 -0.10878018486E+03  0.12575659987E+03  0.00000000000E+00 0.  1.
         11    1    1    2    0    0  0.18995595505E+02 -0.27254315484E+02 -0.15281933205E+02  0.36567305665E+02  0.00000000000E+00 0. -1.
</event>
<event>
 7    1  0.2842702E-009  0.1120577E+03  0.7561462E-02  0.1256806E+00
         -2   -1    0    0    0  501 -0.00000000000E+00  0.00000000000E+00  0.33041918913E+03  0.33041918913E+03  0.00000000000E+00 0.  1.
          2   -1    0    0  501    0  0.00000000000E+00 -0.00000000000E+00 -0.52223412813E+02  0.52223412813E+02  0.00000000000E+00 0. -1.
         25    2    1    2    0    0 -0.19890336338E+02  0.32998647640E+02  0.19067506850E+03  0.23127605718E+03  0.12508835538E+03 0.  0.
          5    1    3    3  502    0 -0.44114778760E+02 -0.33999475856E+02  0.11135256052E+03  0.12457505046E+03  0.41800000000E+01 0. -1.
         -5    1    3    3    0  502  0.24224442422E+02  0.66998123496E+02  0.79322507977E+02  0.10670100672E+03  0.41800000000E+01 0. -1.
        -11    1    1    2    0    0  0.25694134771E+02  0.26619411509E+02 -0.87169593287E+01  0.38010090906E+02  0.00000000000E+00 0. -1.
         11    1    1    2    0    0 -0.58037984337E+01 -0.59618059149E+02  0.96237667150E+02  0.11335645386E+03  0.00000000000E+00 0.  1.
</event>
<event>
 7    1  0.2842702E-009  0.1309256E+03  0.7561462E-02  0.1226089E+00
         -2   -1    0    0    0  501 -0.00000000000E+00  0.00000000000E+00  0.42617166251E+03  0.42617166251E+03  0.00000000000E+00 0. -1.
          2   -1    0    0  501    0  0.00000000000E+00 -0.00000000000E+00 -0.50753470144E+02  0.50753470144E+02  0.00000000000E+00 0.  1.
         25    2    1    2    0    0 -0.48362693241E+02  0.59677765920E+02  0.30239459487E+03  0.33613916069E+03  0.12508660400E+03 0.  0.
          5    1    3    3  502    0  0.22212996474E+02 -0.23499871029E+02  0.37858842696E+02  0.49964242424E+02  0.41800000000E+01 0.  1.
         -5    1    3    3    0  502 -0.70575689715E+02  0.83177636949E+02  0.26453575217E+03  0.28617491827E+03  0.41800000000E+01 0.  1.
        -11    1    1    2    0    0 -0.82358657869E+01 -0.62855865550E+02  0.43385440886E+02  0.76817874224E+02  0.00000000000E+00 0.  1.
         11    1    1    2    0    0  0.56598559028E+02  0.31780996303E+01  0.29638156612E+02  0.63968097741E+02  0.00000000000E+00 0. -1.
</event>
<event>
 7    1  0.2842702E-009  0.6727333E+02  0.7561462E-02  0.1369619E+00
          2   -1    0    0  501    0  0.00000000000E+00  0.00000000000E+00  0.86687861595E+02  0.86687861595E+02  0.00000000000E+00 0. -1.
         -2   -1    0    0    0  501 -0.00000000000E+00 -0.00000000000E+00 -0.27340644211E+03  0.27340644211E+03  0.00000000000E+00 0.  1.
         25    2    1    2    0    0 -0.31530303539E+02 -0.20494448138E+02 -0.22035010676E+03  0.25615597177E+03  0.12509008704E+03 0.  0.
          5    1    3    3  502    0 -0.32537944649E+02  0.15087638281E+02 -0.21719541923E+03  0.22017646832E+03  0.41800000000E+01 0.  1.
         -5    1    3    3    0  502  0.10076411100E+01 -0.35582086420E+02 -0.31546875350E+01  0.35979503443E+02  0.41800000000E+01 0.  1.
        -11    1    1    2    0    0  0.14143527504E+02  0.36388436346E+02  0.58083831952E+02  0.69984921263E+02  0.00000000000E+00 0. -1.
         11    1    1    2    0    0  0.17386776035E+02 -0.15893988208E+02 -0.24452305706E+02  0.33953410674E+02  0.00000000000E+00 0.  1.
</event>
<event>
 7    1  0.2842702E-009  0.1102970E+03  0.7561462E-02  0.1260021E+00
          2   -1    0    0  501    0  0.00000000000E+00  0.00000000000E+00  0.11475496686E+03  0.11475496686E+03  0.00000000000E+00 0. -1.
         -2   -1    0    0    0  501 -0.00000000000E+00 -0.00000000000E+00 -0.13699426218E+03  0.13699426218E+03  0.00000000000E+00 0.  1.
         25    2    1    2    0    0 -0.35167646747E+02 -0.52030653353E+02 -0.64029262458E+01  0.14011187014E+03  0.12508551644E+03 0.  0.
          5    1    3    3  502    0 -0.29102459727E+02  0.28781327316E+02  0.30253868548E+02  0.51069432407E+02  0.41800000000E+01 0. -1.
         -5    1    3    3    0  502 -0.60651870194E+01 -0.80811980668E+02 -0.36656794794E+02  0.89042437734E+02  0.41800000000E+01 0. -1.
        -11    1    1    2    0    0  0.56255675254E+02  0.19507773945E+02  0.15801836205E+02  0.61603183928E+02  0.00000000000E+00 0.  1.
         11    1    1    2    0    0 -0.21088028507E+02  0.32522879408E+02 -0.31638205280E+02  0.50034174967E+02  0.00000000000E+00 0. -1.
</event>
<event>
 7    1  0.3984725E-009  0.1090389E+03  0.7561462E-02  0.1262360E+00
         -2   -1    0    0    0  501 -0.00000000000E+00  0.00000000000E+00  0.14559677551E+02  0.14559677551E+02  0.00000000000E+00 0.  1.
          2   -1    0    0  501    0  0.00000000000E+00 -0.00000000000E+00 -0.12412761773E+04  0.12412761773E+04  0.00000000000E+00 0. -1.
         25    2    1    2    0    0  0.54654792660E+02 -0.17360542311E+02 -0.93125199436E+03  0.94136407862E+03  0.12509003441E+03 0.  0.
          5    1    3    3  502    0 -0.13457114834E+02 -0.51408287029E+02 -0.54880345038E+03  0.55138607660E+03  0.41800000000E+01 0. -1.
         -5    1    3    3    0  502  0.68111907494E+02  0.34047744718E+02 -0.38244854398E+03  0.38997800202E+03  0.41800000000E+01 0. -1.
        -11    1    1    2    0    0 -0.63599708317E+01 -0.24060058159E+02 -0.20501206705E+02  0.32243373024E+02  0.00000000000E+00 0.  1.
         11    1    1    2    0    0 -0.48294821828E+02  0.41420600470E+02 -0.27496329869E+03  0.28222840322E+03  0.00000000000E+00 0. -1.
</event>
<event>
 7    1  0.2842702E-009  0.8768811E+02  0.7561462E-02  0.1308549E+00
         -2   -1    0    0    0  501 -0.00000000000E+00  0.00000000000E+00  0.27386032318E+03  0.27386032318E+03  0.00000000000E+00 0.  1.
          2   -1    0    0  501    0  0.00000000000E+00 -0.00000000000E+00 -0.48165230504E+02  0.48165230504E+02  0.00000000000E+00 0. -1.
         25    2    1    2    0    0 -0.19262793136E+01  0.24240591877E+02  0.82572516459E+02  0.15184520251E+03  0.12508968065E+03 0.  0.
          5    1    3    3  502    0  0.37273326888E+02  0.37676939761E+02 -0.64585490377E+01  0.53554065604E+02  0.41800000000E+01 0.  1.
         -5    1    3    3    0  502 -0.39199606202E+02 -0.13436347884E+02  0.89031065496E+02  0.98291136906E+02  0.41800000000E+01 0.  1.
        -11    1    1    2    0    0 -0.29893272195E+02  0.12111159483E+02  0.20080045067E+02  0.37993369375E+02  0.00000000000E+00 0. -1.
         11    1    1    2    0    0  0.31819551509E+02 -0.36351751361E+02  0.12304253115E+03  0.13218698180E+03  0.00000000000E+00 0.  1.
</event>
<event>
 7    1  0.2842702E-009  0.9409074E+02  0.7561462E-02  0.1293237E+00
         -1   -1    0    0    0  501 -0.00000000000E+00  0.00000000000E+00  0.13326192581E+02  0.13326192581E+02  0.00000000000E+00 0.  1.
          1   -1    0    0  501    0  0.00000000000E+00 -0.00000000000E+00 -0.11703860815E+04  0.11703860815E+04  0.00000000000E+00 0. -1.
         25    2    1    2    0    0 -0.53104487718E+02 -0.24475004490E+02 -0.56897802834E+03  0.58549037872E+03  0.12507547473E+03 0.  0.
          5    1    3    3  502    0 -0.43305174638E+02 -0.41236330512E+02 -0.56082835129E+03  0.56402277003E+03  0.41800000000E+01 0.  1.
         -5    1    3    3    0  502 -0.97993130801E+01  0.16761326022E+02 -0.81496770560E+01  0.21467608693E+02  0.41800000000E+01 0.  1.
        -11    1    1    2    0    0  0.74271679577E+02  0.37828121796E+02 -0.48743923502E+03  0.49451416261E+03  0.00000000000E+00 0.  1.
         11    1    1    2    0    0 -0.21167191858E+02 -0.13353117306E+02 -0.10064262558E+03  0.10370773277E+03  0.00000000000E+00 0. -1.
</event>
<event>
 7    1  0.2842702E-009  0.9215403E+02  0.7561462E-02  0.1297718E+00
          2   -1    0    0  501    0  0.00000000000E+00  0.00000000000E+00  0.99780252766E+02  0.99780252766E+02  0.00000000000E+00 0. -1.
         -2   -1    0    0    0  501 -0.00000000000E+00 -0.00000000000E+00 -0.21370917491E+03  0.21370917491E+03  0.00000000000E+00 0.  1.
         25    2    1    2    0    0 -0.25488960428E+02  0.63238408005E+01  0.38343211716E+02  0.13345505623E+03  0.12510144717E+03 0.  0.
          5    1    3    3  502    0 -0.22531161163E+02  0.44907474924E+02  0.67908363030E+02  0.84577495215E+02  0.41800000000E+01 0. -1.
         -5    1    3    3    0  502 -0.29577992651E+01 -0.38583634124E+02 -0.29565151315E+02  0.48877561017E+02  0.41800000000E+01 0. -1.
        -11    1    1    2    0    0 -0.34568618219E+02 -0.47329907257E+01 -0.43404692233E+02  0.55689836367E+02  0.00000000000E+00 0. -1.
         11    1    1    2    0    0  0.60057578647E+02 -0.15908500748E+01 -0.10886744162E+03  0.12434453507E+03  0.00000000000E+00 0.  1.
</event>
<event>
 7    1  0.2842702E-009  0.1612951E+03  0.7561462E-02  0.1187242E+00
          2   -1    0    0  501    0  0.00000000000E+00  0.00000000000E+00  0.14675795373E+03  0.14675795373E+03  0.00000000000E+00 0. -1.
         -2   -1    0    0    0  501 -0.00000000000E+00 -0.00000000000E+00 -0.21563917733E+03  0.21563917733E+03  0.00000000000E+00 0.  1.
         25    2    1    2    0    0 -0.50814174185E+01  0.14018801876E+03 -0.35180605565E+02  0.19121628379E+03  0.12508993073E+03 0.  0.
          5    1    3    3  502    0  0.44971070775E+02  0.92803135658E+02  0.17085965786E+02  0.10461463483E+03  0.41800000000E+01 0. -1.
         -5    1    3    3    0  502 -0.50052488193E+02  0.47384883107E+02 -0.52266571350E+02  0.86601648957E+02  0.41800000000E+01 0. -1.
        -11    1    1    2    0    0  0.28544781060E+02 -0.54963108646E+02  0.23108684174E+02  0.66104153591E+02  0.00000000000E+00 0. -1.
         11    1    1    2    0    0 -0.23463363642E+02 -0.85224910119E+02 -0.56809302211E+02  0.10507669369E+03  0.00000000000E+00 0.  1.
</event>
<event>
 7    1  0.2842702E-009  0.9174799E+02  0.7561462E-02  0.1298673E+00
         -1   -1    0    0    0  501 -0.00000000000E+00  0.00000000000E+00  0.64404009268E+02  0.64404009268E+02  0.00000000000E+00 0.  1.
          1   -1    0    0  501    0  0.00000000000E+00 -0.00000000000E+00 -0.22506677510E+03  0.22506677510E+03  0.00000000000E+00 0. -1.
         25    2    1    2    0    0  0.24508507237E+02  0.44843826468E+02 -0.10446844413E+03  0.17079986297E+03  0.12508917488E+03 0.  0.
          5    1    3    3  502    0  0.12843235464E+02 -0.38093244362E+02 -0.68540974296E+02  0.79569978765E+02  0.41800000000E+01 0.  1.
         -5    1    3    3    0  502  0.11665271774E+02  0.82937070830E+02 -0.35927469837E+02  0.91229884206E+02  0.41800000000E+01 0.  1.
        -11    1    1    2    0    0 -0.28430066593E+02 -0.21746246781E+02  0.18568570350E+02  0.40323191099E+02  0.00000000000E+00 0.  1.
         11    1    1    2    0    0  0.39215593561E+01 -0.23097579687E+02 -0.74762892053E+02  0.78347730301E+02  0.00000000000E+00 0. -1.
</event>
<event>
 7    1  0.2842702E-009  0.9755046E+02  0.7561462E-02  0.1285533E+00
          2   -1    0    0  501    0  0.00000000000E+00  0.00000000000E+00  0.19321060170E+03  0.19321060170E+03  0.00000000000E+00 0.  1.
         -2   -1    0    0    0  501 -0.00000000000E+00 -0.00000000000E+00 -0.73691296009E+02  0.73691296009E+02  0.00000000000E+00 0. -1.
         25    2    1    2    0    0  0.12395564467E+02  0.21026912899E+02  0.19642047926E+02  0.12895502784E+03  0.12509119903E+03 0.  0.
          5    1    3    3  502    0  0.54428101798E+02  0.20543931799E+02 -0.28492099298E+02  0.64913353954E+02  0.41800000000E+01 0.  1.
         -5    1    3    3    0  502 -0.42032537331E+02  0.48298109964E+00  0.48134147224E+02  0.64041673887E+02  0.41800000000E+01 0.  1.
        -11    1    1    2    0    0 -0.52252505408E+02 -0.10316526646E+02  0.63987121880E+02  0.83253269064E+02  0.00000000000E+00 0. -1.
         11    1    1    2    0    0  0.39856940941E+02 -0.10710386253E+02  0.35890135882E+02  0.54693600799E+02  0.00000000000E+00 0.  1.
</event>
<event>
 7    1  0.2842702E-009  0.9750701E+02  0.7561462E-02  0.1285627E+00
          2   -1    0    0  501    0  0.00000000000E+00  0.00000000000E+00  0.23760934314E+03  0.23760934314E+03  0.00000000000E+00 0. -1.
         -2   -1    0    0    0  501 -0.00000000000E+00 -0.00000000000E+00 -0.59184970073E+02  0.59184970073E+02  0.00000000000E+00 0.  1.
         25    2    1    2    0    0  0.19833620734E+02  0.44556810167E+02  0.88372539491E+02  0.16073756272E+03  0.12509267161E+03 0.  0.
          5    1    3    3  502    0 -0.31354398630E+02  0.69646223198E+02  0.58105576085E+02  0.96059487254E+02  0.41800000000E+01 0. -1.
         -5    1    3    3    0  502  0.51188019364E+02 -0.25089413031E+02  0.30266963406E+02  0.64678075470E+02  0.41800000000E+01 0. -1.
        -11    1    1    2    0    0  0.11104767161E+02 -0.95853905489E+01 -0.15070407884E+02  0.21031232951E+02  0.00000000000E+00 0.  1.
         11    1    1    2    0    0 -0.30938387894E+02 -0.34971419618E+02  0.10512224146E+03  0.11502551754E+03  0.00000000000E+00 0. -1.
</event>
<event>
 7    1  0.2842702E-009  0.1155539E+03  0.7561462E-02  0.1250617E+00
          1   -1    0    0  501    0  0.00000000000E+00  0.00000000000E+00  0.25559863975E+03  0.25559863975E+03  0.00000000000E+00 0. -1.
         -1   -1    0    0    0  501 -0.00000000000E+00 -0.00000000000E+00 -0.74354202015E+02  0.74354202015E+02  0.00000000000E+00 0.  1.
         25    2    1    2    0    0 -0.45816818627E+02 -0.68236719274E+02  0.11877486920E+03  0.19107697777E+03  0.12509001220E+03 0.  0.
          5    1    3    3  502    0 -0.88522178792E+02 -0.53113717558E+02  0.72758340535E+02  0.12636649733E+03  0.41800000000E+01 0. -1.
         -5    1    3    3    0  502  0.42705360166E+02 -0.15123001716E+02  0.46016528663E+02  0.64710480434E+02  0.41800000000E+01 0. -1.
        -11    1    1    2    0    0  0.33658427784E+02  0.53232770818E+02 -0.10095448683E+02  0.63785074539E+02  0.00000000000E+00 0.  1.
         11    1    1    2    0    0  0.12158390843E+02  0.15003948456E+02  0.72565017222E+02  0.75090789459E+02  0.00000000000E+00 0. -1.
</event>
<event>
 7    1  0.2842702E-009  0.2295455E+03  0.7561462E-02  0.1126960E+00
         -1   -1    0    0    0  501 -0.00000000000E+00  0.00000000000E+00  0.20621254829E+03  0.20621254829E+03  0.00000000000E+00 0.  1.
          1   -1    0    0  501    0  0.00000000000E+00 -0.00000000000E+00 -0.28392349657E+03  0.28392349657E+03  0.00000000000E+00 0. -1.
         25    2    1    2    0    0 -0.16208495106E+03  0.14209082216E+03 -0.49602292975E+02  0.25409798784E+03  0.12507624416E+03 0.  0.
          5    1    3    3  502    0 -0.51438057111E+02  0.11989508023E+03  0.55552381296E+00  0.13053154787E+03  0.41800000000E+01 0. -1.
         -5    1    3    3    0  502 -0.11064689395E+03  0.22195741924E+02 -0.50157816788E+02  0.12356643996E+03  0.41800000000E+01 0. -1.
        -11    1    1    2    0    0  0.10855745239E+03 -0.91389584966E+02 -0.62044315076E+02  0.15487502621E+03  0.00000000000E+00 0. -1.
         11    1    1    2    0    0  0.53527498670E+02 -0.50701237192E+02  0.33935659774E+02  0.81163030814E+02  0.00000000000E+00 0.  1.
</event>
<event>
 7    1  0.2842702E-009  0.5201829E+02  0.7561462E-02  0.1434750E+00
         -2   -1    0    0    0  501 -0.00000000000E+00  0.00000000000E+00  0.37226828839E+02  0.37226828839E+02  0.00000000000E+00 0.  1.
          2   -1    0    0  501    0  0.00000000000E+00 -0.00000000000E+00 -0.30886774530E+03  0.30886774530E+03  0.00000000000E+00 0. -1.
         25    2    1    2    0    0 -0.16140276892E+02 -0.10047372199E+01 -0.12183481797E+03  0.17536470672E+03  0.12509012535E+03 0.  0.
          5    1    3    3  502    0  0.21366590511E+02 -0.66316493766E+01 -0.13353051819E+03  0.13545619827E+03  0.41800000000E+01 0. -1.
         -5    1    3    3    0  502 -0.37506867403E+02  0.56269121567E+01  0.11695700222E+02  0.39908508447E+02  0.41800000000E+01 0. -1.
        -11    1    1    2    0    0 -0.50714177751E+01  0.16234534289E+02  0.16047525119E+01  0.17083752880E+02  0.00000000000E+00 0.  1.
         11    1    1    2    0    0  0.21211694667E+02 -0.15229797070E+02 -0.15141085101E+03  0.15364611454E+03  0.00000000000E+00 0. -1.
</event>
<event>
 7    1  0.2842702E-009  0.1092095E+03  0.7561462E-02  0.1262041E+00
          2   -1    0    0  501    0  0.00000000000E+00  0.00000000000E+00  0.12585956276E+03  0.12585956276E+03  0.00000000000E+00 0.  1.
         -2   -1    0    0    0  501 -0.00000000000E+00 -0.00000000000E+00 -0.11766616448E+03  0.11766616448E+03  0.00000000000E+00 0. -1.
         25    2    1    2    0    0  0.59627178066E+02 -0.67447498781E+01  0.88892479217E+00  0.13874763844E+03  0.12509686235E+03 0.  0.
          5    1    3    3  502    0  0.67409739571E+02 -0.41318709371E+02 -0.36393805231E+02  0.87139486986E+02  0.41800000000E+01 0. -1.
         -5    1    3    3    0  502 -0.77825615045E+01  0.34573959492E+02  0.37282730023E+02  0.51608151454E+02  0.41800000000E+01 0. -1.
        -11    1    1    2    0    0  0.97700839930E+01  0.29062633037E+02 -0.43054077084E+01  0.30961713709E+02  0.00000000000E+00 0.  1.
         11    1    1    2    0    0 -0.69397262059E+02 -0.22317883159E+02  0.11609881197E+02  0.73816375090E+02  0.00000000000E+00 0. -1.
</event>
<event>
 7    1  0.2842702E-009  0.1369732E+03  0.7561462E-02  0.1217461E+00
          2   -1    0    0  501    0  0.00000000000E+00  0.00000000000E+00  0.94662767387E+03  0.94662767387E+03  0.00000000000E+00 0. -1.
         -2   -1    0    0    0  501 -0.00000000000E+00 -0.00000000000E+00 -0.20773198652E+02  0.20773198652E+02  0.00000000000E+00 0.  1.
         25    2    1    2    0    0 -0.70706032325E+02 -0.51916449194E+02  0.53198370699E+03  0.55348806137E+03  0.12509080248E+03 0.  0.
          5    1    3    3  502    0 -0.59079119023E+02  0.32125944736E+02  0.21423773377E+03  0.22458338674E+03  0.41800000000E+01 0. -1.
         -5    1    3    3    0  502 -0.11626913302E+02 -0.84042393929E+02  0.31774597322E+03  0.32890467462E+03  0.41800000000E+01 0. -1.
        -11    1    1    2    0    0  0.86607839897E+02  0.24633238617E+02  0.33743952780E+03  0.34924654515E+03  0.00000000000E+00 0. -1.
         11    1    1    2    0    0 -0.15901807572E+02  0.27283210576E+02  0.56431240425E+02  0.64666266007E+02  0.00000000000E+00 0.  1.
</event>
<event>
 7    1  0.2842702E-009  0.2010628E+03  0.7561462E-02  0.1148845E+00
         -2   -1    0    0    0  501 -0.00000000000E+00  0.00000000000E+00  0.11289817671E+03  0.11289817671E+03  0.00000000000E+00 0.  1.
          2   -1    0    0  501    0  0.00000000000E+00 -0.00000000000E+00 -0.75055214547E+03  0.75055214547E+03  0.00000000000E+00 0. -1.
         25    2    1    2    0    0 -0.11668054251E+03 -0.14530443017E+03 -0.61437227958E+03  0.65408305032E+03  0.12507442736E+03 0.  0.
          5    1    3    3  502    0  0.76877284356E+01 -0.45136391359E+02 -0.27715021446E+03  0.28093790910E+03  0.41800000000E+01 0. -1.
         -5    1    3    3    0  502 -0.12436827094E+03 -0.10016803881E+03 -0.33722206512E+03  0.37314514122E+03  0.41800000000E+01 0. -1.
        -11    1    1    2    0    0  0.10146112789E+03  0.79599861029E+02 -0.47903802601E+02  0.13756915589E+03  0.00000000000E+00 0. -1.
         11    1    1    2    0    0  0.15219414613E+02  0.65704569137E+02  0.24622113417E+02  0.71798115963E+02  0.00000000000E+00 0.  1.
</event>
<event>
 7    1  0.2842702E-009  0.7972569E+02  0.7561462E-02  0.1329832E+00
          1   -1    0    0  501    0  0.00000000000E+00  0.00000000000E+00  0.13159383144E+04  0.13159383144E+04  0.00000000000E+00 0. -1.
         -1   -1    0    0    0  501 -0.00000000000E+00 -0.00000000000E+00 -0.14676947557E+02  0.14676947557E+02  0.00000000000E+00 0.  1.
         25    2    1    2    0    0 -0.32477427655E+02 -0.37728698069E+02  0.10345693731E+04  0.10432924702E+04  0.12508857939E+03 0.  0.
          5    1    3    3  502    0 -0.26370923296E+02 -0.11646497128E+02  0.46628076221E+02  0.54979235925E+02  0.41800000000E+01 0.  1.
         -5    1    3    3    0  502 -0.61065043596E+01 -0.26082200941E+02  0.98794129690E+03  0.98831323432E+03  0.41800000000E+01 0.  1.
        -11    1    1    2    0    0  0.58490494315E+02  0.13733006564E+01  0.11281214785E+03  0.12708109451E+03  0.00000000000E+00 0.  1.
         11    1    1    2    0    0 -0.26013066659E+02  0.36355397413E+02  0.15387984589E+03  0.16024169723E+03  0.00000000000E+00 0. -1.
</event>
<event>
 7    1  0.2842702E-009  0.9358767E+02  0.7561462E-02  0.1294389E+00
          2   -1    0    0  501    0  0.00000000000E+00  0.00000000000E+00  0.43643245647E+03  0.43643245647E+03  0.00000000000E+00 0.  1.
         -2   -1    0    0    0  501 -0.00000000000E+00 -0.00000000000E+00 -0.48938323091E+02  0.48938323091E+02  0.00000000000E+00 0. -1.
         25    2    1    2    0    0 -0.11517853677E+02  0.78840289279E+02  0.11913329521E+03  0.19023186550E+03  0.12508784297E+03 0.  0.
          5    1    3    3  502    0  0.16603158675E+02  0.56394448523E+01  0.10966338624E+03  0.11113504802E+03  0.41800000000E+01 0.  1.
         -5    1    3    3    0  502 -0.28121012352E+02  0.73200844427E+02  0.94699089707E+01  0.79096817486E+02  0.41800000000E+01 0.  1.
        -11    1    1    2    0    0  0.25733001493E+02 -0.28894754486E+02  0.22255815290E+03  0.22589649316E+03  0.00000000000E+00 0.  1.
         11    1    1    2    0    0 -0.14215147816E+02 -0.49945534793E+02  0.45802685271E+02  0.69242420894E+02  0.00000000000E+00 0. -1.
</event>
<event>
 7    1  0.2842702E-009  0.6789458E+02  0.7561462E-02  0.1367403E+00
         -2   -1    0    0    0  501 -0.00000000000E+00  0.00000000000E+00  0.26855149026E+02  0.26855149026E+02  0.00000000000E+00 0.  1.
          2   -1    0    0  501    0  0.00000000000E+00 -0.00000000000E+00 -0.48629135779E+03  0.48629135779E+03  0.00000000000E+00 0. -1.
         25    2    1    2    0    0 -0.56266689582E+01  0.36980718430E+02 -0.25061873841E+03  0.28258537969E+03  0.12508202043E+03 0.  0.
          5    1    3    3  502    0 -0.25310519713E+01  0.38160757321E+02 -0.72393365365E+01  0.39147541646E+02  0.41800000000E+01 0. -1.
         -5    1    3    3    0  502 -0.30956169869E+01 -0.11800388909E+01 -0.24337940188E+03  0.24343783805E+03  0.41800000000E+01 0. -1.
        -11    1    1    2    0    0 -0.33673812668E+02 -0.40330462465E+02 -0.78937549696E+02  0.94824093005E+02  0.00000000000E+00 0.  1.
         11    1    1    2    0    0  0.39300481626E+02  0.33497440343E+01 -0.12987992065E+03  0.13573703411E+03  0.00000000000E+00 0. -1.
</event>
<event>
 7    1  0.2842702E-009  0.1075620E+03  0.7561462E-02  0.1265152E+00
          2   -1    0    0  501    0  0.00000000000E+00  0.00000000000E+00  0.44037328166E+02  0.44037328166E+02  0.00000000000E+00 0. -1.
         -2   -1    0    0    0  501 -0.00000000000E+00 -0.00000000000E+00 -0.49905892924E+03  0.49905892924E+03  0.00000000000E+00 0.  1.
         25    2    1    2    0    0  0.13816113702E+02  0.57516012131E+02 -0.38688937058E+03  0.41088875584E+03  0.12508880031E+03 0.  0.
          5    1    3    3  502    0  0.49492206753E+02  0.50953896218E+02 -0.35605843435E+03  0.36309896604E+03  0.41800000000E+01 0.  1.
         -5    1    3    3    0  502 -0.35676093051E+02  0.65621159129E+01 -0.30830936226E+02  0.47789789800E+02  0.41800000000E+01 0.  1.
        -11    1    1    2    0    0 -0.52288359179E+02 -0.32700423889E+02 -0.59351000781E+02  0.85591655679E+02  0.00000000000E+00 0.  1.
         11    1    1    2    0    0  0.38472245477E+02 -0.24815588242E+02 -0.87812297132E+01  0.46615845880E+02  0.00000000000E+00 0. -1.
</event>
<event>
 7    1  0.2842702E-009  0.9255946E+02  0.7561462E-02  0.1296769E+00
         -2   -1    0    0    0  501 -0.00000000000E+00  0.00000000000E+00  0.24393898986E+03  0.24393898986E+03  0.00000000000E+00 0.  1.
          2   -1    0    0  501    0  0.00000000000E+00 -0.00000000000E+00 -0.64999876704E+02  0.64999876704E+02  0.00000000000E+00 0. -1.
         25    2    1    2    0    0 -0.23274032201E+01  0.64753731678E+02  0.11640845929E+03  0.18274812649E+03  0.12508991073E+03 0.  0.
          5    1    3    3  502    0  0.44586853955E+02  0.35775598370E+02  0.11376017905E+03  0.12738418945E+03  0.41800000000E+01 0. -1.
         -5    1    3    3    0  502 -0.46914257175E+02  0.28978133308E+02  0.26482802471E+01  0.55363937040E+02  0.41800000000E+01 0. -1.
        -11    1    1    2    0    0  0.16533356339E+02 -0.46618708221E+02 -0.96734962447E+01  0.50400717828E+02  0.00000000000E+00 0. -1.
         11    1    1    2    0    0 -0.14205953119E+02 -0.18135023458E+02  0.72204150108E+02  0.75790022250E+02  0.00000000000E+00 0.  1.
</event>
<event>
 7    1  0.2842702E-009  0.9581440E+02  0.7561462E-02  0.1289352E+00
         -1   -1    0    0    0  501 -0.00000000000E+00  0.00000000000E+00  0.29370961873E+02  0.29370961873E+02  0.00000000000E+00 0.  1.
          1   -1    0    0  501    0  0.00000000000E+00 -0.00000000000E+00 -0.66080887673E+03  0.66080887673E+03  0.00000000000E+00 0. -1.
         25    2    1    2    0    0  0.65837791646E+02  0.56913229030E+02 -0.37732515547E+03  0.40693186539E+03  0.12508213171E+03 0.  0.
          5    1    3    3  502    0  0.72404259785E+02  0.47316486070E+02 -0.11322759384E+03  0.14254538609E+03  0.41800000000E+01 0. -1.
         -5    1    3    3    0  502 -0.65664681391E+01  0.95967429599E+01 -0.26409756162E+03  0.26438647929E+03  0.41800000000E+01 0. -1.
        -11    1    1    2    0    0 -0.23786913691E+01 -0.18171821107E+02  0.16047498933E+00  0.18327547768E+02  0.00000000000E+00 0.  1.
         11    1    1    2    0    0 -0.63459100277E+02 -0.38741407923E+02 -0.25427323438E+03  0.26492042544E+03  0.00000000000E+00 0. -1.
</event>
<event>
 7    1  0.2842702E-009  0.9380435E+02  0.7561462E-02  0.1293892E+00
          1   -1    0    0  501    0  0.00000000000E+00  0.00000000000E+00  0.51273096856E+02  0.51273096856E+02  0.00000000000E+00 0. -1.
         -1   -1    0    0    0  501 -0.00000000000E+00 -0.00000000000E+00 -0.32847116210E+03  0.32847116210E+03  0.00000000000E+00 0.  1.
         25    2    1    2    0    0  0.59896051855E+02 -0.38521835394E+02 -0.15407370133E+03  0.21084956690E+03  0.12508943038E+03 0.  0.
          5    1    3    3  502    0  0.49294538174E+02 -0.36326597509E+02 -0.52788888098E+01  0.61602859085E+02  0.41800000000E+01 0.  1.
         -5    1    3    3    0  502  0.10601513681E+02 -0.21952378846E+01 -0.14879481252E+03  0.14924670782E+03  0.41800000000E+01 0.  1.
        -11    1    1    2    0    0 -0.14921817027E+02 -0.29513039177E+02 -0.25985288078E+02  0.42058474786E+02  0.00000000000E+00 0. -1.
         11    1    1    2    0    0 -0.44974234828E+02  0.68034874571E+02 -0.97139075834E+02  0.12683621726E+03  0.00000000000E+00 0.  1.
</event>
<event>
 7    1  0.2842702E-009  0.1391045E+03  0.7561462E-02  0.1214539E+00
         -1   -1    0    0    0  501 -0.00000000000E+00  0.00000000000E+00  0.57458832760E+02  0.57458832760E+02  0.00000000000E+00 0.  1.
          1   -1    0    0  501    0  0.00000000000E+00 -0.00000000000E+00 -0.47765978763E+03  0.47765978763E+03  0.00000000000E+00 0. -1.
         25    2    1    2    0    0  0.11884343912E+03  0.38716667560E+02 -0.22468074178E+03  0.28592305922E+03  0.12509123350E+03 0.  0.
          5    1    3    3  502    0  0.75588653613E+02  0.29994867578E+02 -0.22737689331E+03  0.24151824082E+03  0.41800000000E+01 0.  1.
         -5    1    3    3    0  502  0.43254785512E+02  0.87217999823E+01  0.26961515283E+01  0.44404818406E+02  0.41800000000E+01 0.  1.
        -11    1    1    2    0    0 -0.12594132430E+03 -0.13972338817E+02 -0.14551600575E+03  0.19295427269E+03  0.00000000000E+00 0.  1.
         11    1    1    2    0    0  0.70978851721E+01 -0.24744328743E+02 -0.50004207339E+02  0.56241288485E+02  0.00000000000E+00 0. -1.
</event>
<event>
 7    1  0.2842702E-009  0.1033902E+03  0.7561462E-02  0.1273324E+00
         -4   -1    0    0    0  501 -0.00000000000E+00  0.00000000000E+00  0.21078369541E+03  0.21078369541E+03  0.00000000000E+00 0.  1.
          4   -1    0    0  501    0  0.00000000000E+00 -0.00000000000E+00 -0.87808425506E+02  0.87808425506E+02  0.00000000000E+00 0. -1.
         25    2    1    2    0    0 -0.73382859702E+02 -0.19478863798E+02  0.60213783267E+02  0.15823438475E+03  0.12509176867E+03 0.  0.
          5    1    3    3  502    0 -0.54350334069E+02  0.39488276831E+02  0.67957224979E+02  0.95650089635E+02  0.41800000000E+01 0. -1.
         -5    1    3    3    0  502 -0.19032525633E+02 -0.58967140629E+02 -0.77434417121E+01  0.62584295118E+02  0.41800000000E+01 0. -1.
        -11    1    1    2    0    0  0.96393781904E+01  0.81513822362E+01 -0.26929292573E+02  0.29741375939E+02  0.00000000000E+00 0. -1.
         11    1    1    2    0    0  0.63743481511E+02  0.11327481562E+02  0.89690779206E+02  0.11061636022E+03  0.00000000000E+00 0.  1.
</event>
<event>
 7    1  0.2842702E-009  0.2351760E+03  0.7561462E-02  0.1123049E+00
         -2   -1    0    0    0  501 -0.00000000000E+00  0.00000000000E+00  0.63159117581E+02  0.63159117581E+02  0.00000000000E+00 0.  1.
          2   -1    0    0  501    0  0.00000000000E+00 -0.00000000000E+00 -0.99761522049E+03  0.99761522049E+03  0.00000000000E+00 0. -1.
         25    2    1    2    0    0 -0.62194375849E+02 -0.19263212027E+03 -0.37138894471E+03  0.44108287858E+03  0.12509629642E+03 0.  0.
          5    1    3    3  502    0 -0.24269683109E+02 -0.11158685815E+02 -0.14941313979E+03  0.15183969352E+03  0.41800000000E+01 0. -1.
         -5    1    3    3    0  502 -0.37924692740E+02 -0.18147343445E+03 -0.22197580492E+03  0.28924318506E+03  0.41800000000E+01 0. -1.
        -11    1    1    2    0    0  0.10944660531E+03  0.17699677845E+03 -0.47378564137E+03  0.51747391526E+03  0.00000000000E+00 0. -1.
         11    1    1    2    0    0 -0.47252229464E+02  0.15635341815E+02 -0.89281516830E+02  0.10221754424E+03  0.00000000000E+00 0.  1.
</event>
<event>
 7    1  0.2842702E-009  0.4670180E+02  0.7561462E-02  0.1463989E+00
         -3   -1    0    0    0  501 -0.00000000000E+00  0.00000000000E+00  0.94762882449E+02  0.94762882449E+02  0.00000000000E+00 0.  1.
          3   -1    0    0  501    0  0.00000000000E+00 -0.00000000000E+00 -0.12445100976E+03  0.12445100976E+03  0.00000000000E+00 0. -1.
         25    2    1    2    0    0  0.82393741878E+00 -0.16709880446E+02 -0.24091172354E+02  0.12848917787E+03  0.12509670366E+03 0.  0.
          5    1    3    3  502    0  0.73030237350E+00  0.67473875063E+01  0.50015286636E+02  0.50646439924E+02  0.41800000000E+01 0.  1.
         -5    1    3    3    0  502  0.93635045288E-01 -0.23457267952E+02 -0.74106458989E+02  0.77842737948E+02  0.41800000000E+01 0.  1.
        -11    1    1    2    0    0  0.16015979545E+02  0.33930122165E+02  0.29797142938E+02  0.47912780322E+02  0.00000000000E+00 0.  1.
         11    1    1    2    0    0 -0.16839916964E+02 -0.17220241719E+02 -0.35394097899E+02  0.42811934017E+02  0.00000000000E+00 0. -1.
</event>
<event>
 7    1  0.3354844E-009  0.1287657E+03  0.7561462E-02  0.1229299E+00
          2   -1    0    0  501    0  0.00000000000E+00  0.00000000000E+00  0.89851897988E+03  0.89851897988E+03  0.00000000000E+00 0. -1.
         -2   -1    0    0    0  501 -0.00000000000E+00 -0.00000000000E+00 -0.21253261455E+02  0.21253261455E+02  0.00000000000E+00 0.  1.
         25    2    1    2    0    0 -0.86091929176E+01 -0.83079363857E+02  0.53764281946E+03  0.55828637983E+03  0.12509029412E+03 0.  0.
          5    1    3    3  502    0 -0.55203143550E+02 -0.85563605529E+02  0.32773900754E+03  0.34321836651E+03  0.41800000000E+01 0.  1.
         -5    1    3    3    0  502  0.46593950632E+02  0.24842416715E+01  0.20990381192E+03  0.21506801331E+03  0.41800000000E+01 0.  1.
        -11    1    1    2    0    0 -0.28852131699E+02  0.54458522604E+02  0.27300179603E+03  0.27987167921E+03  0.00000000000E+00 0. -1.
         11    1    1    2    0    0  0.37461324616E+02  0.28620841253E+02  0.66621102935E+02  0.81614182299E+02  0.00000000000E+00 0.  1.
</event>
<event>
 7    1  0.2842702E-009  0.9751372E+02  0.7561462E-02  0.1285613E+00
         -2   -1    0    0    0  501 -0.00000000000E+00  0.00000000000E+00  0.46691114131E+02  0.46691114131E+02  0.00000000000E+00 0.  1.
          2   -1    0    0  501    0  0.00000000000E+00 -0.00000000000E+00 -0.44516083256E+03  0.44516083256E+03  0.00000000000E+00 0. -1.
         25    2    1    2    0    0  0.50646440758E+02 -0.52289824120E+02 -0.11483711785E+03  0.18475392320E+03  0.12508861193E+03 0.  0.
          5    1    3    3  502    0  0.73353314451E+02 -0.40236929739E+02 -0.12997374865E+03  0.15462977395E+03  0.41800000000E+01 0. -1.
         -5    1    3    3    0  502 -0.22706873693E+02 -0.12052894382E+02  0.15136630798E+02  0.30124149246E+02  0.41800000000E+01 0. -1.
        -11    1    1    2    0    0 -0.45546889721E+02  0.15559827917E+02 -0.25693648436E+03  0.26140578495E+03  0.00000000000E+00 0. -1.
         11    1    1    2    0    0 -0.50995510373E+01  0.36729996203E+02 -0.26696116220E+02  0.45692238543E+02  0.00000000000E+00 0.  1.
</event>
<event>
 7    1  0.2842702E-009  0.1077544E+03  0.7561462E-02  0.1264786E+00
         -1   -1    0    0    0  501 -0.00000000000E+00  0.00000000000E+00  0.97382951710E+02  0.97382951710E+02  0.00000000000E+00 0.  1.
          1   -1    0    0  501    0  0.00000000000E+00 -0.00000000000E+00 -0.15546032140E+03  0.15546032140E+03  0.00000000000E+00 0. -1.
         25    2    1    2    0    0 -0.45294814586E+02  0.23977185498E+02 -0.58776988970E+02  0.14740534634E+03  0.12508827301E+03 0.  0.
          5    1    3    3  502    0 -0.30703916646E+02  0.65030915672E+02  0.25259627853E+01  0.72080533978E+02  0.41800000000E+01 0. -1.
         -5    1    3    3    0  502 -0.14590897940E+02 -0.41053730174E+02 -0.61302951755E+02  0.75324812364E+02  0.41800000000E+01 0. -1.
        -11    1    1    2    0    0  0.63386010993E+02  0.70601696644E+01  0.16974676611E+02  0.65998272942E+02  0.00000000000E+00 0.  1.
         11    1    1    2    0    0 -0.18091196407E+02 -0.31037355163E+02 -0.16275057334E+02  0.39439653829E+02  0.00000000000E+00 0. -1.
</event>
<event>
 7    1  0.3233913E-009  0.2573839E+03  0.7561462E-02  0.1108725E+00
         -2   -1    0    0    0  501 -0.00000000000E+00  0.00000000000E+00  0.14801404018E+03  0.14801404018E+03  0.00000000000E+00 0. -1.
          2   -1    0    0  501    0  0.00000000000E+00 -0.00000000000E+00 -0.45550038965E+03  0.45550038965E+03  0.00000000000E+00 0.  1.
         25    2    1    2    0    0  0.95915666329E+02 -0.21340070044E+03 -0.18869348348E+03  0.32556522979E+03  0.12509122330E+03 0.  0.
          5    1    3    3  502    0  0.16241109049E+02 -0.17354442696E+03 -0.10666225345E+03  0.20439117022E+03  0.41800000000E+01 0. -1.
         -5    1    3    3    0  502  0.79674557280E+02 -0.39856273475E+02 -0.82031230028E+02  0.12117405957E+03  0.41800000000E+01 0. -1.
        -11    1    1    2    0    0 -0.63770045596E+02  0.40899455109E+02 -0.33160141278E+02  0.82698120372E+02  0.00000000000E+00 0.  1.
         11    1    1    2    0    0 -0.32145620733E+02  0.17250124533E+03 -0.85632724704E+02  0.19525107967E+03  0.00000000000E+00 0. -1.
</event>
<event>
 7    1  0.2842702E-009  0.2400718E+03  0.7561462E-02  0.1119745E+00
         -1   -1    0    0    0  501 -0.00000000000E+00  0.00000000000E+00  0.15552201518E+04  0.15552201518E+04  0.00000000000E+00 0.  1.
          1   -1    0    0  501    0  0.00000000000E+00 -0.00000000000E+00 -0.43489509987E+02  0.43489509987E+02  0.00000000000E+00 0. -1.
         25    2    1    2    0    0 -0.19301453008E+03  0.12170945766E+03  0.96253313504E+03  0.99708862918E+03  0.12509155643E+03 0.  0.
          5    1    3    3  502    0 -0.17312027920E+03  0.56691904788E+02  0.56192406747E+03  0.59072898451E+03  0.41800000000E+01 0.  1.
         -5    1    3    3    0  502 -0.19894250882E+02  0.65017552877E+02  0.40060906757E+03  0.40635964467E+03  0.41800000000E+01 0.  1.
        -11    1    1    2    0    0  0.14894258454E+03 -0.79720503019E+02  0.29227125406E+03  0.33758219449E+03  0.00000000000E+00 0. -1.
         11    1    1    2    0    0  0.44071945537E+02 -0.41988954646E+02  0.25692625276E+03  0.26403883816E+03  0.00000000000E+00 0.  1.
</event>
<event>
 7    1  0.2842702E-009  0.1409213E+03  0.7561462E-02  0.1212095E+00
          2   -1    0    0  501    0  0.00000000000E+00  0.00000000000E+00  0.16666265136E+03  0.16666265136E+03  0.00000000000E+00 0. -1.
         -2   -1    0    0    0  501 -0.00000000000E+00 -0.00000000000E+00 -0.12460263249E+03  0.12460263249E+03  0.00000000000E+00 0.  1.
         25    2    1    2    0    0 -0.26925384816E+02  0.88750306858E+02  0.22298960878E+02  0.15731097739E+03  0.12509159298E+03 0.  0.
          5    1    3    3  502    0 -0.66722158764E+02  0.14638643526E+02  0.25479925085E+02  0.73026264705E+02  0.41800000000E+01 0.  1.
         -5    1    3    3    0  502  0.39796773948E+02  0.74111663332E+02 -0.31809642070E+01  0.84284712682E+02  0.41800000000E+01 0.  1.
        -11    1    1    2    0    0 -0.33457839983E+02 -0.33117352325E+02 -0.70100545550E+01  0.47595450898E+02  0.00000000000E+00 0. -1.
         11    1    1    2    0    0  0.60383224799E+02 -0.55632954533E+02  0.26771112545E+02  0.86358855563E+02  0.00000000000E+00 0.  1.
</event>
<event>
 7    1  0.2842702E-009  0.8343719E+02  0.7561462E-02  0.1319571E+00
          2   -1    0    0  501    0  0.00000000000E+00  0.00000000000E+00  0.96229854453E+02  0.96229854453E+02  0.00000000000E+00 0. -1.
         -2   -1    0    0    0  501 -0.00000000000E+00 -0.00000000000E+00 -0.20614046287E+03  0.20614046287E+03  0.00000000000E+00 0.  1.
         25    2    1    2    0    0  0.15121507620E+02 -0.61483679878E+02 -0.12447024925E+03  0.18749042907E+03  0.12510361769E+03 0.  0.
          5    1    3    3  502    0 -0.90746762706E+00 -0.20089156178E+02 -0.13906723432E+03  0.14057583632E+03  0.41800000000E+01 0.  1.
         -5    1    3    3    0  502  0.16028975247E+02 -0.41394523700E+02  0.14596985075E+02  0.46914592752E+02  0.41800000000E+01 0.  1.
        -11    1    1    2    0    0  0.20187505721E+02  0.63252281940E+02 -0.15834103254E+02  0.68257639746E+02  0.00000000000E+00 0.  1.
         11    1    1    2    0    0 -0.35309013341E+02 -0.17686020627E+01  0.30393744086E+02  0.46622248508E+02  0.00000000000E+00 0. -1.
</event>
<event>
 7    1  0.2842702E-009  0.9679829E+02  0.7561462E-02  0.1287176E+00
         -1   -1    0    0    0  501 -0.00000000000E+00  0.00000000000E+00  0.45542604273E+02  0.45542604273E+02  0.00000000000E+00 0.  1.
          1   -1    0    0  501    0  0.00000000000E+00 -0.00000000000E+00 -0.37841389826E+03  0.37841389826E+03  0.00000000000E+00 0. -1.
         25    2    1    2    0    0 -0.29423778574E+02 -0.61481888890E+01 -0.29349869216E+03  0.32045849792E+03  0.12509439482E+03 0.  0.
          5    1    3    3  502    0  0.31695477630E+02  0.20864398860E+02 -0.20995015962E+03  0.21339275612E+03  0.41800000000E+01 0. -1.
         -5    1    3    3    0  502 -0.61119256205E+02 -0.27012587749E+02 -0.83548532542E+02  0.10706574179E+03  0.41800000000E+01 0. -1.
        -11    1    1    2    0    0  0.33735629781E+02  0.41144429765E+02 -0.42502354254E+02  0.68098509048E+02  0.00000000000E+00 0. -1.
         11    1    1    2    0    0 -0.43118512069E+01 -0.34996240877E+02  0.31297524261E+01  0.35399495569E+02  0.00000000000E+00 0.  1.
</event>
<event>
 7    1  0.2842702E-009  0.1629173E+03  0.7561462E-02  0.1185442E+00
         -2   -1    0    0    0  501 -0.00000000000E+00  0.00000000000E+00  0.11216994709E+03  0.11216994709E+03  0.00000000000E+00 0.  1.
          2   -1    0    0  501    0  0.00000000000E+00 -0.00000000000E+00 -0.29355149162E+03  0.29355149162E+03  0.00000000000E+00 0. -1.
         25    2    1    2    0    0 -0.13563663106E+03 -0.12790755742E+01 -0.44101726087E+02  0.18971071323E+03  0.12508501409E+03 0.  0.
          5    1    3    3  502    0 -0.11723114987E+03  0.31424992218E+02 -0.73415297443E+02  0.14190824830E+03  0.41800000000E+01 0.  1.
         -5    1    3    3    0  502 -0.18405481195E+02 -0.32704067793E+02  0.29313571356E+02  0.47802464935E+02  0.41800000000E+01 0.  1.
        -11    1    1    2    0    0  0.12664154218E+03 -0.33264593137E+02 -0.10410897153E+03  0.16728207111E+03  0.00000000000E+00 0.  1.
         11    1    1    2    0    0  0.89950888835E+01  0.34543668712E+02 -0.33170846911E+02  0.48728654372E+02  0.00000000000E+00 0. -1.
</event>
<event>
 7    1  0.2842702E-009  0.9925662E+02  0.7561462E-02  0.1281867E+00
          1   -1    0    0  501    0  0.00000000000E+00  0.00000000000E+00  0.72350751724E+02  0.72350751724E+02  0.00000000000E+00 0. -1.
         -1   -1    0    0    0  501 -0.00000000000E+00 -0.00000000000E+00 -0.27536688166E+03  0.27536688166E+03  0.00000000000E+00 0.  1.
         25    2    1    2    0    0  0.36849449944E+02  0.78415993218E+02 -0.15231504750E+03  0.21529977315E+03  0.12508864324E+03 0.  0.
          5    1    3    3  502    0  0.13969838227E+02  0.53672771651E+02  0.35950034594E+01  0.55734363248E+02  0.41800000000E+01 0.  1.
         -5    1    3    3    0  502  0.22879611717E+02  0.24743221567E+02 -0.15591005096E+03  0.15956540990E+03  0.41800000000E+01 0.  1.
        -11    1    1    2    0    0 -0.46578911922E+02 -0.85182232407E+02 -0.62684928548E+02  0.11556386988E+03  0.00000000000E+00 0.  1.
         11    1    1    2    0    0  0.97294619783E+01  0.67662391884E+01  0.11983846117E+02  0.16853990356E+02  0.00000000000E+00 0. -1.
</event>
<event>
 7    1  0.3364959E-009  0.1020670E+03  0.7561462E-02  0.1276008E+00
          2   -1    0    0  501    0  0.00000000000E+00  0.00000000000E+00  0.50223716659E+02  0.50223716659E+02  0.00000000000E+00 0. -1.
         -2   -1    0    0    0  501 -0.00000000000E+00 -0.00000000000E+00 -0.26629935015E+03  0.26629935015E+03  0.00000000000E+00 0.  1.
         25    2    1    2    0    0  0.37182801504E+02  0.14097055653E+02 -0.13423057465E+03  0.18774205471E+03  0.12509174326E+03 0.  0.
          5    1    3    3  502    0  0.80803010752E+02  0.12517649676E+01 -0.10841878308E+03  0.13528783533E+03  0.41800000000E+01 0.  1.
         -5    1    3    3    0  502 -0.43620209248E+02  0.12845290686E+02 -0.25811791565E+02  0.52454219386E+02  0.41800000000E+01 0.  1.
        -11    1    1    2    0    0 -0.56669949962E+02 -0.87464766014E+01 -0.90224783421E+02  0.10690414223E+03  0.00000000000E+00 0.  1.
         11    1    1    2    0    0  0.19487148458E+02 -0.53505790520E+01  0.83797245802E+01  0.21876869869E+02  0.00000000000E+00 0. -1.
</event>
<event>
 7    1  0.2842702E-009  0.1348030E+03  0.7561462E-02  0.1220498E+00
          1   -1    0    0  501    0  0.00000000000E+00  0.00000000000E+00  0.15479597206E+03  0.15479597206E+03  0.00000000000E+00 0. -1.
         -1   -1    0    0    0  501 -0.00000000000E+00 -0.00000000000E+00 -0.18596158267E+03  0.18596158267E+03  0.00000000000E+00 0.  1.
         25    2    1    2    0    0  0.11084184399E+03 -0.87715222750E+01  0.54310889988E+02  0.17595621598E+03  0.12509221874E+03 0.  0.
          5    1    3    3  502    0  0.23294877521E+02  0.42311659140E+02 -0.17633401359E+02  0.51588148458E+02  0.41800000000E+01 0. -1.
         -5    1    3    3    0  502  0.87546966473E+02 -0.51083181415E+02  0.71944291347E+02  0.12436806752E+03  0.41800000000E+01 0. -1.
        -11    1    1    2    0    0 -0.81997911850E+02  0.26073121793E+02 -0.96610112779E+02  0.12937147722E+03  0.00000000000E+00 0.  1.
         11    1    1    2    0    0 -0.28843932144E+02 -0.17301599518E+02  0.11133612174E+02  0.35429861522E+02  0.00000000000E+00 0. -1.
</event>
<event>
 7    1  0.2842702E-009  0.1010783E+03  0.7561462E-02  0.1278045E+00
          2   -1    0    0  501    0  0.00000000000E+00  0.00000000000E+00  0.40810760031E+03  0.40810760031E+03  0.00000000000E+00 0. -1.
         -2   -1    0    0    0  501 -0.00000000000E+00 -0.00000000000E+00 -0.11770808723E+03  0.11770808723E+03  0.00000000000E+00 0.  1.
         25    2    1    2    0    0 -0.61384255468E+02 -0.36084616159E+02  0.36172183044E+03  0.38930578650E+03  0.12508471706E+03 0.  0.
          5    1    3    3  502    0 -0.53947803028E+02  0.33057372732E+01  0.46217989168E+02  0.71238109697E+02  0.41800000000E+01 0. -1.
         -5    1    3    3    0  502 -0.74364524403E+01 -0.39390353433E+02  0.31550384127E+03  0.31806767680E+03  0.41800000000E+01 0. -1.
        -11    1    1    2    0    0  0.53215892073E+02 -0.15490589815E+02 -0.10610926807E+02  0.56431208650E+02  0.00000000000E+00 0. -1.
         11    1    1    2    0    0  0.81683633950E+01  0.51575205975E+02 -0.60711390552E+02  0.80078692388E+02  0.00000000000E+00 0.  1.
</event>
<event>
 7    1  0.2842702E-009  0.1254058E+03  0.7561462E-02  0.1234436E+00
         -1   -1    0    0    0  501 -0.00000000000E+00  0.00000000000E+00  0.52689754405E+02  0.52689754405E+02  0.00000000000E+00 0.  1.
          1   -1    0    0  501    0  0.00000000000E+00 -0.00000000000E+00 -0.35590365539E+03  0.35590365539E+03  0.00000000000E+00 0. -1.
         25    2    1    2    0    0  0.81706212012E+02 -0.72580858292E+01 -0.14137130180E+03  0.20582263457E+03  0.12509407275E+03 0.  0.
          5    1    3    3  502    0  0.21116131869E+02  0.45260468198E+02 -0.88776339070E+01  0.50898779851E+02  0.41800000000E+01 0.  1.
         -5    1    3    3    0  502  0.60590080143E+02 -0.52518554027E+02 -0.13249366790E+03  0.15492385472E+03  0.41800000000E+01 0.  1.
        -11    1    1    2    0    0  0.15359546516E+02  0.16924373472E+02 -0.18592287245E+02  0.29462233989E+02  0.00000000000E+00 0.  1.
         11    1    1    2    0    0 -0.97065758527E+02 -0.96662876431E+01 -0.14325031194E+03  0.17330854123E+03  0.00000000000E+00 0. -1.
</event>
<event>
 7    1  0.2842702E-009  0.8765788E+02  0.7561462E-02  0.1308625E+00
          1   -1    0    0  501    0  0.00000000000E+00  0.00000000000E+00  0.18075949680E+03  0.18075949680E+03  0.00000000000E+00 0. -1.
         -1   -1    0    0    0  501 -0.00000000000E+00 -0.00000000000E+00 -0.74349058431E+02  0.74349058431E+02  0.00000000000E+00 0.  1.
         25    2    1    2    0    0 -0.26444287144E+02  0.45643511549E+01  0.94407099005E+02  0.15899963135E+03  0.12509216124E+03 0.  0.
          5    1    3    3  502    0  0.41946707599E+02  0.25890470909E+02  0.14396294108E+02  0.51522504271E+02  0.41800000000E+01 0. -1.
         -5    1    3    3    0  502 -0.68390994744E+02 -0.21326119754E+02  0.80010804897E+02  0.10747712708E+03  0.41800000000E+01 0. -1.
        -11    1    1    2    0    0 -0.21695392761E+01  0.17698021084E+02  0.44175469267E+02  0.47638208781E+02  0.00000000000E+00 0. -1.
         11    1    1    2    0    0  0.28613826421E+02 -0.22262372239E+02 -0.32172129899E+02  0.48470715100E+02  0.00000000000E+00 0.  1.
</event>
<event>
 7    1  0.2842702E-009  0.1751748E+03  0.7561462E-02  0.1172556E+00
          2   -1    0    0  501    0  0.00000000000E+00  0.00000000000E+00  0.71620675563E+02  0.71620675563E+02  0.00000000000E+00 0.  1.
         -2   -1    0    0    0  501 -0.00000000000E+00 -0.00000000000E+00 -0.53272857845E+03  0.53272857845E+03  0.00000000000E+00 0. -1.
         25    2    1    2    0    0  0.43958263808E+02  0.13842902908E+03 -0.12924597245E+03  0.23118383435E+03  0.12508604567E+03 0.  0.
          5    1    3    3  502    0  0.44270827853E+02  0.16142323630E+03 -0.10570922385E+03  0.19801333244E+03  0.41800000000E+01 0.  1.
         -5    1    3    3    0  502 -0.31256404413E+00 -0.22994207224E+02 -0.23536748600E+02  0.33170501908E+02  0.41800000000E+01 0.  1.
        -11    1    1    2    0    0 -0.58620879847E+02 -0.79266967443E+02 -0.26472614338E+03  0.28248821333E+03  0.00000000000E+00 0. -1.
         11    1    1    2    0    0  0.14662616039E+02 -0.59162061633E+02 -0.67135787063E+02  0.90677206344E+02  0.00000000000E+00 0.  1.
</event>
<event>
 7    1  0.2842702E-009  0.1095506E+03  0.7561462E-02  0.1261404E+00
          2   -1    0    0  501    0  0.00000000000E+00  0.00000000000E+00  0.69975854260E+02  0.69975854260E+02  0.00000000000E+00 0. -1.
         -2   -1    0    0    0  501 -0.00000000000E+00 -0.00000000000E+00 -0.33203111475E+03  0.33203111475E+03  0.00000000000E+00 0.  1.
         25    2    1    2    0    0 -0.17118034463E+02  0.33578473826E+02 -0.97892244649E+01  0.13101005276E+03  0.12508902430E+03 0.  0.
          5    1    3    3  502    0 -0.53293072427E+02  0.63857570944E+02 -0.67970083169E+01  0.83556045010E+02  0.41800000000E+01 0. -1.
         -5    1    3    3    0  502  0.36175037965E+02 -0.30279097118E+02 -0.29922161480E+01  0.47454007750E+02  0.41800000000E+01 0. -1.
        -11    1    1    2    0    0 -0.29679295140E+02  0.18949529570E+01 -0.15130587420E+03  0.15420090459E+03  0.00000000000E+00 0.  1.
         11    1    1    2    0    0  0.46797329603E+02 -0.35473426783E+02 -0.10096016182E+03  0.11679601166E+03  0.00000000000E+00 0. -1.
</event>
<event>
 7    1  0.2842702E-009  0.9844533E+02  0.7561462E-02  0.1283600E+00
         -2   -1    0    0    0  501 -0.00000000000E+00  0.00000000000E+00  0.38517140692E+02  0.38517140692E+02  0.00000000000E+00 0.  1.
          2   -1    0    0  501    0  0.00000000000E+00 -0.00000000000E+00 -0.52738916827E+03  0.52738916827E+03  0.00000000000E+00 0. -1.
         25    2    1    2    0    0  0.83127866683E+02 -0.11430491209E+02 -0.25541181541E+03  0.29651676622E+03  0.12508436693E+03 0.  0.
          5    1    3    3  502    0  0.12568599078E+02  0.58743789211E+01 -0.21051025912E+03  0.21100834013E+03  0.41800000000E+01 0.  1.
         -5    1    3    3    0  502  0.70559267605E+02 -0.17304870130E+02 -0.44901556292E+02  0.85508426092E+02  0.41800000000E+01 0.  1.
        -11    1    1    2    0    0  0.11671126120E+02 -0.61851405695E+01  0.34137243793E+01  0.13642751296E+02  0.00000000000E+00 0.  1.
         11    1    1    2    0    0 -0.94798992803E+02  0.17615631778E+02 -0.23687393655E+03  0.25574679145E+03  0.00000000000E+00 0. -1.
</event>
<event>
 7    1  0.2842702E-009  0.1184698E+03  0.7561462E-02  0.1245643E+00
         -1   -1    0    0    0  501 -0.00000000000E+00  0.00000000000E+00  0.51946529771E+02  0.51946529771E+02  0.00000000000E+00 0.  1.
          1   -1    0    0  501    0  0.00000000000E+00 -0.00000000000E+00 -0.37241141994E+03  0.37241141994E+03  0.00000000000E+00 0. -1.
         25    2    1    2    0    0  0.58802942471E+02 -0.27732091591E+01 -0.25351502445E+03  0.28876022405E+03  0.12508845925E+03 0.  0.
          5    1    3    3  502    0  0.11135604382E+00 -0.57618687350E+02 -0.10942956388E+03  0.12374258517E+03  0.41800000000E+01 0. -1.
         -5    1    3    3    0  502  0.58691586427E+02  0.54845478191E+02 -0.14408546057E+03  0.16501763888E+03  0.41800000000E+01 0. -1.
        -11    1    1    2    0    0 -0.37167276640E+02 -0.37636097473E+02 -0.72154965309E+02  0.89466313798E+02  0.00000000000E+00 0. -1.
         11    1    1    2    0    0 -0.21635665831E+02  0.40409306632E+02  0.52050995941E+01  0.46131411861E+02  0.00000000000E+00 0.  1.
</event>
<event>
 7    1  0.2842702E-009  0.1998622E+03  0.7561462E-02  0.1149855E+00
          2   -1    0    0  501    0  0.00000000000E+00  0.00000000000E+00  0.47991472017E+03  0.47991472017E+03  0.00000000000E+00 0. -1.
         -2   -1    0    0    0  501 -0.00000000000E+00 -0.00000000000E+00 -0.91236302309E+02  0.91236302309E+02  0.00000000000E+00 0.  1.
         25    2    1    2    0    0 -0.17699699075E+03 -0.29652309517E+02  0.16861559449E+03  0.27619885436E+03  0.12508954493E+03 0.  0.
          5    1    3    3  502    0 -0.60552275360E+02 -0.72254022919E+02  0.65381203148E+02  0.11480155053E+03  0.41800000000E+01 0. -1.
         -5    1    3    3    0  502 -0.11644471539E+03  0.42601713402E+02  0.10323439134E+03  0.16139730383E+03  0.41800000000E+01 0. -1.
        -11    1    1    2    0    0  0.46554329313E+02  0.19453995571E+02  0.12018662245E+03  0.13034794873E+03  0.00000000000E+00 0. -1.
         11    1    1    2    0    0  0.13044266144E+03  0.10198313946E+02  0.99876200918E+02  0.16460421939E+03  0.00000000000E+00 0.  1.
</event>
<event>
 7    1  0.2842702E-009  0.1360733E+03  0.7561462E-02  0.1218712E+00
         -1   -1    0    0    0  501 -0.00000000000E+00  0.00000000000E+00  0.10008950572E+03  0.10008950572E+03  0.00000000000E+00 0.  1.
          1   -1    0    0  501    0  0.00000000000E+00 -0.00000000000E+00 -0.34772775992E+03  0.34772775992E+03  0.00000000000E+00 0. -1.
         25    2    1    2    0    0 -0.86986836791E+01  0.99005863075E+02  0.31186279104E+01  0.15979328335E+03  0.12508532905E+03 0.  0.
          5    1    3    3  502    0 -0.54361988889E+02  0.58026082051E+02  0.38928600725E+02  0.88629342707E+02  0.41800000000E+01 0.  1.
         -5    1    3    3    0  502  0.45663305210E+02  0.40979781024E+02 -0.35809972814E+02  0.71163940647E+02  0.41800000000E+01 0.  1.
        -11    1    1    2    0    0 -0.38433833112E+02 -0.49550506104E+02 -0.17557899064E+03  0.18644139598E+03  0.00000000000E+00 0. -1.
         11    1    1    2    0    0  0.47132516791E+02 -0.49455356971E+02 -0.75177891480E+02  0.10158258630E+03  0.00000000000E+00 0.  1.
</event>
<event>
 7    1  0.2842702E-009  0.9880201E+02  0.7561462E-02  0.1282836E+00
         -1   -1    0    0    0  501 -0.00000000000E+00  0.00000000000E+00  0.35787677587E+02  0.35787677587E+02  0.00000000000E+00 0.  1.
          1   -1    0    0  501    0  0.00000000000E+00 -0.00000000000E+00 -0.50254313334E+03  0.50254313334E+03  0.00000000000E+00 0. -1.
         25    2    1    2    0    0 -0.76602803263E+02  0.64983912235E+01 -0.28909901120E+03  0.32424712875E+03  0.12509094157E+03 0.  0.
          5    1    3    3  502    0 -0.72340923986E+01  0.31154487284E+02 -0.74489795150E+01  0.33104287737E+02  0.41800000000E+01 0.  1.
         -5    1    3    3    0  502 -0.69368710865E+02 -0.24656096060E+02 -0.28165003169E+03  0.29114284101E+03  0.41800000000E+01 0.  1.
        -11    1    1    2    0    0  0.56722638216E+02 -0.27201111458E+02 -0.17415525443E+03  0.18516860100E+03  0.00000000000E+00 0. -1.
         11    1    1    2    0    0  0.19880165047E+02  0.20702720235E+02 -0.35011901175E+01  0.28915081180E+02  0.00000000000E+00 0.  1.
</event>
<event>
 7    1  0.2842702E-009  0.3410717E+03  0.7561462E-02  0.1066340E+00
          2   -1    0    0  501    0  0.00000000000E+00  0.00000000000E+00  0.15646353705E+03  0.15646353705E+03  0.00000000000E+00 0. -1.
         -2   -1    0    0    0  501 -0.00000000000E+00 -0.00000000000E+00 -0.76122363749E+03  0.76122363749E+03  0.00000000000E+00 0.  1.
         25    2    1    2    0    0  0.21828633127E+02  0.32280158161E+03 -0.24196200211E+03  0.42293057587E+03  0.12508921308E+03 0.  0.
          5    1    3    3  502    0  0.41771781840E+02  0.32298130436E+03 -0.22039618640E+03  0.39326041767E+03  0.41800000000E+01 0.  1.
         -5    1    3    3    0  502 -0.19943148713E+02 -0.17972274522E+00 -0.21565815707E+02  0.29670158206E+02  0.41800000000E+01 0.  1.
        -11    1    1    2    0    0 -0.57334984160E+02 -0.17957533580E+03 -0.19263115805E+03  0.26952062015E+03  0.00000000000E+00 0.  1.
         11    1    1    2    0    0  0.35506351034E+02 -0.14322624581E+03 -0.17016694028E+03  0.22523597851E+03  0.00000000000E+00 0. -1.
</event>
<event>
 7    1  0.2842702E-009  0.1488296E+03  0.7561462E-02  0.1201919E+00
         -2   -1    0    0    0  501 -0.00000000000E+00  0.00000000000E+00  0.45886965761E+02  0.45886965761E+02  0.00000000000E+00 0.  1.
          2   -1    0    0  501    0  0.00000000000E+00 -0.00000000000E+00 -0.70577895149E+03  0.70577895149E+03  0.00000000000E+00 0. -1.
         25    2    1    2    0    0  0.89695538326E+02 -0.10370188162E+03 -0.26195945792E+03  0.32104500884E+03  0.12509104788E+03 0.  0.
          5    1    3    3  502    0  0.90159374916E+02 -0.87412058176E+02 -0.10659183317E+03  0.16476914790E+03  0.41800000000E+01 0.  1.
         -5    1    3    3    0  502 -0.46383659060E+00 -0.16289823443E+02 -0.15536762475E+03  0.15627586094E+03  0.41800000000E+01 0.  1.
        -11    1    1    2    0    0 -0.37786749607E+01  0.57525011562E+02 -0.83960865223E+02  0.10184710221E+03  0.00000000000E+00 0.  1.
         11    1    1    2    0    0 -0.85916863365E+02  0.46176870057E+02 -0.31397166258E+03  0.32877380620E+03  0.00000000000E+00 0. -1.
</event>
<event>
 7    1  0.2842702E-009  0.7230355E+02  0.7561462E-02  0.1352430E+00
          1   -1    0    0  501    0  0.00000000000E+00  0.00000000000E+00  0.76901306688E+02  0.76901306688E+02  0.00000000000E+00 0. -1.
         -1   -1    0    0    0  501 -0.00000000000E+00 -0.00000000000E+00 -0.18200068437E+03  0.18200068437E+03  0.00000000000E+00 0.  1.
         25    2    1    2    0    0  0.22980727029E+02  0.20026278902E+02 -0.21276075960E+02  0.13049658481E+03  0.12509005387E+03 0.  0.
          5    1    3    3  502    0  0.54142688019E+02  0.34931527801E+02 -0.52904562765E+02  0.83474591714E+02  0.41800000000E+01 0. -1.
         -5    1    3    3    0  502 -0.31161960990E+02 -0.14905248899E+02  0.31628486805E+02  0.47021993100E+02  0.41800000000E+01 0. -1.
        -11    1    1    2    0    0  0.43117947652E+01 -0.17283478257E+02 -0.96540958086E+02  0.98170600400E+02  0.00000000000E+00 0.  1.
         11    1    1    2    0    0 -0.27292521794E+02 -0.27428006442E+01  0.12717656362E+02  0.30234805847E+02  0.00000000000E+00 0. -1.
</event>
<event>
 7    1  0.2842702E-009  0.8648464E+02  0.7561462E-02  0.1311595E+00
         -2   -1    0    0    0  501 -0.00000000000E+00  0.00000000000E+00  0.87691617320E+02  0.87691617320E+02  0.00000000000E+00 0. -1.
          2   -1    0    0  501    0  0.00000000000E+00 -0.00000000000E+00 -0.14251498828E+03  0.14251498828E+03  0.00000000000E+00 0.  1.
         25    2    1    2    0    0  0.14815336601E+02  0.15976770181E+02 -0.15891001695E+02  0.12792655186E+03  0.12505169872E+03 0.  0.
          5    1    3    3  502    0 -0.90794689610E+01 -0.48008109727E+02 -0.30779196989E+02  0.57896862812E+02  0.41800000000E+01 0. -1.
         -5    1    3    3    0  502  0.23894805562E+02  0.63984879908E+02  0.14888195293E+02  0.70029689053E+02  0.41800000000E+01 0. -1.
        -11    1    1    2    0    0  0.16153460588E+02  0.63165447234E+01 -0.57345728314E+02  0.59911314308E+02  0.00000000000E+00 0.  1.
         11    1    1    2    0    0 -0.30968797189E+02 -0.22293314905E+02  0.18413359053E+02  0.42368739424E+02  0.00000000000E+00 0. -1.
</event>
<event>
 7    1  0.2842702E-009  0.1674405E+03  0.7561462E-02  0.1180544E+00
         -2   -1    0    0    0  501 -0.00000000000E+00  0.00000000000E+00  0.19048674075E+02  0.19048674075E+02  0.00000000000E+00 0. -1.
          2   -1    0    0  501    0  0.00000000000E+00 -0.00000000000E+00 -0.15864696303E+04  0.15864696303E+04  0.00000000000E+00 0.  1.
         25    2    1    2    0    0 -0.11998603421E+03  0.55908476539E+02 -0.97656545878E+03  0.99340353271E+03  0.12509227541E+03 0.  0.
          5    1    3    3  502    0 -0.49407365529E+02 -0.37821659900E+02 -0.26665539801E+03  0.27385057862E+03  0.41800000000E+01 0.  1.
         -5    1    3    3    0  502 -0.70578668686E+02  0.93730136439E+02 -0.70991006078E+03  0.71955295409E+03  0.41800000000E+01 0.  1.
        -11    1    1    2    0    0  0.56376656338E+02 -0.70082237572E+02 -0.26624484507E+03  0.28102698256E+03  0.00000000000E+00 0. -1.
         11    1    1    2    0    0  0.63609377877E+02  0.14173761033E+02 -0.32461065242E+03  0.33108778914E+03  0.00000000000E+00 0.  1.
</event>
<event>
 7    1  0.2842702E-009  0.1021829E+03  0.7561462E-02  0.1275771E+00
         -3   -1    0    0    0  501 -0.00000000000E+00  0.00000000000E+00  0.28602656386E+02  0.28602656386E+02  0.00000000000E+00 0.  1.
          3   -1    0    0  501    0  0.00000000000E+00 -0.00000000000E+00 -0.49915163817E+03  0.49915163817E+03  0.00000000000E+00 0. -1.
         25    2    1    2    0    0 -0.34851380931E+02  0.15352909535E+02 -0.19080114879E+03  0.23130739161E+03  0.12509076885E+03 0.  0.
          5    1    3    3  502    0 -0.83685252231E+01 -0.42054775885E+02 -0.14971925583E+03  0.15579462236E+03  0.41800000000E+01 0.  1.
         -5    1    3    3    0  502 -0.26482855708E+02  0.57407685420E+02 -0.41081892958E+02  0.75512769256E+02  0.41800000000E+01 0.  1.
        -11    1    1    2    0    0  0.81925919620E+01  0.37683647484E+02 -0.10180162468E+03  0.10886113466E+03  0.00000000000E+00 0. -1.
         11    1    1    2    0    0  0.26658788969E+02 -0.53036557019E+02 -0.17794620831E+03  0.18758576828E+03  0.00000000000E+00 0.  1.
</event>
<event>
 7    1  0.2842702E-009  0.1071570E+03  0.7561462E-02  0.1265927E+00
          2   -1    0    0  501    0  0.00000000000E+00  0.00000000000E+00  0.58925077129E+03  0.58925077129E+03  0.00000000000E+00 0.  1.
         -2   -1    0    0    0  501 -0.00000000000E+00 -0.00000000000E+00 -0.22781841587E+02  0.22781841587E+02  0.00000000000E+00 0. -1.
         25    2    1    2    0    0 -0.29227074816E+02 -0.42505839769E+01  0.40057060902E+03  0.42069938482E+03  0.12513540751E+03 0.  0.
          5    1    3    3  502    0 -0.62931071542E+02 -0.42726257649E+02  0.26529749008E+03  0.27601826661E+03  0.41800000000E+01 0. -1.
         -5    1    3    3    0  502  0.33703996726E+02  0.38475673672E+02  0.13527311894E+03  0.14468111821E+03  0.41800000000E+01 0. -1.
        -11    1    1    2    0    0  0.30897878924E+02 -0.35480056988E+02  0.12811175619E+03  0.13647760050E+03  0.00000000000E+00 0. -1.
         11    1    1    2    0    0 -0.16708041085E+01  0.39730640965E+02  0.37786564499E+02  0.54855627555E+02  0.00000000000E+00 0.  1.
</event>
<event>
 7    1  0.2842702E-009  0.7399590E+02  0.7561462E-02  0.1347009E+00
         -2   -1    0    0    0  501 -0.00000000000E+00  0.00000000000E+00  0.59659818388E+02  0.59659818388E+02  0.00000000000E+00 0.  1.
          2   -1    0    0  501    0  0.00000000000E+00 -0.00000000000E+00 -0.21524203629E+03  0.21524203629E+03  0.00000000000E+00 0. -1.
         25    2    1    2    0    0  0.28183019070E+02 -0.27668664627E-01 -0.10819989587E+03  0.16777715318E+03  0.12509065645E+03 0.  0.
          5    1    3    3  502    0  0.37824292214E+01  0.51051294053E+02 -0.71235279817E+01  0.51853239496E+02  0.41800000000E+01 0. -1.
         -5    1    3    3    0  502  0.24400589849E+02 -0.51078962717E+02 -0.10107636789E+03  0.11592391368E+03  0.41800000000E+01 0. -1.
        -11    1    1    2    0    0 -0.98482324400E+01  0.13788192542E+02  0.25559284423E+02  0.30665598902E+02  0.00000000000E+00 0.  1.
         11    1    1    2    0    0 -0.18334786630E+02 -0.13760523878E+02 -0.72941606449E+02  0.76459102594E+02  0.00000000000E+00 0. -1.
</event>
<event>
 7    1  0.2842702E-009  0.1127079E+03  0.7561462E-02  0.1255636E+00
         -1   -1    0    0    0  501 -0.00000000000E+00  0.00000000000E+00  0.12610871862E+03  0.12610871862E+03  0.00000000000E+00 0.  1.
          1   -1    0    0  501    0  0.00000000000E+00 -0.00000000000E+00 -0.14391903327E+03  0.14391903327E+03  0.00000000000E+00 0. -1.
         25    2    1    2    0    0 -0.60189000213E+02 -0.50261436943E+02  0.54778416393E+01  0.14773959958E+03  0.12509218499E+03 0.  0.
          5    1    3    3  502    0 -0.49804334469E+02 -0.69423177136E+02  0.49218497846E+02  0.98691348079E+02  0.41800000000E+01 0.  1.
         -5    1    3    3    0  502 -0.10384665744E+02  0.19161740193E+02 -0.43740656207E+02  0.49048251500E+02  0.41800000000E+01 0.  1.
        -11    1    1    2    0    0  0.62644183842E+02 -0.45553513755E+01 -0.24459011555E+02  0.67403918592E+02  0.00000000000E+00 0. -1.
         11    1    1    2    0    0 -0.24551836288E+01  0.54816788318E+02  0.11708552616E+01  0.54884233713E+02  0.00000000000E+00 0.  1.
</event>
<event>
 7    1  0.2842702E-009  0.2972785E+03  0.7561462E-02  0.1086609E+00
         -3   -1    0    0    0  501 -0.00000000000E+00  0.00000000000E+00  0.41997005626E+03  0.41997005626E+03  0.00000000000E+00 0.  1.
          3   -1    0    0  501    0  0.00000000000E+00 -0.00000000000E+00 -0.23079783663E+03  0.23079783663E+03  0.00000000000E+00 0. -1.
         25    2    1    2    0    0  0.27491396854E+03 -0.72170972104E+02  0.16998562521E+03  0.35402398882E+03  0.12510608526E+03 0.  0.
          5    1    3    3  502    0  0.43969050100E+02 -0.65782184321E+02  0.37408272511E+02  0.87620912989E+02  0.41800000000E+01 0. -1.
         -5    1    3    3    0  502  0.23094491844E+03 -0.63887877822E+01  0.13257735270E+03  0.26640307583E+03  0.41800000000E+01 0. -1.
        -11    1    1    2    0    0 -0.22100366071E+03  0.56548531739E+02  0.48796771651E+02  0.23328411736E+03  0.00000000000E+00 0.  1.
         11    1    1    2    0    0 -0.53910307835E+02  0.15622440365E+02 -0.29610177233E+02  0.63459786712E+02  0.00000000000E+00 0. -1.
</event>
<event>
 7    1  0.2842702E-009  0.1492331E+03  0.7561462E-02  0.1201419E+00
         -1   -1    0    0    0  501 -0.00000000000E+00  0.00000000000E+00  0.46085410185E+02  0.46085410185E+02  0.00000000000E+00 0.  1.
          1   -1    0    0  501    0  0.00000000000E+00 -0.00000000000E+00 -0.57902244155E+03  0.57902244155E+03  0.00000000000E+00 0. -1.
         25    2    1    2    0    0 -0.11646579672E+03 -0.33533988074E+02 -0.31455436783E+03  0.35955702855E+03  0.12509195136E+03 0.  0.
          5    1    3    3  502    0 -0.14097949585E+03 -0.30088319327E+02 -0.29258646737E+03  0.32619754520E+03  0.41800000000E+01 0. -1.
         -5    1    3    3    0  502  0.24513699133E+02 -0.34456687470E+01 -0.21967900463E+02  0.33359483345E+02  0.41800000000E+01 0. -1.
        -11    1    1    2    0    0  0.93655984584E+02  0.66537287188E+01 -0.81913048267E+02  0.12460121601E+03  0.00000000000E+00 0.  1.
         11    1    1    2    0    0  0.22809812132E+02  0.26880259355E+02 -0.13646961526E+03  0.14094960717E+03  0.00000000000E+00 0. -1.
</event>
<event>
 7    1  0.3984960E-009  0.1266428E+03  0.7561462E-02  0.1232524E+00
         -1   -1    0    0    0  501 -0.00000000000E+00  0.00000000000E+00  0.19287214676E+02  0.19287214676E+02  0.00000000000E+00 0.  1.
          1   -1    0    0  501    0  0.00000000000E+00 -0.00000000000E+00 -0.11010834916E+04  0.11010834916E+04  0.00000000000E+00 0. -1.
         25    2    1    2    0    0  0.38702428198E+01  0.79140204555E+02 -0.80280019522E+03  0.81634172033E+03  0.12508996819E+03 0.  0.
          5    1    3    3  502    0 -0.97848811153E+01  0.11165711232E+03 -0.58311368651E+03  0.59380308051E+03  0.41800000000E+01 0. -1.
         -5    1    3    3    0  502  0.13655123935E+02 -0.32516907768E+02 -0.21968650871E+03  0.22253863982E+03  0.41800000000E+01 0. -1.
        -11    1    1    2    0    0 -0.35153968244E+02 -0.25202486361E+02 -0.47327782810E+02  0.64116190060E+02  0.00000000000E+00 0.  1.
         11    1    1    2    0    0  0.31283725425E+02 -0.53937718194E+02 -0.23166829892E+03  0.23991279591E+03  0.00000000000E+00 0. -1.
</event>
<event>
 7    1  0.2842702E-009  0.9527588E+02  0.7561462E-02  0.1290556E+00
         -2   -1    0    0    0  501 -0.00000000000E+00  0.00000000000E+00  0.20513908246E+03  0.20513908246E+03  0.00000000000E+00 0.  1.
          2   -1    0    0  501    0  0.00000000000E+00 -0.00000000000E+00 -0.63663595962E+02  0.63663595962E+02  0.00000000000E+00 0. -1.
         25    2    1    2    0    0  0.30665644979E+02  0.85977672999E+00  0.58324907153E+02  0.14140841149E+03  0.12511364053E+03 0.  0.
          5    1    3    3  502    0  0.75577481683E+02 -0.20050782503E+02  0.27927229815E+02  0.83134783224E+02  0.41800000000E+01 0. -1.
         -5    1    3    3    0  502 -0.44911836704E+02  0.20910559233E+02  0.30397677338E+02  0.58273628265E+02  0.41800000000E+01 0. -1.
        -11    1    1    2    0    0 -0.44673986123E+02 -0.10032461138E+02  0.95952368343E+02  0.10631684863E+03  0.00000000000E+00 0.  1.
         11    1    1    2    0    0  0.14008341144E+02  0.91726844079E+01 -0.12801788995E+02  0.21077418304E+02  0.00000000000E+00 0. -1.
</event>
<event>
 7    1  0.3084359E-009  0.9714584E+02  0.7561462E-02  0.1286415E+00
         -1   -1    0    0    0  501 -0.00000000000E+00  0.00000000000E+00  0.28433771982E+02  0.28433771982E+02  0.00000000000E+00 0. -1.
          1   -1    0    0  501    0  0.00000000000E+00 -0.00000000000E+00 -0.56523459360E+03  0.56523459360E+03  0.00000000000E+00 0.  1.
         25    2    1    2    0    0 -0.15667686939E+02  0.49963977408E+02 -0.20673702482E+03  0.24724506026E+03  0.12509215379E+03 0.  0.
          5    1    3    3  502    0 -0.27778273409E+02 -0.13850631689E+02 -0.86819232384E+00  0.31332070306E+02  0.41800000000E+01 0.  1.
         -5    1    3    3    0  502  0.12110586470E+02  0.63814609097E+02 -0.20586883249E+03  0.21591298995E+03  0.41800000000E+01 0.  1.
        -11    1    1    2    0    0  0.41982303551E+02 -0.64924566468E+00 -0.20763826744E+03  0.21184094372E+03  0.00000000000E+00 0. -1.
         11    1    1    2    0    0 -0.26314616613E+02 -0.49314731744E+02 -0.12242552936E+03  0.13458236160E+03  0.00000000000E+00 0.  1.
</event>
<event>
 7    1  0.2842702E-009  0.9810509E+02  0.7561462E-02  0.1284332E+00
          4   -1    0    0  501    0  0.00000000000E+00  0.00000000000E+00  0.61822393824E+03  0.61822393824E+03  0.00000000000E+00 0. -1.
         -4   -1    0    0    0  501 -0.00000000000E+00 -0.00000000000E+00 -0.21611909247E+02  0.21611909247E+02  0.00000000000E+00 0.  1.
         25    2    1    2    0    0  0.31308816571E+02  0.15006886133E+02  0.43130261807E+03  0.45041582943E+03  0.12508805866E+03 0.  0.
          5    1    3    3  502    0  0.59222430504E+02  0.45107776899E+02  0.36330444337E+03  0.37087679732E+03  0.41800000000E+01 0.  1.
         -5    1    3    3    0  502 -0.27913613933E+02 -0.30100890766E+02  0.67998174695E+02  0.79539032114E+02  0.41800000000E+01 0.  1.
        -11    1    1    2    0    0 -0.20921462747E+02 -0.44469063353E+02  0.50619668652E+02  0.70551796954E+02  0.00000000000E+00 0.  1.
         11    1    1    2    0    0 -0.10387353824E+02  0.29462177221E+02  0.11468974227E+03  0.11886822111E+03  0.00000000000E+00 0. -1.
</event>
<event>
 7    1  0.2842702E-009  0.1706364E+03  0.7561462E-02  0.1177186E+00
          2   -1    0    0  501    0  0.00000000000E+00  0.00000000000E+00  0.78047391371E+03  0.78047391371E+03  0.00000000000E+00 0. -1.
         -2   -1    0    0    0  501 -0.00000000000E+00 -0.00000000000E+00 -0.42830231872E+02  0.42830231872E+02  0.00000000000E+00 0.  1.
         25    2    1    2    0    0  0.90232089937E+02  0.11078866753E+03  0.33341158159E+03  0.38370072705E+03  0.12508799418E+03 0.  0.
          5    1    3    3  502    0 -0.89146179491E+01  0.86729858746E+02  0.16768121404E+03  0.18903968037E+03  0.41800000000E+01 0. -1.
         -5    1    3    3    0  502  0.99146707887E+02  0.24058808787E+02  0.16573036755E+03  0.19466104668E+03  0.41800000000E+01 0. -1.
        -11    1    1    2    0    0 -0.35938233603E+02 -0.98528459519E+01  0.28886570280E+02  0.47149434253E+02  0.00000000000E+00 0.  1.
         11    1    1    2    0    0 -0.54293856334E+02 -0.10093582158E+03  0.37534552996E+03  0.39245398428E+03  0.00000000000E+00 0. -1.
</event>
<event>
 7    1  0.2842702E-009  0.1208385E+03  0.7561462E-02  0.1241720E+00
          1   -1    0    0  501    0  0.00000000000E+00  0.00000000000E+00  0.60198351809E+03  0.60198351809E+03  0.00000000000E+00 0. -1.
         -1   -1    0    0    0  501 -0.00000000000E+00 -0.00000000000E+00 -0.28053356579E+02  0.28053356579E+02  0.00000000000E+00 0.  1.
         25    2    1    2    0    0  0.34049166594E+02 -0.60774445498E+02  0.33599299281E+03  0.36522794498E+03  0.12508909467E+03 0.  0.
          5    1    3    3  502    0 -0.41860905390E+02 -0.48160428911E+02  0.18435818518E+03  0.19513373660E+03  0.41800000000E+01 0. -1.
         -5    1    3    3    0  502  0.75910071983E+02 -0.12614016587E+02  0.15163480763E+03  0.17009420839E+03  0.41800000000E+01 0. -1.
        -11    1    1    2    0    0 -0.15776754108E+02  0.75541841478E+02  0.10784451747E+03  0.13261189891E+03  0.00000000000E+00 0.  1.
         11    1    1    2    0    0 -0.18272412486E+02 -0.14767395979E+02  0.13009265124E+03  0.13219703078E+03  0.00000000000E+00 0. -1.
</event>
<event>
 7    1  0.2842702E-009  0.1403697E+03  0.7561462E-02  0.1212832E+00
         -2   -1    0    0    0  501 -0.00000000000E+00  0.00000000000E+00  0.40574461581E+02  0.40574461581E+02  0.00000000000E+00 0.  1.
          2   -1    0    0  501    0  0.00000000000E+00 -0.00000000000E+00 -0.52775364118E+03  0.52775364118E+03  0.00000000000E+00 0. -1.
         25    2    1    2    0    0  0.75465421801E+02 -0.56565299341E+02 -0.24172786552E+03  0.28805314598E+03  0.12509033122E+03 0.  0.
          5    1    3    3  502    0  0.25175410523E+02  0.37696048786E+02 -0.44229921865E+02  0.63470873456E+02  0.41800000000E+01 0.  1.
         -5    1    3    3    0  502  0.50290011278E+02 -0.94261348127E+02 -0.19749794365E+03  0.22458227253E+03  0.41800000000E+01 0.  1.
        -11    1    1    2    0    0 -0.95310280749E+02  0.46795152991E+02 -0.16013686661E+03  0.19213966797E+03  0.00000000000E+00 0.  1.
         11    1    1    2    0    0  0.19844858948E+02  0.97701463505E+01 -0.85314447469E+02  0.88135288808E+02  0.00000000000E+00 0. -1.
</event>
<event>
 7    1  0.2842702E-009  0.1109032E+03  0.7561462E-02  0.1258906E+00
         -1   -1    0    0    0  501 -0.00000000000E+00  0.00000000000E+00  0.16867504874E+02  0.16867504874E+02  0.00000000000E+00 0.  1.
          1   -1    0    0  501    0  0.00000000000E+00 -0.00000000000E+00 -0.10730320164E+04  0.10730320164E+04  0.00000000000E+00 0. -1.
         25    2    1    2    0    0 -0.62175670533E+02 -0.50476424009E+02 -0.57645874100E+03  0.59528673630E+03  0.12509170615E+03 0.  0.
          5    1    3    3  502    0 -0.40897255777E+02 -0.81148462306E+02 -0.51710276891E+03  0.52504324058E+03  0.41800000000E+01 0. -1.
         -5    1    3    3    0  502 -0.21278414755E+02  0.30672038297E+02 -0.59355972095E+02  0.70243495721E+02  0.41800000000E+01 0. -1.
        -11    1    1    2    0    0  0.55590271480E+02  0.59937174582E+02 -0.47528988902E+03  0.48226882730E+03  0.00000000000E+00 0.  1.
         11    1    1    2    0    0  0.65853990523E+01 -0.94607505736E+01 -0.44158815329E+01  0.12343957704E+02  0.00000000000E+00 0. -1.
</event>
<event>
 7    1  0.2842702E-009  0.8436349E+02  0.7561462E-02  0.1317106E+00
         -1   -1    0    0    0  501 -0.00000000000E+00  0.00000000000E+00  0.91919384091E+02  0.91919384091E+02  0.00000000000E+00 0.  1.
          1   -1    0    0  501    0  0.00000000000E+00 -0.00000000000E+00 -0.15362129481E+03  0.15362129481E+03  0.00000000000E+00 0. -1.
         25    2    1    2    0    0  0.43868962017E+02 -0.41374242531E+01 -0.12837159942E+02  0.13322199167E+03  0.12506679128E+03 0.  0.
          5    1    3    3  502    0  0.11849056869E+02  0.40628065549E+02 -0.50784793846E+02  0.66239018297E+02  0.41800000000E+01 0. -1.
         -5    1    3    3    0  502  0.32019905149E+02 -0.44765489802E+02  0.37947633904E+02  0.66982973373E+02  0.41800000000E+01 0. -1.
        -11    1    1    2    0    0 -0.29782896249E+02 -0.24841139428E+02  0.14360966209E+02  0.41356262736E+02  0.00000000000E+00 0.  1.
         11    1    1    2    0    0 -0.14086065768E+02  0.28978563681E+02 -0.63225716991E+02  0.70962424500E+02  0.00000000000E+00 0. -1.
</event>
<event>
 7    1  0.3691036E-009  0.1159403E+03  0.7561462E-02  0.1249949E+00
          1   -1    0    0  501    0  0.00000000000E+00  0.00000000000E+00  0.12981511605E+04  0.12981511605E+04  0.00000000000E+00 0. -1.
         -1   -1    0    0    0  501 -0.00000000000E+00 -0.00000000000E+00 -0.13821722259E+02  0.13821722259E+02  0.00000000000E+00 0.  1.
         25    2    1    2    0    0  0.61580671665E+02 -0.38291432356E+00  0.94840067259E+03  0.95859434388E+03  0.12508778763E+03 0.  0.
          5    1    3    3  502    0  0.89479729334E+02 -0.21479337480E+02  0.82910251598E+03  0.83420407474E+03  0.41800000000E+01 0. -1.
         -5    1    3    3    0  502 -0.27899057669E+02  0.21096423156E+02  0.11929815661E+03  0.12439026915E+03  0.41800000000E+01 0. -1.
        -11    1    1    2    0    0 -0.75348247444E+02  0.22367436062E+02  0.29170721204E+03  0.30211050651E+03  0.00000000000E+00 0. -1.
         11    1    1    2    0    0  0.13767575779E+02 -0.21984521738E+02  0.44221553646E+02  0.51268032395E+02  0.00000000000E+00 0.  1.
</event>
<event>
 7    1  0.2842702E-009  0.1579128E+03  0.7561462E-02  0.1191073E+00
         -4   -1    0    0    0  501 -0.00000000000E+00  0.00000000000E+00  0.59609247950E+03  0.59609247950E+03  0.00000000000E+00 0. -1.
          4   -1    0    0  501    0  0.00000000000E+00 -0.00000000000E+00 -0.57728957037E+02  0.57728957037E+02  0.00000000000E+00 0.  1.
         25    2    1    2    0    0 -0.21511394656E+02 -0.14707510812E+03  0.31825981899E+03  0.37286836247E+03  0.12509067037E+03 0.  0.
          5    1    3    3  502    0  0.60753203466E+01 -0.29341375340E+01  0.14732184027E+03  0.14753547268E+03  0.41800000000E+01 0. -1.
         -5    1    3    3    0  502 -0.27586715003E+02 -0.14414097059E+03  0.17093797873E+03  0.22533288978E+03  0.41800000000E+01 0. -1.
        -11    1    1    2    0    0  0.10803810642E+02  0.14966628530E+03  0.15808056001E+03  0.21795913088E+03  0.00000000000E+00 0.  1.
         11    1    1    2    0    0  0.10707584014E+02 -0.25911771733E+01  0.62023143460E+02  0.62993943195E+02  0.00000000000E+00 0. -1.
</event>
<event>
 7    1  0.2842702E-009  0.1126906E+03  0.7561462E-02  0.1255667E+00
          2   -1    0    0  501    0  0.00000000000E+00  0.00000000000E+00  0.20925065552E+04  0.20925065552E+04  0.00000000000E+00 0. -1.
         -2   -1    0    0    0  501 -0.00000000000E+00 -0.00000000000E+00 -0.10101856366E+02  0.10101856366E+02  0.00000000000E+00 0.  1.
         25    2    1    2    0    0  0.18112854709E+02  0.27774168201E+02  0.17558403039E+04  0.17606018053E+04  0.12507623294E+03 0.  0.
          5    1    3    3  502    0 -0.12994232554E+02 -0.45534870958E+02  0.50945825547E+03  0.51167124310E+03  0.41800000000E+01 0. -1.
         -5    1    3    3    0  502  0.31107087263E+02  0.73309039159E+02  0.12463820484E+04  0.12489305622E+04  0.41800000000E+01 0. -1.
        -11    1    1    2    0    0  0.18860334419E+01  0.33546502088E+02  0.72898639367E+02  0.80269150650E+02  0.00000000000E+00 0.  1.
         11    1    1    2    0    0 -0.19998888151E+02 -0.61320670290E+02  0.25366575552E+03  0.26173745558E+03  0.00000000000E+00 0. -1.
</event>
<event>
 7    1  0.2842702E-009  0.1059455E+03  0.7561462E-02  0.1268268E+00
         -3   -1    0    0    0  501 -0.00000000000E+00  0.00000000000E+00  0.95253708914E+03  0.95253708914E+03  0.00000000000E+00 0.  1.
          3   -1    0    0  501    0  0.00000000000E+00 -0.00000000000E+00 -0.24108008763E+02  0.24108008763E+02  0.00000000000E+00 0. -1.
         25    2    1    2    0    0  0.19051431779E+02  0.30586819739E+02  0.82720133281E+03  0.83738106461E+03  0.12508593755E+03 0.  0.
          5    1    3    3  502    0 -0.14874608423E+01  0.75408627026E+02  0.37883756065E+03  0.38629527997E+03  0.41800000000E+01 0.  1.
         -5    1    3    3    0  502  0.20538892621E+02 -0.44821807286E+02  0.44836377216E+03  0.45108578464E+03  0.41800000000E+01 0.  1.
        -11    1    1    2    0    0  0.30594540220E+02 -0.49350483869E+01  0.66774344138E+02  0.73615172546E+02  0.00000000000E+00 0.  1.
         11    1    1    2    0    0 -0.49645971999E+02 -0.25651771353E+02  0.34453403428E+02  0.65648860744E+02  0.00000000000E+00 0. -1.
</event>
<event>
 7    1  0.2937297E-009  0.1434057E+03  0.7561462E-02  0.1208818E+00
         -2   -1    0    0    0  501 -0.00000000000E+00  0.00000000000E+00  0.14504427162E+02  0.14504427162E+02  0.00000000000E+00 0.  1.
          2   -1    0    0  501    0  0.00000000000E+00 -0.00000000000E+00 -0.14421125254E+04  0.14421125254E+04  0.00000000000E+00 0. -1.
         25    2    1    2    0    0 -0.58423096959E+02  0.74058390606E+02 -0.72692114588E+03  0.74361206489E+03  0.12508655900E+03 0.  0.
          5    1    3    3  502    0 -0.91957625107E+02  0.78302600252E+02 -0.60877648189E+03  0.62065592668E+03  0.41800000000E+01 0.  1.
         -5    1    3    3    0  502  0.33534528148E+02 -0.42442096462E+01 -0.11814466399E+03  0.12295613821E+03  0.41800000000E+01 0.  1.
        -11    1    1    2    0    0  0.80842464820E+02 -0.37734644234E+02 -0.48390550596E+03  0.49206091716E+03  0.00000000000E+00 0.  1.
         11    1    1    2    0    0 -0.22419367861E+02 -0.36323746372E+02 -0.21678144636E+03  0.22094397048E+03  0.00000000000E+00 0. -1.
</event>
<event>
 7    1  0.2842702E-009  0.1222416E+03  0.7561462E-02  0.1239444E+00
         -2   -1    0    0    0  501 -0.00000000000E+00  0.00000000000E+00  0.20859395899E+02  0.20859395899E+02  0.00000000000E+00 0.  1.
          2   -1    0    0  501    0  0.00000000000E+00 -0.00000000000E+00 -0.16902505223E+04  0.16902505223E+04  0.00000000000E+00 0. -1.
         25    2    1    2    0    0  0.10969590758E+03  0.28348975999E+01 -0.13600862255E+04  0.13702275942E+04  0.12509152736E+03 0.  0.
          5    1    3    3  502    0  0.93230941134E+02  0.33943655445E+02 -0.12625727980E+04  0.12664721563E+04  0.41800000000E+01 0. -1.
         -5    1    3    3    0  502  0.16464966446E+02 -0.31108757845E+02 -0.97513427497E+02  0.10375543782E+03  0.41800000000E+01 0. -1.
        -11    1    1    2    0    0 -0.26622981010E+02 -0.74473416862E+00 -0.72464064621E+01  0.27601596937E+02  0.00000000000E+00 0.  1.
         11    1    1    2    0    0 -0.83072926570E+02 -0.20901634313E+01 -0.30205849447E+03  0.31328072714E+03  0.00000000000E+00 0. -1.
</event>
<event>
 7    1  0.2842702E-009  0.1456505E+03  0.7561462E-02  0.1205922E+00
          2   -1    0    0  501    0  0.00000000000E+00  0.00000000000E+00  0.35537089830E+03  0.35537089830E+03  0.00000000000E+00 0. -1.
         -2   -1    0    0    0  501 -0.00000000000E+00 -0.00000000000E+00 -0.63615740692E+02  0.63615740692E+02  0.00000000000E+00 0.  1.
         25    2    1    2    0    0  0.10070036135E+03  0.24635034601E+02  0.15503562002E+03  0.22456834529E+03  0.12508976988E+03 0.  0.
          5    1    3    3  502    0 -0.73582053030E+01  0.49107512116E+02  0.63981904740E+02  0.81097764863E+02  0.41800000000E+01 0. -1.
         -5    1    3    3    0  502  0.10805856666E+03 -0.24472477516E+02  0.91053715276E+02  0.14347058043E+03  0.41800000000E+01 0. -1.
        -11    1    1    2    0    0 -0.77854364442E+02  0.20062621986E+02  0.51390714077E+02  0.95419161372E+02  0.00000000000E+00 0.  1.
         11    1    1    2    0    0 -0.22845996911E+02 -0.44697656586E+02  0.85328823519E+02  0.98999132331E+02  0.00000000000E+00 0. -1.
</event>
<event>
 7    1  0.2842702E-009  0.1575557E+03  0.7561462E-02  0.1191484E+00
         -1   -1    0    0    0  501 -0.00000000000E+00  0.00000000000E+00  0.26293421117E+02  0.26293421117E+02  0.00000000000E+00 0.  1.
          1   -1    0    0  501    0  0.00000000000E+00 -0.00000000000E+00 -0.12528277096E+04  0.12528277096E+04  0.00000000000E+00 0. -1.
         25    2    1    2    0    0 -0.47375746396E+02  0.12956404360E+03 -0.76012488937E+03  0.78260351362E+03  0.12508840617E+03 0.  0.
          5    1    3    3  502    0 -0.20443552606E+02  0.14300433928E+03 -0.49270704077E+03  0.51346458526E+03  0.41800000000E+01 0. -1.
         -5    1    3    3    0  502 -0.26932193790E+02 -0.13440295675E+02 -0.26741784860E+03  0.26913892836E+03  0.41800000000E+01 0. -1.
        -11    1    1    2    0    0  0.19333308652E+02 -0.23169916868E+02 -0.18732619543E+02  0.35518064503E+02  0.00000000000E+00 0.  1.
         11    1    1    2    0    0  0.28042437744E+02 -0.10639412674E+03 -0.44767677954E+03  0.46099955255E+03  0.00000000000E+00 0. -1.
</event>
<event>
 7    1  0.2842702E-009  0.1071329E+03  0.7561462E-02  0.1265973E+00
          1   -1    0    0  501    0  0.00000000000E+00  0.00000000000E+00  0.32253571080E+02  0.32253571080E+02  0.00000000000E+00 0. -1.
         -1   -1    0    0    0  501 -0.00000000000E+00 -0.00000000000E+00 -0.45840660431E+03  0.45840660431E+03  0.00000000000E+00 0.  1.
         25    2    1    2    0    0  0.85933169292E+01  0.47044778028E+02 -0.29883204124E+03  0.32746907372E+03  0.12509336168E+03 0.  0.
          5    1    3    3  502    0 -0.55145240372E+02  0.35236587869E+02 -0.11347913907E+03  0.13106335134E+03  0.41800000000E+01 0. -1.
         -5    1    3    3    0  502  0.63738557301E+02  0.11808190159E+02 -0.18535290217E+03  0.19640572238E+03  0.41800000000E+01 0. -1.
        -11    1    1    2    0    0 -0.24616545743E+02 -0.58876041675E+02 -0.12825215476E+03  0.14325144958E+03  0.00000000000E+00 0.  1.
         11    1    1    2    0    0  0.16023228813E+02  0.11831263647E+02  0.93116277061E+00  0.19939652083E+02  0.00000000000E+00 0. -1.
</event>
<event>
 7    1  0.2842702E-009  0.1904460E+03  0.7561462E-02  0.1158060E+00
          2   -1    0    0  501    0  0.00000000000E+00  0.00000000000E+00  0.27364029202E+03  0.27364029202E+03  0.00000000000E+00 0.  1.
         -2   -1    0    0    0  501 -0.00000000000E+00 -0.00000000000E+00 -0.16216798874E+03  0.16216798874E+03  0.00000000000E+00 0. -1.
         25    2    1    2    0    0 -0.17313118970E+03  0.51362973791E+02  0.54688483366E+02  0.22638550154E+03  0.12508797372E+03 0.  0.
          5    1    3    3  502    0 -0.67361527551E+02  0.54846122287E+02  0.79256625065E+02  0.11766374778E+03  0.41800000000E+01 0. -1.
         -5    1    3    3    0  502 -0.10576966215E+03 -0.34831484961E+01 -0.24568141699E+02  0.10872175376E+03  0.41800000000E+01 0. -1.
        -11    1    1    2    0    0  0.75488112646E+02 -0.49660227869E+02  0.65166324101E+02  0.11140575919E+03  0.00000000000E+00 0.  1.
         11    1    1    2    0    0  0.97643077054E+02 -0.17027459216E+01 -0.83825041829E+01  0.98017020035E+02  0.00000000000E+00 0. -1.
</event>
<event>
 7    1  0.2842702E-009  0.1115765E+03  0.7561462E-02  0.1257678E+00
         -2   -1    0    0    0  501 -0.00000000000E+00  0.00000000000E+00  0.45506499396E+02  0.45506499396E+02  0.00000000000E+00 0.  1.
          2   -1    0    0  501    0  0.00000000000E+00 -0.00000000000E+00 -0.47473893283E+03  0.47473893283E+03  0.00000000000E+00 0. -1.
         25    2    1    2    0    0 -0.55537230623E+02  0.43708128559E+02 -0.11025091142E+03  0.18110854843E+03  0.12510099263E+03 0.  0.
          5    1    3    3  502    0 -0.79029202125E+02  0.30916581512E+01 -0.23871628765E+02  0.82719406420E+02  0.41800000000E+01 0. -1.
         -5    1    3    3    0  502  0.23491971502E+02  0.40616470408E+02 -0.86379282657E+02  0.98389142012E+02  0.41800000000E+01 0. -1.
        -11    1    1    2    0    0  0.70853840846E+02 -0.38686951909E+02 -0.31069798842E+03  0.32101430968E+03  0.00000000000E+00 0.  1.
         11    1    1    2    0    0 -0.15316610223E+02 -0.50211766500E+01 -0.82835335850E+01  0.18122574109E+02  0.00000000000E+00 0. -1.
</event>
<event>
 7    1  0.2842702E-009  0.8449085E+02  0.7561462E-02  0.1316769E+00
          2   -1    0    0  501    0  0.00000000000E+00  0.00000000000E+00  0.33924377525E+03  0.33924377525E+03  0.00000000000E+00 0. -1.
         -2   -1    0    0    0  501 -0.00000000000E+00 -0.00000000000E+00 -0.38887610694E+02  0.38887610694E+02  0.00000000000E+00 0.  1.
         25    2    1    2    0    0 -0.10985570579E+02  0.21665936262E+02  0.12225070398E+03  0.17658200369E+03  0.12508346753E+03 0.  0.
          5    1    3    3  502    0 -0.11620847923E+02  0.47592949896E+02 -0.23665037350E+01  0.49226067548E+02  0.41800000000E+01 0. -1.
         -5    1    3    3    0  502  0.63527734373E+00 -0.25927013634E+02  0.12461720771E+03  0.12735593615E+03  0.41800000000E+01 0. -1.
        -11    1    1    2    0    0 -0.29876434522E+02  0.19390894383E+02  0.80898112082E+02  0.88391813326E+02  0.00000000000E+00 0. -1.
         11    1    1    2    0    0  0.40862005101E+02 -0.41056830645E+02  0.97207348498E+02  0.11315756893E+03  0.00000000000E+00 0.  1.
</event>
<event>
 7    1  0.2842702E-009  0.9626702E+02  0.7561462E-02  0.1288348E+00
         -1   -1    0    0    0  501 -0.00000000000E+00  0.00000000000E+00  0.16528456172E+02  0.16528456172E+02  0.00000000000E+00 0.  1.
          1   -1    0    0  501    0  0.00000000000E+00 -0.00000000000E+00 -0.10780808246E+04  0.10780808246E+04  0.00000000000E+00 0. -1.
         25    2    1    2    0    0  0.43982504733E+02 -0.51942453769E+01 -0.84149367182E+03  0.85189207695E+03  0.12508824950E+03 0.  0.
          5    1    3    3  502    0  0.73136898548E+02 -0.59194935933E+01 -0.78257016761E+03  0.78601373141E+03  0.41800000000E+01 0. -1.
         -5    1    3    3    0  502 -0.29154393814E+02  0.72524821639E+00 -0.58923504207E+02  0.65878345544E+02  0.41800000000E+01 0. -1.
        -11    1    1    2    0    0  0.20647790766E+02 -0.10361211132E+02 -0.15994106950E+02  0.28097996668E+02  0.00000000000E+00 0.  1.
         11    1    1    2    0    0 -0.64630295499E+02  0.15555456509E+02 -0.20406458966E+03  0.21461920714E+03  0.00000000000E+00 0. -1.
</event>
<event>
 7    1  0.2842702E-009  0.1303501E+03  0.7561462E-02  0.1226937E+00
          2   -1    0    0  501    0  0.00000000000E+00  0.00000000000E+00  0.38136920414E+03  0.38136920414E+03  0.00000000000E+00 0. -1.
         -2   -1    0    0    0  501 -0.00000000000E+00 -0.00000000000E+00 -0.57755529856E+02  0.57755529856E+02  0.00000000000E+00 0.  1.
         25    2    1    2    0    0 -0.56970214698E+02  0.63886170254E+02  0.24596988093E+03  0.28892872305E+03  0.12510626110E+03 0.  0.
          5    1    3    3  502    0  0.39155879753E+02  0.22548361311E+02  0.93896174555E+02  0.10428602741E+03  0.41800000000E+01 0.  1.
         -5    1    3    3    0  502 -0.96126094451E+02  0.41337808943E+02  0.15207370637E+03  0.18464269564E+03  0.41800000000E+01 0.  1.
        -11    1    1    2    0    0  0.59637251062E+01 -0.59068218440E+02  0.27208774288E+01  0.59430830558E+02  0.00000000000E+00 0.  1.
         11    1    1    2    0    0  0.51006489592E+02 -0.48179518137E+01  0.74922915934E+02  0.90765180396E+02  0.00000000000E+00 0. -1.
</event>
<event>
 7    1  0.2842702E-009  0.1132440E+03  0.7561462E-02  0.1254678E+00
          2   -1    0    0  501    0  0.00000000000E+00  0.00000000000E+00  0.26738489758E+03  0.26738489758E+03  0.00000000000E+00 0. -1.
         -2   -1    0    0    0  501 -0.00000000000E+00 -0.00000000000E+00 -0.66021483721E+02  0.66021483721E+02  0.00000000000E+00 0.  1.
         25    2    1    2    0    0  0.51522936479E+02 -0.38915239035E+02  0.15988427004E+03  0.21303624556E+03  0.12510976501E+03 0.  0.
          5    1    3    3  502    0  0.33947884709E+02 -0.84820109186E+02  0.10376362156E+03  0.13831583914E+03  0.41800000000E+01 0.  1.
         -5    1    3    3    0  502  0.17575051770E+02  0.45904870151E+02  0.56120648483E+02  0.74720406412E+02  0.41800000000E+01 0.  1.
        -11    1    1    2    0    0 -0.23057673285E+02 -0.13016447497E+02  0.53725454947E+02  0.59895815480E+02  0.00000000000E+00 0. -1.
         11    1    1    2    0    0 -0.28465263195E+02  0.51931686532E+02 -0.12246311135E+02  0.60474320262E+02  0.00000000000E+00 0.  1.
</event>
<event>
 7    1  0.2842702E-009  0.1218151E+03  0.7561462E-02  0.1240132E+00
          2   -1    0    0  501    0  0.00000000000E+00  0.00000000000E+00  0.98372772699E+02  0.98372772699E+02  0.00000000000E+00 0. -1.
         -2   -1    0    0    0  501 -0.00000000000E+00 -0.00000000000E+00 -0.27919479519E+03  0.27919479519E+03  0.00000000000E+00 0.  1.
         25    2    1    2    0    0  0.66983799069E+02  0.48228067174E+02 -0.20196662854E+03  0.25149758999E+03  0.12509093863E+03 0.  0.
          5    1    3    3  502    0 -0.17667677466E+02  0.31516316118E+02 -0.53796250738E+01  0.36767346582E+02  0.41800000000E+01 0. -1.
         -5    1    3    3    0  502  0.84651476535E+02  0.16711751056E+02 -0.19658700346E+03  0.21473024341E+03  0.41800000000E+01 0. -1.
        -11    1    1    2    0    0  0.15824506968E+01  0.22388473298E+02  0.15894246497E+02  0.27502271880E+02  0.00000000000E+00 0. -1.
         11    1    1    2    0    0 -0.68566249766E+02 -0.70616540473E+02  0.52503595461E+01  0.98567706023E+02  0.00000000000E+00 0.  1.
</event>
<event>
 7    1  0.2842702E-009  0.7174708E+02  0.7561462E-02  0.1354251E+00
          2   -1    0    0  501    0  0.00000000000E+00  0.00000000000E+00  0.29135847374E+03  0.29135847374E+03  0.00000000000E+00 0. -1.
         -2   -1    0    0    0  501 -0.00000000000E+00 -0.00000000000E+00 -0.63822105203E+02  0.63822105203E+02  0.00000000000E+00 0.  1.
         25    2    1    2    0    0 -0.41892609402E+02 -0.21202255482E+02  0.38211193858E+02  0.13896551442E+03  0.12508713963E+03 0.  0.
          5    1    3    3  502    0 -0.42960456767E+02 -0.56021281310E+00 -0.39458541284E+02  0.58483874396E+02  0.41800000000E+01 0. -1.
         -5    1    3    3    0  502  0.10678473650E+01 -0.20642042669E+02  0.77669735142E+02  0.80481640022E+02  0.41800000000E+01 0. -1.
        -11    1    1    2    0    0  0.43125495857E+02  0.40939733747E+02  0.18709101688E+03  0.19631331791E+03  0.00000000000E+00 0. -1.
         11    1    1    2    0    0 -0.12328864551E+01 -0.19737478265E+02  0.22341577999E+01  0.19901746615E+02  0.00000000000E+00 0.  1.
</event>
<event>
 7    1  0.2842702E-009  0.1090478E+03  0.7561462E-02  0.1262343E+00
         -2   -1    0    0    0  501 -0.00000000000E+00  0.00000000000E+00  0.27178334868E+02  0.27178334868E+02  0.00000000000E+00 0.  1.
          2   -1    0    0  501    0  0.00000000000E+00 -0.00000000000E+00 -0.78047842814E+03  0.78047842814E+03  0.00000000000E+00 0. -1.
         25    2    1    2    0    0  0.11716798114E+02  0.77289006302E+02 -0.25485329785E+03  0.29446348672E+03  0.12509063809E+03 0.  0.
          5    1    3    3  502    0  0.38011857192E+02  0.68482667398E+02 -0.63090973194E+02  0.10066141425E+03  0.41800000000E+01 0.  1.
         -5    1    3    3    0  502 -0.26295059078E+02  0.88063389038E+01 -0.19176232465E+03  0.19380207247E+03  0.41800000000E+01 0.  1.
        -11    1    1    2    0    0 -0.45698528872E+02 -0.52189377314E+02 -0.40139744551E+03  0.40734751246E+03  0.00000000000E+00 0. -1.
         11    1    1    2    0    0  0.33981730757E+02 -0.25099628988E+02 -0.97049349915E+02  0.10584576382E+03  0.00000000000E+00 0.  1.
</event>
<event>
 7    1  0.2842702E-009  0.1217774E+03  0.7561462E-02  0.1240193E+00
         -4   -1    0    0    0  501 -0.00000000000E+00  0.00000000000E+00  0.26334594931E+03  0.26334594931E+03  0.00000000000E+00 0.  1.
          4   -1    0    0  501    0  0.00000000000E+00 -0.00000000000E+00 -0.91958361373E+02  0.91958361373E+02  0.00000000000E+00 0. -1.
         25    2    1    2    0    0  0.10278704352E+03  0.20258903138E+02  0.13647521445E+03  0.21271884592E+03  0.12509286062E+03 0.  0.
          5    1    3    3  502    0  0.55825711627E+02  0.34182900749E+02  0.14829842786E+03  0.16215695140E+03  0.41800000000E+01 0. -1.
         -5    1    3    3    0  502  0.46961331889E+02 -0.13923997611E+02 -0.11823213404E+02  0.50561894520E+02  0.41800000000E+01 0. -1.
        -11    1    1    2    0    0 -0.71158603366E+02 -0.48731132718E+02  0.47166293689E+02  0.98300200352E+02  0.00000000000E+00 0.  1.
         11    1    1    2    0    0 -0.31628440150E+02  0.28472229580E+02 -0.12253920205E+02  0.44285264412E+02  0.00000000000E+00 0. -1.
</event>
<event>
 7    1  0.2842702E-009  0.2947102E+03  0.7561462E-02  0.1087915E+00
          1   -1    0    0  501    0  0.00000000000E+00  0.00000000000E+00  0.42507016589E+03  0.42507016589E+03  0.00000000000E+00 0. -1.
         -1   -1    0    0    0  501 -0.00000000000E+00 -0.00000000000E+00 -0.28966073729E+03  0.28966073729E+03  0.00000000000E+00 0.  1.
         25    2    1    2    0    0 -0.21805072419E+03  0.18444546797E+03 -0.10667399939E+03  0.32953594610E+03  0.12509335974E+03 0.  0.
          5    1    3    3  502    0 -0.10187283115E+03  0.35249925773E+02  0.82886305320E+01  0.10819798885E+03  0.41800000000E+01 0.  1.
         -5    1    3    3    0  502 -0.11617789303E+03  0.14919554220E+03 -0.11496262992E+03  0.22133795725E+03  0.41800000000E+01 0.  1.
        -11    1    1    2    0    0  0.63346133940E+02 -0.93517298089E+02  0.53853744374E+02  0.12513370253E+03  0.00000000000E+00 0.  1.
         11    1    1    2    0    0  0.15470459025E+03 -0.90928169885E+02  0.18822968361E+03  0.26006125454E+03  0.00000000000E+00 0. -1.
</event>
<event>
 7    1  0.2842702E-009  0.1040294E+03  0.7561462E-02  0.1272044E+00
          2   -1    0    0  501    0  0.00000000000E+00  0.00000000000E+00  0.92943928615E+03  0.92943928615E+03  0.00000000000E+00 0.  1.
         -2   -1    0    0    0  501 -0.00000000000E+00 -0.00000000000E+00 -0.13847974601E+02  0.13847974601E+02  0.00000000000E+00 0. -1.
         25    2    1    2    0    0  0.34858021985E+02  0.17869119167E+02  0.53370684736E+03  0.54956800622E+03  0.12509039700E+03 0.  0.
          5    1    3    3  502    0  0.40289659357E+02 -0.43224300074E+02  0.15557220388E+03  0.16646855495E+03  0.41800000000E+01 0.  1.
         -5    1    3    3    0  502 -0.54316373724E+01  0.61093419241E+02  0.37813464348E+03  0.38309945126E+03  0.41800000000E+01 0.  1.
        -11    1    1    2    0    0 -0.56943581794E+02 -0.27517357103E+02  0.33589732707E+03  0.34179934287E+03  0.00000000000E+00 0. -1.
         11    1    1    2    0    0  0.22085559810E+02  0.96482379367E+01  0.45987137119E+02  0.51919911669E+02  0.00000000000E+00 0.  1.
</event>
<event>
 7    1  0.2842702E-009  0.1329816E+03  0.7561462E-02  0.1223097E+00
          1   -1    0    0  501    0  0.00000000000E+00  0.00000000000E+00  0.70928259100E+02  0.70928259100E+02  0.00000000000E+00 0. -1.
         -1   -1    0    0    0  501 -0.00000000000E+00 -0.00000000000E+00 -0.38702845288E+03  0.38702845288E+03  0.00000000000E+00 0.  1.
         25    2    1    2    0    0 -0.95067573279E+02 -0.24910571665E+02 -0.65480268311E+02  0.17202709786E+03  0.12508907543E+03 0.  0.
          5    1    3    3  502    0 -0.93418231445E+01  0.41884081798E+02  0.34701265712E+01  0.43255752752E+02  0.41800000000E+01 0. -1.
         -5    1    3    3    0  502 -0.85725750135E+02 -0.66794653463E+02 -0.68950394882E+02  0.12877134511E+03  0.41800000000E+01 0. -1.
        -11    1    1    2    0    0  0.60535632182E+02 -0.13931484189E+02 -0.53207894853E+02  0.81790764088E+02  0.00000000000E+00 0.  1.
         11    1    1    2    0    0  0.34531941097E+02  0.38842055855E+02 -0.19741203062E+03  0.20413885003E+03  0.00000000000E+00 0. -1.
</event>
<event>
 7    1  0.2842702E-009  0.1098206E+03  0.7561462E-02  0.1260902E+00
          2   -1    0    0  501    0  0.00000000000E+00  0.00000000000E+00  0.71206159225E+03  0.71206159225E+03  0.00000000000E+00 0. -1.
         -2   -1    0    0    0  501 -0.00000000000E+00 -0.00000000000E+00 -0.18030798877E+02  0.18030798877E+02  0.00000000000E+00 0.  1.
         25    2    1    2    0    0  0.10089204592E+02  0.22736272900E+02  0.33070930418E+03  0.35445053769E+03  0.12509120529E+03 0.  0.
          5    1    3    3  502    0  0.49984311466E+02 -0.29643939972E+02  0.11562851177E+03  0.12947825958E+03  0.41800000000E+01 0.  1.
         -5    1    3    3    0  502 -0.39895106873E+02  0.52380212873E+02  0.21508079241E+03  0.22497227811E+03  0.41800000000E+01 0.  1.
        -11    1    1    2    0    0 -0.46698404873E+02 -0.33234311538E+02  0.21505580388E+03  0.22256293327E+03  0.00000000000E+00 0. -1.
         11    1    1    2    0    0  0.36609200280E+02  0.10498038638E+02  0.14826568530E+03  0.15307892017E+03  0.00000000000E+00 0.  1.
</event>
<event>
 7    1  0.2842702E-009  0.9693825E+02  0.7561462E-02  0.1286869E+00
         -3   -1    0    0    0  501 -0.00000000000E+00  0.00000000000E+00  0.18762934575E+02  0.18762934575E+02  0.00000000000E+00 0.  1.
          3   -1    0    0  501    0  0.00000000000E+00 -0.00000000000E+00 -0.78705186523E+03  0.78705186523E+03  0.00000000000E+00 0. -1.
         25    2    1    2    0    0 -0.10744108097E+02 -0.30643717750E+02 -0.60283775168E+03  0.61653631491E+03  0.12509676040E+03 0.  0.
          5    1    3    3  502    0 -0.54780962295E+02 -0.27346474389E+02 -0.15812032190E+03  0.16961218143E+03  0.41800000000E+01 0. -1.
         -5    1    3    3    0  502  0.44036854198E+02 -0.32972433614E+01 -0.44471742978E+03  0.44692413348E+03  0.41800000000E+01 0. -1.
        -11    1    1    2    0    0  0.48472560649E+01 -0.28400512606E+02 -0.31031253785E+02  0.42344110796E+02  0.00000000000E+00 0.  1.
         11    1    1    2    0    0  0.58968520318E+01  0.59044230356E+02 -0.13441992520E+03  0.14693437410E+03  0.00000000000E+00 0. -1.
</event>
<event>
 7    1  0.2842702E-009  0.1001992E+03  0.7561462E-02  0.1279878E+00
          1   -1    0    0  501    0  0.00000000000E+00  0.00000000000E+00  0.22877486914E+02  0.22877486914E+02  0.00000000000E+00 0. -1.
         -1   -1    0    0    0  501 -0.00000000000E+00 -0.00000000000E+00 -0.62263217151E+03  0.62263217151E+03  0.00000000000E+00 0.  1.
         25    2    1    2    0    0  0.45838865051E+01 -0.41186121713E+02 -0.42205353364E+03  0.44214623773E+03  0.12508717619E+03 0.  0.
          5    1    3    3  502    0  0.48431508884E+02 -0.96292380901E+01 -0.34142470058E+03  0.34500236499E+03  0.41800000000E+01 0.  1.
         -5    1    3    3    0  502 -0.43847622379E+02 -0.31556883623E+02 -0.80628833058E+02  0.97143872748E+02  0.41800000000E+01 0.  1.
        -11    1    1    2    0    0  0.20890295374E+02  0.60940778478E+02 -0.96811519803E+02  0.11628694376E+03  0.00000000000E+00 0. -1.
         11    1    1    2    0    0 -0.25474181879E+02 -0.19754656765E+02 -0.80889631156E+02  0.87076476931E+02  0.00000000000E+00 0.  1.
</event>
<event>
 7    1  0.2842702E-009  0.1235800E+03  0.7561462E-02  0.1237305E+00
         -1   -1    0    0    0  501 -0.00000000000E+00  0.00000000000E+00  0.68186515773E+02  0.68186515773E+02  0.00000000000E+00 0.  1.
          1   -1    0    0  501    0  0.00000000000E+00 -0.00000000000E+00 -0.29657482678E+03  0.29657482678E+03  0.00000000000E+00 0. -1.
         25    2    1    2    0    0  0.49561542555E+02 -0.57685613557E+02 -0.55969215215E+02  0.15673159595E+03  0.12509301981E+03 0.  0.
          5    1    3    3  502    0 -0.33345496454E+02 -0.24063426237E+02 -0.52877559820E+02  0.67115418114E+02  0.41800000000E+01 0. -1.
         -5    1    3    3    0  502  0.82907039010E+02 -0.33622187320E+02 -0.30916553948E+01  0.89616177839E+02  0.41800000000E+01 0. -1.
        -11    1    1    2    0    0  0.21642157370E+02  0.35691955608E+02 -0.66710105857E+02  0.78692673701E+02  0.00000000000E+00 0.  1.
         11    1    1    2    0    0 -0.71203699925E+02  0.21993657949E+02 -0.10570898994E+03  0.12933707290E+03  0.00000000000E+00 0. -1.
</event>
<event>
 7    1  0.2842702E-009  0.1076731E+03  0.7561462E-02  0.1264941E+00
         -2   -1    0    0    0  501 -0.00000000000E+00  0.00000000000E+00  0.43596279735E+02  0.43596279735E+02  0.00000000000E+00 0. -1.
          2   -1    0    0  501    0  0.00000000000E+00 -0.00000000000E+00 -0.42453455222E+03  0.42453455222E+03  0.00000000000E+00 0.  1.
         25    2    1    2    0    0 -0.67061572263E+02 -0.33494072711E+02 -0.15729411157E+03  0.21449034398E+03  0.12508222394E+03 0.  0.
          5    1    3    3  502    0  0.18623260726E+02 -0.19537594612E+01 -0.10984301521E+03  0.11150606892E+03  0.41800000000E+01 0.  1.
         -5    1    3    3    0  502 -0.85684832989E+02 -0.31540313250E+02 -0.47451096362E+02  0.10298427506E+03  0.41800000000E+01 0.  1.
        -11    1    1    2    0    0  0.21879078161E+01 -0.20340113174E+02 -0.77587164027E+01  0.21879324138E+02  0.00000000000E+00 0. -1.
         11    1    1    2    0    0  0.64873664447E+02  0.53834185885E+02 -0.21588544451E+03  0.23176116383E+03  0.00000000000E+00 0.  1.
</event>
<event>
 7    1  0.2842702E-009  0.1877326E+03  0.7561462E-02  0.1160522E+00
         -1   -1    0    0    0  501 -0.00000000000E+00  0.00000000000E+00  0.11373446579E+03  0.11373446579E+03  0.00000000000E+00 0.  1.
          1   -1    0    0  501    0  0.00000000000E+00 -0.00000000000E+00 -0.40244634223E+03  0.40244634223E+03  0.00000000000E+00 0. -1.
         25    2    1    2    0    0 -0.12559898887E+02 -0.18341915082E+03 -0.16909520100E+03  0.27935829901E+03  0.12509011263E+03 0.  0.
          5    1    3    3  502    0  0.59959769488E+01 -0.15244712222E+03 -0.18487538933E+03  0.23973414190E+03  0.41800000000E+01 0.  1.
         -5    1    3    3    0  502 -0.18555875836E+02 -0.30972028598E+02  0.15780188322E+02  0.39624157114E+02  0.41800000000E+01 0.  1.
        -11    1    1    2    0    0 -0.68338170134E+01  0.10726628086E+02  0.13026894364E+02  0.18206086396E+02  0.00000000000E+00 0.  1.
         11    1    1    2    0    0  0.19393715901E+02  0.17269252274E+03 -0.13264356980E+03  0.21861642261E+03  0.00000000000E+00 0. -1.
</event>
<event>
 7    1  0.2842702E-009  0.9027950E+02  0.7561462E-02  0.1302176E+00
         -3   -1    0    0    0  501 -0.00000000000E+00  0.00000000000E+00  0.10453206061E+03  0.10453206061E+03  0.00000000000E+00 0.  1.
          3   -1    0    0  501    0  0.00000000000E+00 -0.00000000000E+00 -0.13662078336E+03  0.13662078336E+03  0.00000000000E+00 0. -1.
         25    2    1    2    0    0  0.35155224144E+02 -0.37559377684E+02 -0.13219260377E+02  0.13590327705E+03  0.12509338604E+03 0.  0.
          5    1    3    3  502    0  0.53955687987E+02 -0.27949040665E+02  0.43757120568E+02  0.74996820870E+02  0.41800000000E+01 0.  1.
         -5    1    3    3    0  502 -0.18800463843E+02 -0.96103370188E+01 -0.56976380946E+02  0.60906456176E+02  0.41800000000E+01 0.  1.
        -11    1    1    2    0    0  0.16960704291E+02  0.42517119426E+02  0.78987745981E+01  0.46451712288E+02  0.00000000000E+00 0.  1.
         11    1    1    2    0    0 -0.52115928436E+02 -0.49577417418E+01 -0.26768236966E+02  0.58797854639E+02  0.00000000000E+00 0. -1.
</event>
<event>
 7    1  0.2842702E-009  0.8344208E+02  0.7561462E-02  0.1319558E+00
         -2   -1    0    0    0  501 -0.00000000000E+00  0.00000000000E+00  0.21387108285E+02  0.21387108285E+02  0.00000000000E+00 0.  1.
          2   -1    0    0  501    0  0.00000000000E+00 -0.00000000000E+00 -0.63070268392E+03  0.63070268392E+03  0.00000000000E+00 0. -1.
         25    2    1    2    0    0 -0.83169563820E+01  0.39615451723E+02 -0.35442653669E+03  0.37802652006E+03  0.12508926484E+03 0.  0.
          5    1    3    3  502    0  0.21625832058E+02  0.16819238653E+01 -0.31429375836E+03  0.31506911055E+03  0.41800000000E+01 0.  1.
         -5    1    3    3    0  502 -0.29942788440E+02  0.37933527858E+02 -0.40132778331E+02  0.62957409507E+02  0.41800000000E+01 0.  1.
        -11    1    1    2    0    0  0.45496442989E+02 -0.55019819105E+01 -0.81722593855E+02  0.93695146491E+02  0.00000000000E+00 0.  1.
         11    1    1    2    0    0 -0.37179486607E+02 -0.34113469812E+02 -0.17316644509E+03  0.18036812565E+03  0.00000000000E+00 0. -1.
</event>
<event>
 7    1  0.2842702E-009  0.1666316E+03  0.7561462E-02  0.1181407E+00
          2   -1    0    0  501    0  0.00000000000E+00  0.00000000000E+00  0.50491973989E+03  0.50491973989E+03  0.00000000000E+00 0. -1.
         -2   -1    0    0    0  501 -0.00000000000E+00 -0.00000000000E+00 -0.93345864248E+02  0.93345864248E+02  0.00000000000E+00 0.  1.
         25    2    1    2    0    0 -0.13989047360E+03  0.17890832510E+02  0.38543251500E+03  0.42906383622E+03  0.12509246757E+03 0.  0.
          5    1    3    3  502    0  0.96359487852E+01 -0.28059639927E+02  0.88294058032E+02  0.93238983186E+02  0.41800000000E+01 0. -1.
         -5    1    3    3    0  502 -0.14952642238E+03  0.45950472437E+02  0.29713845696E+03  0.33582485303E+03  0.41800000000E+01 0. -1.
        -11    1    1    2    0    0  0.56555965983E+02 -0.27580754697E+02 -0.28504745039E+02  0.69078186193E+02  0.00000000000E+00 0. -1.
         11    1    1    2    0    0  0.83334507613E+02  0.96899221870E+01  0.54646105682E+02  0.10012358172E+03  0.00000000000E+00 0.  1.
</event>
<event>
 7    1  0.2842702E-009  0.1896212E+03  0.7561462E-02  0.1158803E+00
         -2   -1    0    0    0  501 -0.00000000000E+00  0.00000000000E+00  0.25769596972E+03  0.25769596972E+03  0.00000000000E+00 0.  1.
          2   -1    0    0  501    0  0.00000000000E+00 -0.00000000000E+00 -0.16174854016E+03  0.16174854016E+03  0.00000000000E+00 0. -1.
         25    2    1    2    0    0  0.16434370798E+03  0.10915569013E+02  0.15844603164E+02  0.20742839417E+03  0.12508990071E+03 0.  0.
          5    1    3    3  502    0  0.18442603615E+03  0.67859058371E+01  0.70549757358E+01  0.18473293266E+03  0.41800000000E+01 0. -1.
         -5    1    3    3    0  502 -0.20082328172E+02  0.41296631764E+01  0.87896274285E+01  0.22695461508E+02  0.41800000000E+01 0. -1.
        -11    1    1    2    0    0 -0.25882490643E+02 -0.23142502855E+02  0.63045114327E+02  0.71973364523E+02  0.00000000000E+00 0.  1.
         11    1    1    2    0    0 -0.13846121733E+03  0.12226933841E+02  0.17057712070E+02  0.14004275118E+03  0.00000000000E+00 0. -1.
</event>
<event>
 7    1  0.2842702E-009  0.9255462E+02  0.7561462E-02  0.1296781E+00
         -1   -1    0    0    0  501 -0.00000000000E+00  0.00000000000E+00  0.51604864505E+03  0.51604864505E+03  0.00000000000E+00 0.  1.
          1   -1    0    0  501    0  0.00000000000E+00 -0.00000000000E+00 -0.51208828454E+02  0.51208828454E+02  0.00000000000E+00 0. -1.
         25    2    1    2    0    0  0.10324127235E+02 -0.14709118975E+01  0.38835900543E+02  0.13140637628E+03  0.12510258738E+03 0.  0.
          5    1    3    3  502    0 -0.16460357513E+01 -0.46574305230E+02 -0.24348643269E+02  0.52746603401E+02  0.41800000000E+01 0.  1.
         -5    1    3    3    0  502  0.11970162986E+02  0.45103393332E+02  0.63184543811E+02  0.78659772874E+02  0.41800000000E+01 0.  1.
        -11    1    1    2    0    0 -0.50785507457E+02  0.38845883391E+01  0.26268990879E+03  0.26758222283E+03  0.00000000000E+00 0. -1.
         11    1    1    2    0    0  0.40461380222E+02 -0.24136764416E+01  0.16331400726E+03  0.16826887440E+03  0.00000000000E+00 0.  1.
</event>
<event>
 7    1  0.2842702E-009  0.6451920E+02  0.7561462E-02  0.1379789E+00
          2   -1    0    0  501    0  0.00000000000E+00  0.00000000000E+00  0.42393787463E+03  0.42393787463E+03  0.00000000000E+00 0.  1.
         -2   -1    0    0    0  501 -0.00000000000E+00 -0.00000000000E+00 -0.31301349714E+02  0.31301349714E+02  0.00000000000E+00 0. -1.
         25    2    1    2    0    0  0.27209408355E+02  0.28407684025E+02  0.19954714610E+03  0.23877597757E+03  0.12509018958E+03 0.  0.
          5    1    3    3  502    0 -0.39909045069E+01  0.24004315548E+02 -0.10141518947E+02  0.26691895591E+02  0.41800000000E+01 0.  1.
         -5    1    3    3    0  502  0.31200312862E+02  0.44033684774E+01  0.20968866505E+03  0.21208408198E+03  0.41800000000E+01 0.  1.
        -11    1    1    2    0    0  0.18703728245E+02 -0.16949901069E+02  0.15111515476E+03  0.15320874190E+03  0.00000000000E+00 0.  1.
         11    1    1    2    0    0 -0.45913136599E+02 -0.11457782956E+02  0.41974224059E+02  0.63254504883E+02  0.00000000000E+00 0. -1.
</event>
<event>
 7    1  0.2842702E-009  0.1255053E+03  0.7561462E-02  0.1234282E+00
          2   -1    0    0  501    0  0.00000000000E+00  0.00000000000E+00  0.54300514213E+03  0.54300514213E+03  0.00000000000E+00 0. -1.
         -2   -1    0    0    0  501 -0.00000000000E+00 -0.00000000000E+00 -0.43181237010E+02  0.43181237010E+02  0.00000000000E+00 0.  1.
         25    2    1    2    0    0 -0.10210872554E+03  0.12874419936E+02  0.33071217855E+03  0.36824936238E+03  0.12508039546E+03 0.  0.
          5    1    3    3  502    0  0.67552243753E+00  0.13115072388E+02 -0.68290416422E+01  0.15380821306E+02  0.41800000000E+01 0.  1.
         -5    1    3    3    0  502 -0.10278424798E+03 -0.24065245206E+00  0.33754122020E+03  0.35286854107E+03  0.41800000000E+01 0.  1.
        -11    1    1    2    0    0  0.37033589754E+02  0.37015640163E+02  0.44233806027E+02  0.68543956571E+02  0.00000000000E+00 0. -1.
         11    1    1    2    0    0  0.65075135791E+02 -0.49890060099E+02  0.12487792054E+03  0.14939306019E+03  0.00000000000E+00 0.  1.
</event>
<event>
 7    1  0.2842702E-009  0.1501280E+03  0.7561462E-02  0.1200316E+00
         -2   -1    0    0    0  501 -0.00000000000E+00  0.00000000000E+00  0.19465477307E+03  0.19465477307E+03  0.00000000000E+00 0. -1.
          2   -1    0    0  501    0  0.00000000000E+00 -0.00000000000E+00 -0.14806874537E+03  0.14806874537E+03  0.00000000000E+00 0.  1.
         25    2    1    2    0    0 -0.10105311576E+03 -0.79720320232E+02  0.38688647688E+02  0.18359716152E+03  0.12507615519E+03 0.  0.
          5    1    3    3  502    0  0.23497367259E+02 -0.49657809104E+00 -0.12950070562E+02  0.27157864155E+02  0.41800000000E+01 0.  1.
         -5    1    3    3    0  502 -0.12455048301E+03 -0.79223742141E+02  0.51638718250E+02  0.15643929737E+03  0.41800000000E+01 0.  1.
        -11    1    1    2    0    0  0.69734776770E+02  0.54796291962E+02  0.49358234185E+02  0.10149782257E+03  0.00000000000E+00 0. -1.
         11    1    1    2    0    0  0.31318338986E+02  0.24924028270E+02 -0.41460854178E+02  0.57628534349E+02  0.00000000000E+00 0.  1.
</event>
<event>
 7    1  0.2842702E-009  0.9327722E+02  0.7561462E-02  0.1295104E+00
          1   -1    0    0  501    0  0.00000000000E+00  0.00000000000E+00  0.21193860072E+03  0.21193860072E+03  0.00000000000E+00 0. -1.
         -1   -1    0    0    0  501 -0.00000000000E+00 -0.00000000000E+00 -0.63161292249E+02  0.63161292249E+02  0.00000000000E+00 0.  1.
         25    2    1    2    0    0  0.93714121874E+01 -0.24327384575E+02  0.50034402307E+02  0.13722758518E+03  0.12509326007E+03 0.  0.
          5    1    3    3  502    0 -0.46702848090E+02 -0.16639647492E+02 -0.13976807419E+02  0.51680338950E+02  0.41800000000E+01 0.  1.
         -5    1    3    3    0  502  0.56074260278E+02 -0.76877370835E+01  0.64011209727E+02  0.85547246232E+02  0.41800000000E+01 0.  1.
        -11    1    1    2    0    0 -0.42813669096E+02  0.14106282738E+02  0.15643666458E+02  0.47715005757E+02  0.00000000000E+00 0.  1.
         11    1    1    2    0    0  0.33442256908E+02  0.10221101838E+02  0.83099239710E+02  0.90157302035E+02  0.00000000000E+00 0. -1.
</event>
<event>
 7    1  0.2842702E-009  0.9121824E+02  0.7561462E-02  0.1299928E+00
          1   -1    0    0  501    0  0.00000000000E+00  0.00000000000E+00  0.51407373890E+02  0.51407373890E+02  0.00000000000E+00 0. -1.
         -1   -1    0    0    0  501 -0.00000000000E+00 -0.00000000000E+00 -0.27858756939E+03  0.27858756939E+03  0.00000000000E+00 0.  1.
         25    2    1    2    0    0  0.29376422935E+02  0.29879211205E+02 -0.90374685023E+02  0.15991011337E+03  0.12509164312E+03 0.  0.
          5    1    3    3  502    0  0.51437428096E+02  0.54914499004E+02 -0.99733766007E+02  0.12500283074E+03  0.41800000000E+01 0.  1.
         -5    1    3    3    0  502 -0.22061005161E+02 -0.25035287799E+02  0.93590809839E+01  0.34907282632E+02  0.41800000000E+01 0.  1.
        -11    1    1    2    0    0  0.89725107875E+01 -0.33733844186E+02 -0.82395750504E+01  0.35865983750E+02  0.00000000000E+00 0. -1.
         11    1    1    2    0    0 -0.38348933722E+02  0.38546329808E+01 -0.12856593542E+03  0.13421884616E+03  0.00000000000E+00 0.  1.
</event>
<event>
 7    1  0.2842702E-009  0.8875087E+02  0.7561462E-02  0.1305905E+00
          3   -1    0    0  501    0  0.00000000000E+00  0.00000000000E+00  0.28498169549E+02  0.28498169549E+02  0.00000000000E+00 0. -1.
         -3   -1    0    0    0  501 -0.00000000000E+00 -0.00000000000E+00 -0.61118730919E+03  0.61118730919E+03  0.00000000000E+00 0.  1.
         25    2    1    2    0    0 -0.45034155908E+00  0.49631688639E+02 -0.19003896618E+03  0.23286879132E+03  0.12509819335E+03 0.  0.
          5    1    3    3  502    0 -0.25361829530E+02  0.26755970873E+02 -0.19494015982E+03  0.19843951896E+03  0.41800000000E+01 0. -1.
         -5    1    3    3    0  502  0.24911487971E+02  0.22875717767E+02  0.49011936372E+01  0.34429272361E+02  0.41800000000E+01 0. -1.
        -11    1    1    2    0    0 -0.31972439842E+02 -0.63470218367E+02 -0.25398230695E+03  0.26373797181E+03  0.00000000000E+00 0.  1.
         11    1    1    2    0    0  0.32422781401E+02  0.13838529728E+02 -0.13866786652E+03  0.14307871562E+03  0.00000000000E+00 0. -1.
</event>
<event>
 6    1  0.2842702E-009  0.3369432E+03  0.7561462E-02  0.1068105E+00
          1   -1    0    0  501    0  0.00000000000E+00  0.00000000000E+00  0.90882019671E+03  0.90882019671E+03  0.00000000000E+00 0.  1.
         -1   -1    0    0    0  501 -0.00000000000E+00 -0.00000000000E+00 -0.19838595963E+03  0.19838595963E+03  0.00000000000E+00 0. -1.
          5    1    1    2  502    0 -0.21662100659E+03  0.21290160882E+03  0.50559023509E+03  0.58982261211E+03  0.41800000000E+01 0. -1.
         -5    1    1    2    0  502 -0.11818184335E+02  0.25426269034E+02  0.17075129446E+03  0.17308853687E+03  0.41800000000E+01 0.  1.
        -11    1    1    2    0    0  0.43684448940E+02 -0.10563485207E+03  0.22689199678E+02  0.11654120659E+03  0.00000000000E+00 0.  1.
         11    1    1    2    0    0  0.18475474199E+03 -0.13269302578E+03  0.11403507856E+02  0.22775380078E+03  0.00000000000E+00 0. -1.
</event>
<event>
 7    1  0.2842702E-009  0.6750137E+02  0.7561462E-02  0.1368802E+00
         -3   -1    0    0    0  501 -0.00000000000E+00  0.00000000000E+00  0.15329941654E+03  0.15329941654E+03  0.00000000000E+00 0.  1.
          3   -1    0    0  501    0  0.00000000000E+00 -0.00000000000E+00 -0.11254415059E+03  0.11254415059E+03  0.00000000000E+00 0. -1.
         25    2    1    2    0    0 -0.61106847517E+02 -0.19837589428E+02 -0.15448662309E+02  0.14146910978E+03  0.12508905263E+03 0.  0.
          5    1    3    3  502    0 -0.39402569048E+01 -0.14301746385E+01 -0.63910908821E+02  0.64184481694E+02  0.41800000000E+01 0.  1.
         -5    1    3    3    0  502 -0.57166590613E+02 -0.18407414789E+02  0.48462246512E+02  0.77284628087E+02  0.41800000000E+01 0.  1.
        -11    1    1    2    0    0  0.46960877292E+02  0.32398312249E+01  0.79545741791E+02  0.92430219839E+02  0.00000000000E+00 0.  1.
         11    1    1    2    0    0  0.14145970226E+02  0.16597758203E+02 -0.23341813533E+02  0.31944237509E+02  0.00000000000E+00 0. -1.
</event>
<event>
 7    1  0.2842702E-009  0.1118533E+03  0.7561462E-02  0.1257176E+00
          2   -1    0    0  501    0  0.00000000000E+00  0.00000000000E+00  0.11295919338E+04  0.11295919338E+04  0.00000000000E+00 0. -1.
         -2   -1    0    0    0  501 -0.00000000000E+00 -0.00000000000E+00 -0.15975074316E+02  0.15975074316E+02  0.00000000000E+00 0.  1.
         25    2    1    2    0    0 -0.35186406239E+02 -0.69997525004E+02  0.56122518099E+03  0.58030975066E+03  0.12509183123E+03 0.  0.
          5    1    3    3  502    0 -0.32098989844E+02 -0.83386971907E+02  0.20344044242E+03  0.22223685168E+03  0.41800000000E+01 0. -1.
         -5    1    3    3    0  502 -0.30874163947E+01  0.13389446902E+02  0.35778473857E+03  0.35807289898E+03  0.41800000000E+01 0. -1.
        -11    1    1    2    0    0  0.34105705974E+02 -0.13287383706E+02  0.16407146946E+03  0.16810473175E+03  0.00000000000E+00 0.  1.
         11    1    1    2    0    0  0.10807002647E+01  0.83284908710E+02  0.38832020900E+03  0.39715252568E+03  0.00000000000E+00 0. -1.
</event>
<event>
 7    1  0.2842702E-009  0.1024575E+03  0.7561462E-02  0.1275211E+00
         -2   -1    0    0    0  501 -0.00000000000E+00  0.00000000000E+00  0.27420586933E+02  0.27420586933E+02  0.00000000000E+00 0.  1.
          2   -1    0    0  501    0  0.00000000000E+00 -0.00000000000E+00 -0.54121597354E+03  0.54121597354E+03  0.00000000000E+00 0. -1.
         25    2    1    2    0    0  0.24984118994E+02 -0.45264840452E+02 -0.33293543007E+03  0.35939766859E+03  0.12509025383E+03 0.  0.
          5    1    3    3  502    0 -0.45229687185E+02 -0.16547826352E+02 -0.20483168350E+03  0.21045913172E+03  0.41800000000E+01 0.  1.
         -5    1    3    3    0  502  0.70213806180E+02 -0.28717014100E+02 -0.12810374658E+03  0.14893853687E+03  0.41800000000E+01 0.  1.
        -11    1    1    2    0    0  0.93327587149E+01  0.45330087508E+02 -0.31491089192E+02  0.55978620180E+02  0.00000000000E+00 0.  1.
         11    1    1    2    0    0 -0.34316877709E+02 -0.65247056030E-01 -0.14936886734E+03  0.15326027171E+03  0.00000000000E+00 0. -1.
</event>
<event>
 7    1  0.2842702E-009  0.1064030E+03  0.7561462E-02  0.1267380E+00
          2   -1    0    0  501    0  0.00000000000E+00  0.00000000000E+00  0.27989946425E+03  0.27989946425E+03  0.00000000000E+00 0.  1.
         -2   -1    0    0    0  501 -0.00000000000E+00 -0.00000000000E+00 -0.56155758867E+02  0.56155758867E+02  0.00000000000E+00 0. -1.
         25    2    1    2    0    0 -0.33652254778E+02  0.50049490379E+02  0.16153702022E+03  0.21302147502E+03  0.12508602712E+03 0.  0.
          5    1    3    3  502    0  0.34740034708E+02  0.46601926256E+02  0.11844324284E+03  0.13200334737E+03  0.41800000000E+01 0. -1.
         -5    1    3    3    0  502 -0.68392289486E+02  0.34475641228E+01  0.43093777381E+02  0.81018127653E+02  0.41800000000E+01 0. -1.
        -11    1    1    2    0    0 -0.16490902338E+02 -0.24798712184E+02  0.59840610930E+02  0.66841788593E+02  0.00000000000E+00 0.  1.
         11    1    1    2    0    0  0.50143157116E+02 -0.25250778195E+02  0.23660742297E+01  0.56191959498E+02  0.00000000000E+00 0. -1.
</event>
<event>
 7    1  0.2842702E-009  0.1016765E+03  0.7561462E-02  0.1276810E+00
         -1   -1    0    0    0  501 -0.00000000000E+00  0.00000000000E+00  0.11076454388E+03  0.11076454388E+03  0.00000000000E+00 0.  1.
          1   -1    0    0  501    0  0.00000000000E+00 -0.00000000000E+00 -0.13484832892E+03  0.13484832892E+03  0.00000000000E+00 0. -1.
         25    2    1    2    0    0 -0.54066116690E+02  0.17554649996E+02 -0.79773406451E+01  0.13762061955E+03  0.12507792071E+03 0.  0.
          5    1    3    3  502    0 -0.17115723910E+02 -0.31761044371E+02  0.43888030801E+02  0.56967917217E+02  0.41800000000E+01 0. -1.
         -5    1    3    3    0  502 -0.36950392781E+02  0.49315694367E+02 -0.51865371446E+02  0.80652702328E+02  0.41800000000E+01 0. -1.
        -11    1    1    2    0    0  0.78633298644E+02 -0.18121092589E+02 -0.19939697809E+02  0.83121364287E+02  0.00000000000E+00 0. -1.
         11    1    1    2    0    0 -0.24567181953E+02  0.56644259271E+00  0.38332534072E+01  0.24870888967E+02  0.00000000000E+00 0.  1.
</event>
<event>
 7    1  0.2842702E-009  0.1490231E+03  0.7561462E-02  0.1201679E+00
          1   -1    0    0  501    0  0.00000000000E+00  0.00000000000E+00  0.64200821840E+03  0.64200821840E+03  0.00000000000E+00 0. -1.
         -1   -1    0    0    0  501 -0.00000000000E+00 -0.00000000000E+00 -0.49713212107E+02  0.49713212107E+02  0.00000000000E+00 0.  1.
         25    2    1    2    0    0 -0.11425054146E+03 -0.47543412841E+02  0.44447846199E+03  0.47804134400E+03  0.12509540789E+03 0.  0.
          5    1    3    3  502    0 -0.13040171564E+03 -0.54423427286E+02  0.43553103169E+03  0.45789875393E+03  0.41800000000E+01 0.  1.
         -5    1    3    3    0  502  0.16151174177E+02  0.68800144455E+01  0.89474302932E+01  0.20142590075E+02  0.41800000000E+01 0.  1.
        -11    1    1    2    0    0  0.80490710901E+02  0.20385285859E+00  0.37111045674E+02  0.88634224814E+02  0.00000000000E+00 0.  1.
         11    1    1    2    0    0  0.33759830559E+02  0.47339559982E+02  0.11070549863E+03  0.12504586169E+03  0.00000000000E+00 0. -1.
</event>
<event>
 7    1  0.2842702E-009  0.1007095E+03  0.7561462E-02  0.1278811E+00
         -2   -1    0    0    0  501 -0.00000000000E+00  0.00000000000E+00  0.92572028422E+02  0.92572028422E+02  0.00000000000E+00 0.  1.
          2   -1    0    0  501    0  0.00000000000E+00 -0.00000000000E+00 -0.15350421994E+03  0.15350421994E+03  0.00000000000E+00 0. -1.
         25    2    1    2    0    0 -0.32258508953E+02 -0.13946306069E+02  0.17387026036E+01  0.12994175646E+03  0.12508687434E+03 0.  0.
          5    1    3    3  502    0  0.15995358606E+02 -0.51784381920E+02 -0.28572836485E+02  0.61411343354E+02  0.41800000000E+01 0. -1.
         -5    1    3    3    0  502 -0.48253867559E+02  0.37838075851E+02  0.30311539088E+02  0.68530413105E+02  0.41800000000E+01 0. -1.
        -11    1    1    2    0    0  0.54980242123E+02  0.24920183472E+02 -0.67380978229E+02  0.90465677443E+02  0.00000000000E+00 0. -1.
         11    1    1    2    0    0 -0.22721733170E+02 -0.10973877403E+02  0.47100841074E+01  0.25668814460E+02  0.00000000000E+00 0.  1.
</event>
<event>
 7    1  0.2842702E-009  0.2980217E+03  0.7561462E-02  0.1086234E+00
          1   -1    0    0  501    0  0.00000000000E+00  0.00000000000E+00  0.24851261134E+03  0.24851261134E+03  0.00000000000E+00 0. -1.
         -1   -1    0    0    0  501 -0.00000000000E+00 -0.00000000000E+00 -0.62385137952E+03  0.62385137952E+03  0.00000000000E+00 0.  1.
         25    2    1    2    0    0 -0.36555547839E+01 -0.29697444512E+03  0.70816759572E+02  0.32995780206E+03  0.12509977444E+03 0.  0.
          5    1    3    3  502    0 -0.79859806153E+01 -0.25998438348E+03  0.10375061911E+03  0.28006663298E+03  0.41800000000E+01 0. -1.
         -5    1    3    3    0  502  0.43304258314E+01 -0.36990061640E+02 -0.32933859537E+02  0.49891169079E+02  0.41800000000E+01 0. -1.
        -11    1    1    2    0    0  0.15456956455E+02  0.22109850960E+03 -0.38500685733E+03  0.44424514476E+03  0.00000000000E+00 0. -1.
         11    1    1    2    0    0 -0.11801401671E+02  0.75875935525E+02 -0.61148670427E+02  0.98161044046E+02  0.00000000000E+00 0.  1.
</event>
<event>
 7    1  0.2842702E-009  0.1060560E+03  0.7561462E-02  0.1268053E+00
         -1   -1    0    0    0  501 -0.00000000000E+00  0.00000000000E+00  0.32832965363E+02  0.32832965363E+02  0.00000000000E+00 0.  1.
          1   -1    0    0  501    0  0.00000000000E+00 -0.00000000000E+00 -0.46080839652E+03  0.46080839652E+03  0.00000000000E+00 0. -1.
         25    2    1    2    0    0  0.49601399589E+02  0.28359561435E+02 -0.21237547952E+03  0.25301106203E+03  0.12508672847E+03 0.  0.
          5    1    3    3  502    0  0.42065623409E+02 -0.31217138321E+02 -0.29027620335E+02  0.60034169771E+02  0.41800000000E+01 0. -1.
         -5    1    3    3    0  502  0.75357761799E+01  0.59576699756E+02 -0.18334785919E+03  0.19297689226E+03  0.41800000000E+01 0. -1.
        -11    1    1    2    0    0 -0.37525834622E+02  0.24715584025E+02 -0.14298680071E+03  0.14988086448E+03  0.00000000000E+00 0. -1.
         11    1    1    2    0    0 -0.12075564967E+02 -0.53075145460E+02 -0.72613150920E+02  0.90749435378E+02  0.00000000000E+00 0.  1.
</event>
<event>
 7    1  0.2842702E-009  0.1726531E+03  0.7561462E-02  0.1175109E+00
          2   -1    0    0  501    0  0.00000000000E+00  0.00000000000E+00  0.11408959521E+04  0.11408959521E+04  0.00000000000E+00 0. -1.
         -2   -1    0    0    0  501 -0.00000000000E+00 -0.00000000000E+00 -0.30855105830E+02  0.30855105830E+02  0.00000000000E+00 0.  1.
         25    2    1    2    0    0 -0.72269761344E+02 -0.13044365322E+03  0.65477486495E+03  0.68309290041E+03  0.12508925515E+03 0.  0.
          5    1    3    3  502    0 -0.70853763504E+02 -0.72287664608E+01  0.24229717433E+03  0.25258246961E+03  0.41800000000E+01 0. -1.
         -5    1    3    3    0  502 -0.14159978404E+01 -0.12321488676E+03  0.41247769062E+03  0.43051043080E+03  0.41800000000E+01 0. -1.
        -11    1    1    2    0    0  0.41168707540E+02  0.52275422846E+02  0.79893513230E+02  0.10397382252E+03  0.00000000000E+00 0.  1.
         11    1    1    2    0    0  0.31101053804E+02  0.78168230377E+02  0.37537246810E+03  0.38468433500E+03  0.00000000000E+00 0. -1.
</event>
<event>
 7    1  0.2842702E-009  0.1237146E+03  0.7561462E-02  0.1237092E+00
         -2   -1    0    0    0  501 -0.00000000000E+00  0.00000000000E+00  0.12545350138E+03  0.12545350138E+03  0.00000000000E+00 0.  1.
          2   -1    0    0  501    0  0.00000000000E+00 -0.00000000000E+00 -0.30573340180E+03  0.30573340180E+03  0.00000000000E+00 0. -1.
         25    2    1    2    0    0 -0.72359958069E+02  0.21540329372E+02 -0.25229675676E+03  0.29154969021E+03  0.12509044355E+03 0.  0.
          5    1    3    3  502    0 -0.20220202142E+02 -0.47763062106E+02 -0.14163123111E+03  0.15088752335E+03  0.41800000000E+01 0.  1.
         -5    1    3    3    0  502 -0.52139755927E+02  0.69303391478E+02 -0.11066552565E+03  0.14066216686E+03  0.41800000000E+01 0.  1.
        -11    1    1    2    0    0  0.26427621763E+02  0.29698277874E+02  0.56520733866E+02  0.69101376669E+02  0.00000000000E+00 0.  1.
         11    1    1    2    0    0  0.45932336306E+02 -0.51238607247E+02  0.15496122466E+02  0.70535836300E+02  0.00000000000E+00 0. -1.
</event>
<event>
 7    1  0.2842702E-009  0.1863893E+03  0.7561462E-02  0.1161759E+00
          1   -1    0    0  501    0  0.00000000000E+00  0.00000000000E+00  0.16346413980E+04  0.16346413980E+04  0.00000000000E+00 0. -1.
         -1   -1    0    0    0  501 -0.00000000000E+00 -0.00000000000E+00 -0.28832402479E+02  0.28832402479E+02  0.00000000000E+00 0.  1.
         25    2    1    2    0    0 -0.86245009763E+02  0.13467821091E+03  0.12140555851E+04  0.12309150997E+04  0.12507836216E+03 0.  0.
          5    1    3    3  502    0 -0.65880248070E+01  0.12191795294E+03  0.71364850742E+03  0.72402973273E+03  0.41800000000E+01 0. -1.
         -5    1    3    3    0  502 -0.79656984956E+02  0.12760257971E+02  0.50040707768E+03  0.50688536695E+03  0.41800000000E+01 0. -1.
        -11    1    1    2    0    0 -0.28728166764E+01 -0.38894215718E+02  0.34380250083E+02  0.51990524980E+02  0.00000000000E+00 0.  1.
         11    1    1    2    0    0  0.89117826440E+02 -0.95783995196E+02  0.35737316036E+03  0.38056817586E+03  0.00000000000E+00 0. -1.
</event>
<event>
 7    1  0.2842702E-009  0.9355386E+02  0.7561462E-02  0.1294467E+00
          2   -1    0    0  501    0  0.00000000000E+00  0.00000000000E+00  0.36788468312E+03  0.36788468312E+03  0.00000000000E+00 0. -1.
         -2   -1    0    0    0  501 -0.00000000000E+00 -0.00000000000E+00 -0.37354543256E+02  0.37354543256E+02  0.00000000000E+00 0.  1.
         25    2    1    2    0    0 -0.26918485076E+02  0.15162611041E+02  0.13175927370E+03  0.18429053103E+03  0.12509190224E+03 0.  0.
          5    1    3    3  502    0 -0.60751596882E+02  0.31246461028E+02  0.28094927523E+02  0.73985777031E+02  0.41800000000E+01 0.  1.
         -5    1    3    3    0  502  0.33833111806E+02 -0.16083849987E+02  0.10366434618E+03  0.11030475399E+03  0.41800000000E+01 0.  1.
        -11    1    1    2    0    0 -0.23453056838E+02 -0.19376916515E+02  0.14073804702E+03  0.14398857124E+03  0.00000000000E+00 0. -1.
         11    1    1    2    0    0  0.50371541913E+02  0.42143054741E+01  0.58032819138E+02  0.76960124106E+02  0.00000000000E+00 0.  1.
</event>
<event>
 7    1  0.2842702E-009  0.1101341E+03  0.7561462E-02  0.1260322E+00
          2   -1    0    0  501    0  0.00000000000E+00  0.00000000000E+00  0.67195820084E+03  0.67195820084E+03  0.00000000000E+00 0. -1.
         -2   -1    0    0    0  501 -0.00000000000E+00 -0.00000000000E+00 -0.80621055105E+02  0.80621055105E+02  0.00000000000E+00 0.  1.
         25    2    1    2    0    0  0.54634609897E+02  0.10512849567E+02  0.62513673165E+03  0.63995149333E+03  0.12508605021E+03 0.  0.
          5    1    3    3  502    0  0.91520839772E+02  0.27895487125E+02  0.45085375225E+03  0.46091300766E+03  0.41800000000E+01 0.  1.
         -5    1    3    3    0  502 -0.36886229875E+02 -0.17382637558E+02  0.17428297940E+03  0.17903848567E+03  0.41800000000E+01 0.  1.
        -11    1    1    2    0    0  0.61263441954E+01 -0.20977056117E+02  0.20875451526E+02  0.30221738086E+02  0.00000000000E+00 0. -1.
         11    1    1    2    0    0 -0.60760954093E+02  0.10464206549E+02 -0.54675037434E+02  0.82406024533E+02  0.00000000000E+00 0.  1.
</event>
<event>
 7    1  0.2842702E-009  0.1206359E+03  0.7561462E-02  0.1242052E+00
         -1   -1    0    0    0  501 -0.00000000000E+00  0.00000000000E+00  0.51130720395E+03  0.51130720395E+03  0.00000000000E+00 0.  1.
          1   -1    0    0  501    0  0.00000000000E+00 -0.00000000000E+00 -0.50470806713E+02  0.50470806713E+02  0.00000000000E+00 0. -1.
         25    2    1    2    0    0 -0.92789497449E+02  0.33336659123E+02  0.35685110295E+03  0.39078346279E+03  0.12509109255E+03 0.  0.
          5    1    3    3  502    0 -0.16790417453E+02  0.25739130968E+02  0.28220651861E+03  0.28390564018E+03  0.41800000000E+01 0.  1.
         -5    1    3    3    0  502 -0.75999079996E+02  0.75975281552E+01  0.74644584342E+02  0.10687782261E+03  0.41800000000E+01 0.  1.
        -11    1    1    2    0    0 -0.60653719873E+01 -0.34373867927E+02  0.40680047038E+02  0.53602404430E+02  0.00000000000E+00 0.  1.
         11    1    1    2    0    0  0.98854869436E+02  0.10372088035E+01  0.63305247252E+02  0.11739214345E+03  0.00000000000E+00 0. -1.
</event>
<event>
 7    1  0.2842702E-009  0.1345924E+03  0.7561462E-02  0.1220796E+00
          1   -1    0    0  501    0  0.00000000000E+00  0.00000000000E+00  0.24639611059E+03  0.24639611059E+03  0.00000000000E+00 0. -1.
         -1   -1    0    0    0  501 -0.00000000000E+00 -0.00000000000E+00 -0.12974275003E+03  0.12974275003E+03  0.00000000000E+00 0.  1.
         25    2    1    2    0    0  0.49059965636E+02  0.96840283936E+02 -0.34152662918E+02  0.16911928929E+03  0.12509999523E+03 0.  0.
          5    1    3    3  502    0  0.66634409381E+02  0.67627785313E+02 -0.71090446770E+02  0.11868018319E+03  0.41800000000E+01 0. -1.
         -5    1    3    3    0  502 -0.17574443745E+02  0.29212498623E+02  0.36937783852E+02  0.50439106105E+02  0.41800000000E+01 0. -1.
        -11    1    1    2    0    0 -0.74411870485E+02 -0.62852128876E+02  0.12027573443E+03  0.15477005158E+03  0.00000000000E+00 0.  1.
         11    1    1    2    0    0  0.25351904848E+02 -0.33988155060E+02  0.30530289042E+02  0.52249519737E+02  0.00000000000E+00 0. -1.
</event>
<event>
 7    1  0.2842702E-009  0.1341706E+03  0.7561462E-02  0.1221395E+00
          2   -1    0    0  501    0  0.00000000000E+00  0.00000000000E+00  0.29078445026E+03  0.29078445026E+03  0.00000000000E+00 0. -1.
         -2   -1    0    0    0  501 -0.00000000000E+00 -0.00000000000E+00 -0.93982661233E+02  0.93982661233E+02  0.00000000000E+00 0.  1.
         25    2    1    2    0    0 -0.25212869947E+02  0.10260988301E+03  0.16982462246E+03  0.23590736216E+03  0.12508958479E+03 0.  0.
          5    1    3    3  502    0 -0.27641158789E+02 -0.21417962409E+02  0.17229671198E+02  0.39205825365E+02  0.41800000000E+01 0.  1.
         -5    1    3    3    0  502  0.24282888422E+01  0.12402784542E+03  0.15259495126E+03  0.19670153679E+03  0.41800000000E+01 0.  1.
        -11    1    1    2    0    0  0.10129785519E+02 -0.72500023283E+01 -0.32951011941E+02  0.35227038995E+02  0.00000000000E+00 0.  1.
         11    1    1    2    0    0  0.15083084428E+02 -0.95359880683E+02  0.59928178507E+02  0.11363271034E+03  0.00000000000E+00 0. -1.
</event>
<event>
 7    1  0.2842702E-009  0.1097494E+03  0.7561462E-02  0.1261035E+00
          1   -1    0    0  501    0  0.00000000000E+00  0.00000000000E+00  0.25506242093E+03  0.25506242093E+03  0.00000000000E+00 0. -1.
         -1   -1    0    0    0  501 -0.00000000000E+00 -0.00000000000E+00 -0.94972723494E+02  0.94972723494E+02  0.00000000000E+00 0.  1.
         25    2    1    2    0    0  0.49129080440E+02  0.64423874800E+02  0.17098428274E+03  0.22681942093E+03  0.12508925845E+03 0.  0.
          5    1    3    3  502    0  0.50238484033E+02  0.90721968946E+02  0.77280138982E+02  0.12939889184E+03  0.41800000000E+01 0. -1.
         -5    1    3    3    0  502 -0.11094035933E+01 -0.26298094146E+02  0.93704143754E+02  0.97420529092E+02  0.41800000000E+01 0. -1.
        -11    1    1    2    0    0 -0.22634484361E+02 -0.38691069882E+01  0.35628497291E+02  0.42387258586E+02  0.00000000000E+00 0. -1.
         11    1    1    2    0    0 -0.26494596079E+02 -0.60554767812E+02 -0.46523082590E+02  0.80828464911E+02  0.00000000000E+00 0.  1.
</event>
<event>
 7    1  0.2842702E-009  0.1031222E+03  0.7561462E-02  0.1273864E+00
          1   -1    0    0  501    0  0.00000000000E+00  0.00000000000E+00  0.72390172364E+02  0.72390172364E+02  0.00000000000E+00 0. -1.
         -1   -1    0    0    0  501 -0.00000000000E+00 -0.00000000000E+00 -0.19151180852E+03  0.19151180852E+03  0.00000000000E+00 0.  1.
         25    2    1    2    0    0  0.55811745736E+02  0.11680304936E+02 -0.66279479136E+02  0.15261523864E+03  0.12508821377E+03 0.  0.
          5    1    3    3  502    0  0.62722933715E+02  0.54369888599E+02 -0.70469936291E+02  0.10896667161E+03  0.41800000000E+01 0. -1.
         -5    1    3    3    0  502 -0.69111879785E+01 -0.42689583664E+02  0.41904571547E+01  0.43648567031E+02  0.41800000000E+01 0. -1.
        -11    1    1    2    0    0 -0.53092639504E+02 -0.30122894014E+02 -0.64890830269E+02  0.89090049760E+02  0.00000000000E+00 0.  1.
         11    1    1    2    0    0 -0.27191062323E+01  0.18442589078E+02  0.12048673244E+02  0.22196692491E+02  0.00000000000E+00 0. -1.
</event>
<event>
 7    1  0.2842702E-009  0.1467778E+03  0.7561462E-02  0.1204489E+00
         -1   -1    0    0    0  501 -0.00000000000E+00  0.00000000000E+00  0.26918141903E+02  0.26918141903E+02  0.00000000000E+00 0.  1.
          1   -1    0    0  501    0  0.00000000000E+00 -0.00000000000E+00 -0.12184988379E+04  0.12184988379E+04  0.00000000000E+00 0. -1.
         25    2    1    2    0    0 -0.13428491369E+03 -0.30418107585E+02 -0.78261057051E+03  0.80441100553E+03  0.12506023123E+03 0.  0.
          5    1    3    3  502    0 -0.87769564596E+02 -0.17801409312E+02 -0.19286602086E+03  0.21268559200E+03  0.41800000000E+01 0. -1.
         -5    1    3    3    0  502 -0.46515349090E+02 -0.12616698273E+02 -0.58974454964E+03  0.59172541353E+03  0.41800000000E+01 0. -1.
        -11    1    1    2    0    0  0.12910265911E+03  0.45926458459E+01 -0.26696567224E+03  0.29657926283E+03  0.00000000000E+00 0.  1.
         11    1    1    2    0    0  0.51822545805E+01  0.25825461739E+02 -0.14200445323E+03  0.14442671143E+03  0.00000000000E+00 0. -1.
</event>
<event>
 7    1  0.2842702E-009  0.1894501E+03  0.7561462E-02  0.1158958E+00
          1   -1    0    0  501    0  0.00000000000E+00  0.00000000000E+00  0.12762762751E+03  0.12762762751E+03  0.00000000000E+00 0. -1.
         -1   -1    0    0    0  501 -0.00000000000E+00 -0.00000000000E+00 -0.36703888517E+03  0.36703888517E+03  0.00000000000E+00 0.  1.
         25    2    1    2    0    0 -0.27098503583E+02  0.18425359918E+03 -0.14319236414E+03  0.26615078664E+03  0.12509384626E+03 0.  0.
          5    1    3    3  502    0 -0.25378122054E+02  0.92895886404E+02 -0.14563982700E+03  0.17464857972E+03  0.41800000000E+01 0. -1.
         -5    1    3    3    0  502 -0.17203815294E+01  0.91357712778E+02  0.24474628567E+01  0.91502206919E+02  0.41800000000E+01 0. -1.
        -11    1    1    2    0    0  0.29058671640E+02 -0.58968595951E+02 -0.77821601272E+02  0.10187199483E+03  0.00000000000E+00 0.  1.
         11    1    1    2    0    0 -0.19601680570E+01 -0.12528500323E+03 -0.18397292249E+02  0.12664373121E+03  0.00000000000E+00 0. -1.
</event>
<event>
 7    1  0.2842702E-009  0.1387446E+03  0.7561462E-02  0.1215028E+00
         -2   -1    0    0    0  501 -0.00000000000E+00  0.00000000000E+00  0.18081371560E+02  0.18081371560E+02  0.00000000000E+00 0.  1.
          2   -1    0    0  501    0  0.00000000000E+00 -0.00000000000E+00 -0.12344117934E+04  0.12344117934E+04  0.00000000000E+00 0. -1.
         25    2    1    2    0    0 -0.41780078797E+01  0.99951367209E+02 -0.76241378643E+03  0.77905636754E+03  0.12508521302E+03 0.  0.
          5    1    3    3  502    0 -0.52801804935E+02  0.32828158715E+02 -0.49907263534E+03  0.50294799567E+03  0.41800000000E+01 0. -1.
         -5    1    3    3    0  502  0.48623797056E+02  0.67123208494E+02 -0.26334115109E+03  0.27610837187E+03  0.41800000000E+01 0. -1.
        -11    1    1    2    0    0  0.42572082271E+02 -0.29000363780E+02 -0.13553814236E+03  0.14499652176E+03  0.00000000000E+00 0.  1.
         11    1    1    2    0    0 -0.38394074392E+02 -0.70951003429E+02 -0.31837849309E+03  0.32844027570E+03  0.00000000000E+00 0. -1.
</event>
<event>
 7    1  0.2842702E-009  0.1124797E+03  0.7561462E-02  0.1256046E+00
         -1   -1    0    0    0  501 -0.00000000000E+00  0.00000000000E+00  0.15529594564E+02  0.15529594564E+02  0.00000000000E+00 0.  1.
          1   -1    0    0  501    0  0.00000000000E+00 -0.00000000000E+00 -0.10345848773E+04  0.10345848773E+04  0.00000000000E+00 0. -1.
         25    2    1    2    0    0  0.50171289428E+02 -0.42434261897E+02 -0.70033508947E+03  0.71444708896E+03  0.12509028947E+03 0.  0.
          5    1    3    3  502    0 -0.33869805460E+01  0.29444656863E+02 -0.39674449585E+03  0.39787199807E+03  0.41800000000E+01 0. -1.
         -5    1    3    3    0  502  0.53558269974E+02 -0.71878918759E+02 -0.30359059361E+03  0.31657509089E+03  0.41800000000E+01 0. -1.
        -11    1    1    2    0    0 -0.47460312542E+02 -0.13459438316E+02 -0.15242029483E+03  0.16020481897E+03  0.00000000000E+00 0. -1.
         11    1    1    2    0    0 -0.27109768861E+01  0.55893700212E+02 -0.16629989841E+03  0.17546256390E+03  0.00000000000E+00 0.  1.
</event>
<event>
 7    1  0.2842702E-009  0.1161268E+03  0.7561462E-02  0.1249627E+00
          4   -1    0    0  501    0  0.00000000000E+00  0.00000000000E+00  0.20001374007E+02  0.20001374007E+02  0.00000000000E+00 0. -1.
         -4   -1    0    0    0  501 -0.00000000000E+00 -0.00000000000E+00 -0.67633085812E+03  0.67633085812E+03  0.00000000000E+00 0.  1.
         25    2    1    2    0    0  0.87585779358E+01 -0.40114337871E+02 -0.37794839761E+03  0.40022254141E+03  0.12508884285E+03 0.  0.
          5    1    3    3  502    0  0.66478155494E+02 -0.29042018581E+02 -0.21515338817E+03  0.22709301363E+03  0.41800000000E+01 0.  1.
         -5    1    3    3    0  502 -0.57719577558E+02 -0.11072319290E+02 -0.16279500944E+03  0.17312952777E+03  0.41800000000E+01 0.  1.
        -11    1    1    2    0    0 -0.27047270317E+02 -0.22659132104E+02 -0.10777317503E+03  0.11340215322E+03  0.00000000000E+00 0.  1.
         11    1    1    2    0    0  0.18288692382E+02  0.62773469975E+02 -0.17060791148E+03  0.18270753751E+03  0.00000000000E+00 0. -1.
</event>
<event>
 7    1  0.2842702E-009  0.1152073E+03  0.7561462E-02  0.1251220E+00
          1   -1    0    0  501    0  0.00000000000E+00  0.00000000000E+00  0.75230741237E+02  0.75230741237E+02  0.00000000000E+00 0. -1.
         -1   -1    0    0    0  501 -0.00000000000E+00 -0.00000000000E+00 -0.23314626796E+03  0.23314626796E+03  0.00000000000E+00 0.  1.
         25    2    1    2    0    0 -0.59156739612E+02 -0.32106309552E+02 -0.12443772327E+03  0.18884672036E+03  0.12509197362E+03 0.  0.
          5    1    3    3  502    0 -0.61294961953E+02  0.36243848657E+02 -0.80014813882E+02  0.10719389799E+03  0.41800000000E+01 0.  1.
         -5    1    3    3    0  502  0.21382223416E+01 -0.68350158209E+02 -0.44422909385E+02  0.81652822365E+02  0.41800000000E+01 0.  1.
        -11    1    1    2    0    0  0.58542700198E+02  0.47363170074E+02 -0.54923121784E+02  0.93204436227E+02  0.00000000000E+00 0.  1.
         11    1    1    2    0    0  0.61403941354E+00 -0.15256860523E+02  0.21445318329E+02  0.26325852610E+02  0.00000000000E+00 0. -1.
</event>
<event>
 7    1  0.2842702E-009  0.1237644E+03  0.7561462E-02  0.1237013E+00
         -2   -1    0    0    0  501 -0.00000000000E+00  0.00000000000E+00  0.52373761699E+02  0.52373761699E+02  0.00000000000E+00 0. -1.
          2   -1    0    0  501    0  0.00000000000E+00 -0.00000000000E+00 -0.32461015073E+03  0.32461015073E+03  0.00000000000E+00 0.  1.
         25    2    1    2    0    0 -0.24209709446E+02 -0.58925613412E+02 -0.96758961585E+02  0.17049408007E+03  0.12509035433E+03 0.  0.
          5    1    3    3  502    0 -0.17574402212E+02  0.38191263365E+02 -0.21655409374E+02  0.47474849822E+02  0.41800000000E+01 0. -1.
         -5    1    3    3    0  502 -0.66353072342E+01 -0.97116876777E+02 -0.75103552211E+02  0.12301923025E+03  0.41800000000E+01 0. -1.
        -11    1    1    2    0    0  0.56718127783E+02  0.29180323837E+02 -0.11715844828E+03  0.13339617431E+03  0.00000000000E+00 0.  1.
         11    1    1    2    0    0 -0.32508418337E+02  0.29745289575E+02 -0.58318979164E+02  0.73093658038E+02  0.00000000000E+00 0. -1.
</event>
<event>
 7    1  0.2842702E-009  0.1655792E+03  0.7561462E-02  0.1182538E+00
          2   -1    0    0  501    0  0.00000000000E+00  0.00000000000E+00  0.13760852670E+04  0.13760852670E+04  0.00000000000E+00 0.  1.
         -2   -1    0    0    0  501 -0.00000000000E+00 -0.00000000000E+00 -0.33527954734E+02  0.33527954734E+02  0.00000000000E+00 0. -1.
         25    2    1    2    0    0  0.96367112196E+02 -0.11244731027E+03  0.10606989518E+04  0.10782674449E+04  0.12508956210E+03 0.  0.
          5    1    3    3  502    0  0.81986998876E+02 -0.14444031188E+02  0.67090520216E+03  0.67606342950E+03  0.41800000000E+01 0. -1.
         -5    1    3    3    0  502  0.14380113320E+02 -0.98003279080E+02  0.38979374964E+03  0.40220401543E+03  0.41800000000E+01 0. -1.
        -11    1    1    2    0    0 -0.42871013872E+02  0.40238557911E+02  0.20445194439E+03  0.21273848486E+03  0.00000000000E+00 0.  1.
         11    1    1    2    0    0 -0.53496098324E+02  0.72208752358E+02  0.77406416062E+02  0.11860729194E+03  0.00000000000E+00 0. -1.
</event>
<event>
 7    1  0.2842702E-009  0.1433375E+03  0.7561462E-02  0.1208907E+00
         -2   -1    0    0    0  501 -0.00000000000E+00  0.00000000000E+00  0.38642460112E+02  0.38642460112E+02  0.00000000000E+00 0.  1.
          2   -1    0    0  501    0  0.00000000000E+00 -0.00000000000E+00 -0.55647077722E+03  0.55647077722E+03  0.00000000000E+00 0. -1.
         25    2    1    2    0    0  0.92196600680E+02 -0.34361059949E+02 -0.31320349898E+03  0.35131888543E+03  0.12509049473E+03 0.  0.
          5    1    3    3  502    0  0.72071566055E+02  0.39070069525E+02 -0.17998815505E+03  0.19782312636E+03  0.41800000000E+01 0. -1.
         -5    1    3    3    0  502  0.20125034624E+02 -0.73431129474E+02 -0.13321534393E+03  0.15349575907E+03  0.41800000000E+01 0. -1.
        -11    1    1    2    0    0 -0.85847494584E+02 -0.73326370356E+01 -0.10648790433E+03  0.13697895335E+03  0.00000000000E+00 0.  1.
         11    1    1    2    0    0 -0.63491060952E+01  0.41693696985E+02 -0.98136913801E+02  0.10681539855E+03  0.00000000000E+00 0. -1.
</event>
<event>
 7    1  0.2842702E-009  0.1026876E+03  0.7561462E-02  0.1274744E+00
         -2   -1    0    0    0  501 -0.00000000000E+00  0.00000000000E+00  0.53288049716E+02  0.53288049716E+02  0.00000000000E+00 0.  1.
          2   -1    0    0  501    0  0.00000000000E+00 -0.00000000000E+00 -0.31315347287E+03  0.31315347287E+03  0.00000000000E+00 0. -1.
         25    2    1    2    0    0 -0.26154864867E+02  0.53775584173E+02 -0.19633169382E+03  0.24035362968E+03  0.12509133821E+03 0.  0.
          5    1    3    3  502    0 -0.39799843794E+01  0.69008973666E+02 -0.36616803458E+02  0.78334803361E+02  0.41800000000E+01 0. -1.
         -5    1    3    3    0  502 -0.22174880488E+02 -0.15233389493E+02 -0.15971489036E+03  0.16201882632E+03  0.41800000000E+01 0. -1.
        -11    1    1    2    0    0  0.57501400434E+02 -0.51960289571E+02 -0.46053130970E+02  0.90150838134E+02  0.00000000000E+00 0.  1.
         11    1    1    2    0    0 -0.31346535566E+02 -0.18152946022E+01 -0.17480598372E+02  0.35937054776E+02  0.00000000000E+00 0. -1.
</event>
<event>
 7    1  0.2842702E-009  0.9231850E+02  0.7561462E-02  0.1297332E+00
         -2   -1    0    0    0  501 -0.00000000000E+00  0.00000000000E+00  0.54162746274E+02  0.54162746274E+02  0.00000000000E+00 0.  1.
          2   -1    0    0  501    0  0.00000000000E+00 -0.00000000000E+00 -0.28386803540E+03  0.28386803540E+03  0.00000000000E+00 0. -1.
         25    2    1    2    0    0  0.53918884875E+02 -0.16744322704E+02 -0.10504292812E+03  0.17283548484E+03  0.12510183684E+03 0.  0.
          5    1    3    3  502    0  0.12919706433E+02 -0.44120950973E+02 -0.11360313465E+03  0.12262431134E+03  0.41800000000E+01 0.  1.
         -5    1    3    3    0  502  0.40999178442E+02  0.27376628269E+02  0.85602065241E+01  0.50211173498E+02  0.41800000000E+01 0.  1.
        -11    1    1    2    0    0 -0.66708876485E+01  0.36995785859E+02 -0.90450836309E+01  0.38665261556E+02  0.00000000000E+00 0.  1.
         11    1    1    2    0    0 -0.47247997226E+02 -0.20251463155E+02 -0.11561727737E+03  0.12653003528E+03  0.00000000000E+00 0. -1.
</event>
<event>
 7    1  0.2842702E-009  0.1082110E+03  0.7561462E-02  0.1263919E+00
         -1   -1    0    0    0  501 -0.00000000000E+00  0.00000000000E+00  0.40616286503E+02  0.40616286503E+02  0.00000000000E+00 0. -1.
          1   -1    0    0  501    0  0.00000000000E+00 -0.00000000000E+00 -0.48862236511E+03  0.48862236511E+03  0.00000000000E+00 0.  1.
         25    2    1    2    0    0 -0.68506067618E+02 -0.20191566807E+01 -0.35897057441E+03  0.38626905989E+03  0.12508698989E+03 0.  0.
          5    1    3    3  502    0 -0.88817556907E+02 -0.37503610344E+02 -0.19989253512E+03  0.22196751384E+03  0.41800000000E+01 0. -1.
         -5    1    3    3    0  502  0.20311489289E+02  0.35484453664E+02 -0.15907803929E+03  0.16430154605E+03  0.41800000000E+01 0. -1.
        -11    1    1    2    0    0  0.39644885571E+02 -0.18158722034E+02 -0.97451539143E+02  0.10676262745E+03  0.00000000000E+00 0.  1.
         11    1    1    2    0    0  0.28861182047E+02  0.20177878715E+02  0.84160349424E+01  0.36206964285E+02  0.00000000000E+00 0. -1.
</event>
<event>
 7    1  0.2842702E-009  0.7015647E+02  0.7561462E-02  0.1359562E+00
          2   -1    0    0  501    0  0.00000000000E+00  0.00000000000E+00  0.24369401899E+03  0.24369401899E+03  0.00000000000E+00 0. -1.
         -2   -1    0    0    0  501 -0.00000000000E+00 -0.00000000000E+00 -0.55148818560E+02  0.55148818560E+02  0.00000000000E+00 0.  1.
         25    2    1    2    0    0  0.17487850054E+02 -0.36617985398E+02  0.97845786810E+02  0.16391461620E+03  0.12508997424E+03 0.  0.
          5    1    3    3  502    0 -0.23394896989E+02 -0.36075960199E+02 -0.13471828612E+02  0.45252167634E+02  0.41800000000E+01 0. -1.
         -5    1    3    3    0  502  0.40882747043E+02 -0.54202519893E+00  0.11131761542E+03  0.11866244857E+03  0.41800000000E+01 0. -1.
        -11    1    1    2    0    0  0.12427554397E+02  0.96094409956E+01 -0.15052187924E+02  0.21756696115E+02  0.00000000000E+00 0.  1.
         11    1    1    2    0    0 -0.29915404451E+02  0.27008544402E+02  0.10575160154E+03  0.11317152523E+03  0.00000000000E+00 0. -1.
</event>
<event>
 7    1  0.2842702E-009  0.1075967E+03  0.7561462E-02  0.1265086E+00
          3   -1    0    0  501    0  0.00000000000E+00  0.00000000000E+00  0.43458635492E+03  0.43458635492E+03  0.00000000000E+00 0. -1.
         -3   -1    0    0    0  501 -0.00000000000E+00 -0.00000000000E+00 -0.52351103700E+02  0.52351103700E+02  0.00000000000E+00 0.  1.
         25    2    1    2    0    0 -0.32903912207E+01 -0.10046519958E+03  0.16458556716E+03  0.22987007442E+03  0.12509100365E+03 0.  0.
          5    1    3    3  502    0  0.14451961894E+02 -0.94544431925E+01  0.12938793668E+03  0.13060228274E+03  0.41800000000E+01 0.  1.
         -5    1    3    3    0  502 -0.17742353115E+02 -0.91010756391E+02  0.35197630474E+02  0.99267791674E+02  0.41800000000E+01 0.  1.
        -11    1    1    2    0    0  0.16034841145E+02  0.47651479714E+02  0.18914700238E+03  0.19571501772E+03  0.00000000000E+00 0. -1.
         11    1    1    2    0    0 -0.12744449924E+02  0.52813719870E+02  0.28502681678E+02  0.61352366484E+02  0.00000000000E+00 0.  1.
</event>
<event>
 7    1  0.2842702E-009  0.1399762E+03  0.7561462E-02  0.1213361E+00
          2   -1    0    0  501    0  0.00000000000E+00  0.00000000000E+00  0.16279407702E+03  0.16279407702E+03  0.00000000000E+00 0. -1.
         -2   -1    0    0    0  501 -0.00000000000E+00 -0.00000000000E+00 -0.21014003735E+03  0.21014003735E+03  0.00000000000E+00 0.  1.
         25    2    1    2    0    0  0.11014557612E+03 -0.60677695609E+02  0.55964924142E+02  0.18598988446E+03  0.12508530570E+03 0.  0.
          5    1    3    3  502    0  0.22770258777E+02 -0.45022447893E+02  0.79327200033E+02  0.94105167574E+02  0.41800000000E+01 0. -1.
         -5    1    3    3    0  502  0.87375317343E+02 -0.15655247716E+02 -0.23362275891E+02  0.91884716883E+02  0.41800000000E+01 0. -1.
        -11    1    1    2    0    0 -0.81346199246E+02  0.97150082793E+01 -0.18655874540E+02  0.84021587539E+02  0.00000000000E+00 0. -1.
         11    1    1    2    0    0 -0.28799376874E+02  0.50962687330E+02 -0.84655009932E+02  0.10292264238E+03  0.00000000000E+00 0.  1.
</event>
<event>
 7    1  0.2842702E-009  0.1320678E+03  0.7561462E-02  0.1224419E+00
          1   -1    0    0  501    0  0.00000000000E+00  0.00000000000E+00  0.12454869071E+03  0.12454869071E+03  0.00000000000E+00 0. -1.
         -1   -1    0    0    0  501 -0.00000000000E+00 -0.00000000000E+00 -0.26796677080E+03  0.26796677080E+03  0.00000000000E+00 0.  1.
         25    2    1    2    0    0  0.12773416869E+03 -0.13503471237E+02 -0.80543350626E+00  0.17929278172E+03  0.12508753442E+03 0.  0.
          5    1    3    3  502    0  0.80613045613E+02 -0.15542394494E+02 -0.61247403554E+02  0.10251217485E+03  0.41800000000E+01 0.  1.
         -5    1    3    3    0  502  0.47121123080E+02  0.20389232565E+01  0.60441970048E+02  0.76780606872E+02  0.41800000000E+01 0.  1.
        -11    1    1    2    0    0 -0.12426797424E+03  0.38532723444E+01 -0.15398450143E+03  0.19791059550E+03  0.00000000000E+00 0.  1.
         11    1    1    2    0    0 -0.34661944521E+01  0.96501988929E+01  0.11371854848E+02  0.15312084291E+02  0.00000000000E+00 0. -1.
</event>
<event>
 7    1  0.2842702E-009  0.1340720E+03  0.7561462E-02  0.1221536E+00
          2   -1    0    0  501    0  0.00000000000E+00  0.00000000000E+00  0.77336189554E+02  0.77336189554E+02  0.00000000000E+00 0. -1.
         -2   -1    0    0    0  501 -0.00000000000E+00 -0.00000000000E+00 -0.27126640749E+03  0.27126640749E+03  0.00000000000E+00 0.  1.
         25    2    1    2    0    0  0.87203642434E+02  0.39042977678E+02 -0.11819357395E+03  0.19684342655E+03  0.12509510099E+03 0.  0.
          5    1    3    3  502    0 -0.41593746324E+01  0.50651083361E+02 -0.84485919292E+02  0.98682194957E+02  0.41800000000E+01 0.  1.
         -5    1    3    3    0  502  0.91363017067E+02 -0.11608105682E+02 -0.33707654658E+02  0.98161231592E+02  0.41800000000E+01 0.  1.
        -11    1    1    2    0    0 -0.84944226810E+02  0.90274915676E+00 -0.72390911897E+02  0.11160994915E+03  0.00000000000E+00 0. -1.
         11    1    1    2    0    0 -0.22594156242E+01 -0.39945726835E+02 -0.33457320896E+01  0.40149221345E+02  0.00000000000E+00 0.  1.
</event>
<event>
 7    1  0.2842702E-009  0.1159185E+03  0.7561462E-02  0.1249986E+00
          3   -1    0    0  501    0  0.00000000000E+00  0.00000000000E+00  0.91236441383E+02  0.91236441383E+02  0.00000000000E+00 0. -1.
         -3   -1    0    0    0  501 -0.00000000000E+00 -0.00000000000E+00 -0.15825386999E+03  0.15825386999E+03  0.00000000000E+00 0.  1.
         25    2    1    2    0    0  0.48075545086E+02  0.18353270673E+00 -0.56311838524E+02  0.14535827115E+03  0.12508681830E+03 0.  0.
          5    1    3    3  502    0  0.62625226768E+02  0.48049859756E+02 -0.15253949911E+02  0.80503810085E+02  0.41800000000E+01 0. -1.
         -5    1    3    3    0  502 -0.14549681682E+02 -0.47866327049E+02 -0.41057888614E+02  0.64854461062E+02  0.41800000000E+01 0. -1.
        -11    1    1    2    0    0 -0.61469037263E+02 -0.31104938062E+02 -0.13914635036E+02  0.70282122777E+02  0.00000000000E+00 0.  1.
         11    1    1    2    0    0  0.13393492177E+02  0.30921405356E+02  0.32090449510E+01  0.33849917450E+02  0.00000000000E+00 0. -1.
</event>
<event>
 7    1  0.2842702E-009  0.1110992E+03  0.7561462E-02  0.1258548E+00
          2   -1    0    0  501    0  0.00000000000E+00  0.00000000000E+00  0.31188293389E+03  0.31188293389E+03  0.00000000000E+00 0. -1.
         -2   -1    0    0    0  501 -0.00000000000E+00 -0.00000000000E+00 -0.45926082310E+02  0.45926082310E+02  0.00000000000E+00 0.  1.
         25    2    1    2    0    0 -0.40669808787E+02 -0.28911939889E+02  0.14531689952E+03  0.19812631529E+03  0.12508837639E+03 0.  0.
          5    1    3    3  502    0  0.42178652376E+02 -0.28578746973E+02  0.46489168374E+02  0.69097747220E+02  0.41800000000E+01 0. -1.
         -5    1    3    3    0  502 -0.82848461162E+02 -0.33319291588E+00  0.98827731147E+02  0.12902856807E+03  0.41800000000E+01 0. -1.
        -11    1    1    2    0    0 -0.13949352204E+02 -0.13161821743E+02 -0.16991252227E+01  0.19253701073E+02  0.00000000000E+00 0.  1.
         11    1    1    2    0    0  0.54619160991E+02  0.42073761631E+02  0.12233907728E+03  0.14042899983E+03  0.00000000000E+00 0. -1.
</event>
<event>
 7    1  0.2842702E-009  0.9855833E+02  0.7561462E-02  0.1283357E+00
          1   -1    0    0  501    0  0.00000000000E+00  0.00000000000E+00  0.31295130814E+03  0.31295130814E+03  0.00000000000E+00 0. -1.
         -1   -1    0    0    0  501 -0.00000000000E+00 -0.00000000000E+00 -0.40586309744E+02  0.40586309744E+02  0.00000000000E+00 0.  1.
         25    2    1    2    0    0  0.13691967696E+02  0.23148799228E+02  0.13886434844E+03  0.18881193821E+03  0.12507319400E+03 0.  0.
          5    1    3    3  502    0  0.14331752619E+00  0.65555088368E+02  0.12630865189E+03  0.14236866963E+03  0.41800000000E+01 0.  1.
         -5    1    3    3    0  502  0.13548650170E+02 -0.42406289140E+02  0.12555696550E+02  0.46443268575E+02  0.41800000000E+01 0.  1.
        -11    1    1    2    0    0  0.14016730011E+02 -0.47685760288E+02  0.38815114421E+02  0.63063567628E+02  0.00000000000E+00 0.  1.
         11    1    1    2    0    0 -0.27708697707E+02  0.24536961060E+02  0.94685535533E+02  0.10166211205E+03  0.00000000000E+00 0. -1.
</event>
<event>
 7    1  0.2842702E-009  0.1043631E+03  0.7561462E-02  0.1271380E+00
          1   -1    0    0  501    0  0.00000000000E+00  0.00000000000E+00  0.48841028637E+03  0.48841028637E+03  0.00000000000E+00 0. -1.
         -1   -1    0    0    0  501 -0.00000000000E+00 -0.00000000000E+00 -0.38019087401E+02  0.38019087401E+02  0.00000000000E+00 0.  1.
         25    2    1    2    0    0  0.40141440428E+02  0.75199261625E+02  0.26693798759E+03  0.30687025521E+03  0.12508876899E+03 0.  0.
          5    1    3    3  502    0 -0.16865003964E+02  0.35749459650E+02  0.10384486037E+02  0.41082382772E+02  0.41800000000E+01 0. -1.
         -5    1    3    3    0  502  0.57006444392E+02  0.39449801976E+02  0.25655350155E+03  0.26578787244E+03  0.41800000000E+01 0. -1.
        -11    1    1    2    0    0 -0.18884705073E+02  0.24293130876E+01 -0.20221327516E+00  0.19041390128E+02  0.00000000000E+00 0.  1.
         11    1    1    2    0    0 -0.21256735354E+02 -0.77628574713E+02  0.18365542465E+03  0.20051772843E+03  0.00000000000E+00 0. -1.
</event>
<event>
 7    1  0.2842702E-009  0.1190030E+03  0.7561462E-02  0.1244751E+00
         -1   -1    0    0    0  501 -0.00000000000E+00  0.00000000000E+00  0.27740200942E+02  0.27740200942E+02  0.00000000000E+00 0.  1.
          1   -1    0    0  501    0  0.00000000000E+00 -0.00000000000E+00 -0.54548325998E+03  0.54548325998E+03  0.00000000000E+00 0. -1.
         25    2    1    2    0    0  0.14439034639E+01 -0.54948892889E+02 -0.31007300576E+03  0.33883897800E+03  0.12508044781E+03 0.  0.
          5    1    3    3  502    0  0.59405128055E+02 -0.42161639748E+02 -0.21112491745E+03  0.22337810160E+03  0.41800000000E+01 0.  1.
         -5    1    3    3    0  502 -0.57961224591E+02 -0.12787253141E+02 -0.98948088310E+02  0.11546087640E+03  0.41800000000E+01 0.  1.
        -11    1    1    2    0    0 -0.38913794533E+02  0.55835120691E+02 -0.10540404026E+03  0.12546655256E+03  0.00000000000E+00 0.  1.
         11    1    1    2    0    0  0.37469891069E+02 -0.88622780242E+00 -0.10226601301E+03  0.10891793036E+03  0.00000000000E+00 0. -1.
</event>
<event>
 7    1  0.2842702E-009  0.1271395E+03  0.7561462E-02  0.1231763E+00
         -1   -1    0    0    0  501 -0.00000000000E+00  0.00000000000E+00  0.22449374389E+03  0.22449374389E+03  0.00000000000E+00 0.  1.
          1   -1    0    0  501    0  0.00000000000E+00 -0.00000000000E+00 -0.10646646027E+03  0.10646646027E+03  0.00000000000E+00 0. -1.
         25    2    1    2    0    0  0.79503414452E+02 -0.46318444787E+02  0.98930099707E+02  0.18412179138E+03  0.12508988048E+03 0.  0.
          5    1    3    3  502    0  0.18243790435E+02 -0.65931418785E+02  0.98085408637E+02  0.11965787755E+03  0.41800000000E+01 0.  1.
         -5    1    3    3    0  502  0.61259624017E+02  0.19612973998E+02  0.84469106947E+00  0.64463913834E+02  0.41800000000E+01 0.  1.
        -11    1    1    2    0    0 -0.50855453875E+01  0.46588978596E+02 -0.31838693196E+02  0.56657727478E+02  0.00000000000E+00 0. -1.
         11    1    1    2    0    0 -0.74417869065E+02 -0.27053380873E+00  0.50935877105E+02  0.90180685300E+02  0.00000000000E+00 0.  1.
</event>
<event>
 7    1  0.2842702E-009  0.1795031E+03  0.7561462E-02  0.1168285E+00
          2   -1    0    0  501    0  0.00000000000E+00  0.00000000000E+00  0.13407850335E+04  0.13407850335E+04  0.00000000000E+00 0. -1.
         -2   -1    0    0    0  501 -0.00000000000E+00 -0.00000000000E+00 -0.34079491776E+02  0.34079491776E+02  0.00000000000E+00 0.  1.
         25    2    1    2    0    0 -0.10140258975E+03 -0.12032162064E+03  0.99732327477E+03  0.10173794865E+04  0.12509007817E+03 0.  0.
          5    1    3    3  502    0 -0.11011446406E+03 -0.14040080615E+03  0.86960602868E+03  0.88773289850E+03  0.41800000000E+01 0. -1.
         -5    1    3    3    0  502  0.87118743130E+01  0.20079185506E+02  0.12771724609E+03  0.12964658805E+03  0.41800000000E+01 0. -1.
        -11    1    1    2    0    0  0.28716963929E+02  0.46434570263E+02  0.19778081201E+03  0.20517817362E+03  0.00000000000E+00 0. -1.
         11    1    1    2    0    0  0.72685625822E+02  0.73887050376E+02  0.11160145499E+03  0.15230686515E+03  0.00000000000E+00 0.  1.
</event>
<event>
 7    1  0.2842702E-009  0.1685633E+03  0.7561462E-02  0.1179354E+00
         -2   -1    0    0    0  501 -0.00000000000E+00  0.00000000000E+00  0.37631515772E+02  0.37631515772E+02  0.00000000000E+00 0.  1.
          2   -1    0    0  501    0  0.00000000000E+00 -0.00000000000E+00 -0.85088277092E+03  0.85088277092E+03  0.00000000000E+00 0. -1.
         25    2    1    2    0    0 -0.10687165780E+03 -0.93772630097E+02 -0.40920646276E+03  0.45090122811E+03  0.12508849248E+03 0.  0.
          5    1    3    3  502    0 -0.11696819527E+03 -0.10219906091E+03 -0.40853423502E+03  0.43708568992E+03  0.41800000000E+01 0. -1.
         -5    1    3    3    0  502  0.10096537471E+02  0.84264308119E+01 -0.67222773711E+00  0.13815538182E+02  0.41800000000E+01 0. -1.
        -11    1    1    2    0    0 -0.78588020001E+01  0.40845882182E+02 -0.92496473172E+02  0.10141865908E+03  0.00000000000E+00 0.  1.
         11    1    1    2    0    0  0.11473045980E+03  0.52926747915E+02 -0.31154831922E+03  0.33619439951E+03  0.00000000000E+00 0. -1.
</event>
<event>
 7    1  0.2842702E-009  0.1335639E+03  0.7561462E-02  0.1222261E+00
         -4   -1    0    0    0  501 -0.00000000000E+00  0.00000000000E+00  0.15218237939E+03  0.15218237939E+03  0.00000000000E+00 0.  1.
          4   -1    0    0  501    0  0.00000000000E+00 -0.00000000000E+00 -0.13608061187E+03  0.13608061187E+03  0.00000000000E+00 0. -1.
         25    2    1    2    0    0  0.66102781856E+02 -0.67994122096E+02  0.15049893562E+02  0.15769850319E+03  0.12509812231E+03 0.  0.
          5    1    3    3  502    0  0.95592430815E+02 -0.19788472271E+02 -0.43485149720E+01  0.97805308887E+02  0.41800000000E+01 0.  1.
         -5    1    3    3    0  502 -0.29489648959E+02 -0.48205649825E+02  0.19398408534E+02  0.59893194308E+02  0.41800000000E+01 0.  1.
        -11    1    1    2    0    0 -0.31727344349E+02  0.71477821909E+02  0.31695406968E+02  0.84381883288E+02  0.00000000000E+00 0.  1.
         11    1    1    2    0    0 -0.34375437507E+02 -0.34836998133E+01 -0.30643533018E+02  0.46182604778E+02  0.00000000000E+00 0. -1.
</event>
<event>
 7    1  0.2854687E-009  0.1510087E+03  0.7561462E-02  0.1199239E+00
          2   -1    0    0  501    0  0.00000000000E+00  0.00000000000E+00  0.32271923750E+03  0.32271923750E+03  0.00000000000E+00 0. -1.
         -2   -1    0    0    0  501 -0.00000000000E+00 -0.00000000000E+00 -0.79573361597E+02  0.79573361597E+02  0.00000000000E+00 0.  1.
         25    2    1    2    0    0  0.81418564975E+02 -0.82238550420E+02  0.15588905421E+03  0.23095072110E+03  0.12507868107E+03 0.  0.
          5    1    3    3  502    0  0.11256149726E+03 -0.46388994668E+02  0.10092847405E+03  0.15819626660E+03  0.41800000000E+01 0.  1.
         -5    1    3    3    0  502 -0.31142932285E+02 -0.35849555751E+02  0.54960580157E+02  0.72754454503E+02  0.41800000000E+01 0.  1.
        -11    1    1    2    0    0 -0.79943121861E+02  0.38438960271E+02  0.19780583065E+02  0.90883044986E+02  0.00000000000E+00 0.  1.
         11    1    1    2    0    0 -0.14754431136E+01  0.43799590149E+02  0.67476238632E+02  0.80458833011E+02  0.00000000000E+00 0. -1.
</event>
<event>
 7    1  0.2842702E-009  0.1173239E+03  0.7561462E-02  0.1247578E+00
          1   -1    0    0  501    0  0.00000000000E+00  0.00000000000E+00  0.33553471340E+02  0.33553471340E+02  0.00000000000E+00 0. -1.
         -1   -1    0    0    0  501 -0.00000000000E+00 -0.00000000000E+00 -0.41931357273E+03  0.41931357273E+03  0.00000000000E+00 0.  1.
         25    2    1    2    0    0 -0.31363068359E+02 -0.13750650956E+02 -0.23313939735E+03  0.26678510160E+03  0.12509032489E+03 0.  0.
          5    1    3    3  502    0  0.21148028973E+02 -0.57301383870E+02 -0.10439081532E+03  0.12101901688E+03  0.41800000000E+01 0.  1.
         -5    1    3    3    0  502 -0.52511097332E+02  0.43550732914E+02 -0.12874858203E+03  0.14576608472E+03  0.41800000000E+01 0.  1.
        -11    1    1    2    0    0  0.64213592458E+02  0.26994802901E+02 -0.86386193812E+02  0.11097152482E+03  0.00000000000E+00 0. -1.
         11    1    1    2    0    0 -0.32850524099E+02 -0.13244151945E+02 -0.66234510233E+02  0.75110417654E+02  0.00000000000E+00 0.  1.
</event>
<event>
 7    1  0.2842702E-009  0.2639994E+03  0.7561462E-02  0.1104764E+00
          2   -1    0    0  501    0  0.00000000000E+00  0.00000000000E+00  0.76494039178E+03  0.76494039178E+03  0.00000000000E+00 0.  1.
         -2   -1    0    0    0  501 -0.00000000000E+00 -0.00000000000E+00 -0.11683126536E+03  0.11683126536E+03  0.00000000000E+00 0. -1.
         25    2    1    2    0    0 -0.25291519134E+03  0.54493720516E+02  0.48112490760E+03  0.56041414482E+03  0.12508867820E+03 0.  0.
          5    1    3    3  502    0 -0.14643758289E+03  0.66633999415E+02  0.38139701487E+03  0.41396281344E+03  0.41800000000E+01 0.  1.
         -5    1    3    3    0  502 -0.10647760846E+03 -0.12140278899E+02  0.99727892724E+02  0.14645133138E+03  0.41800000000E+01 0.  1.
        -11    1    1    2    0    0  0.23948875054E+03 -0.56935855550E+02  0.17803489521E+03  0.30379759248E+03  0.00000000000E+00 0.  1.
         11    1    1    2    0    0  0.13426440804E+02  0.24421350340E+01 -0.11050676387E+02  0.17559919841E+02  0.00000000000E+00 0. -1.
</event>
<event>
 7    1  0.2842702E-009  0.1354793E+03  0.7561462E-02  0.1219545E+00
         -2   -1    0    0    0  501 -0.00000000000E+00  0.00000000000E+00  0.15099842219E+04  0.15099842219E+04  0.00000000000E+00 0.  1.
          2   -1    0    0  501    0  0.00000000000E+00 -0.00000000000E+00 -0.20343091067E+02  0.20343091067E+02  0.00000000000E+00 0. -1.
         25    2    1    2    0    0  0.26556322929E+02 -0.87496969896E+02  0.12165546049E+04  0.12263822718E+04  0.12508961553E+03 0.  0.
          5    1    3    3  502    0 -0.40677875388E+02 -0.35350766568E+02  0.23494058314E+03  0.24107865158E+03  0.41800000000E+01 0.  1.
         -5    1    3    3    0  502  0.67234198316E+02 -0.52146203328E+02  0.98161402175E+03  0.98530362023E+03  0.41800000000E+01 0.  1.
        -11    1    1    2    0    0 -0.55512301201E+02  0.21292171725E+02  0.99368313969E+02  0.11579738331E+03  0.00000000000E+00 0. -1.
         11    1    1    2    0    0  0.28955978272E+02  0.66204798171E+02  0.17371821198E+03  0.18814765784E+03  0.00000000000E+00 0.  1.
</event>
<event>
 7    1  0.2842702E-009  0.2347463E+03  0.7561462E-02  0.1123343E+00
         -1   -1    0    0    0  501 -0.00000000000E+00  0.00000000000E+00  0.72818615337E+03  0.72818615337E+03  0.00000000000E+00 0.  1.
          1   -1    0    0  501    0  0.00000000000E+00 -0.00000000000E+00 -0.11610097189E+03  0.11610097189E+03  0.00000000000E+00 0. -1.
         25    2    1    2    0    0 -0.10403501077E+03 -0.19358275681E+03  0.86589846611E+02  0.26728694479E+03  0.12508773768E+03 0.  0.
          5    1    3    3  502    0  0.33102572712E+01 -0.11744164737E+03  0.18366374196E+02  0.11898863156E+03  0.41800000000E+01 0. -1.
         -5    1    3    3    0  502 -0.10734526804E+03 -0.76141109443E+02  0.68223472415E+02  0.14829831323E+03  0.41800000000E+01 0. -1.
        -11    1    1    2    0    0  0.86551146806E+02  0.17138615360E+03  0.50962355259E+03  0.54459203080E+03  0.00000000000E+00 0.  1.
         11    1    1    2    0    0  0.17483863961E+02  0.22196603208E+02  0.15871782277E+02  0.32408149679E+02  0.00000000000E+00 0. -1.
</event>
<event>
 7    1  0.2842702E-009  0.1122547E+03  0.7561462E-02  0.1256451E+00
         -1   -1    0    0    0  501 -0.00000000000E+00  0.00000000000E+00  0.45496980018E+03  0.45496980018E+03  0.00000000000E+00 0.  1.
          1   -1    0    0  501    0  0.00000000000E+00 -0.00000000000E+00 -0.45725141317E+02  0.45725141317E+02  0.00000000000E+00 0. -1.
         25    2    1    2    0    0  0.57935269712E+02 -0.75591472859E+02  0.20329868536E+03  0.25699837385E+03  0.12508893815E+03 0.  0.
          5    1    3    3  502    0  0.42178748671E+02 -0.23857724987E+02  0.21731801622E+01  0.48687092674E+02  0.41800000000E+01 0. -1.
         -5    1    3    3    0  502  0.15756521041E+02 -0.51733747872E+02  0.20112550520E+03  0.20831128117E+03  0.41800000000E+01 0. -1.
        -11    1    1    2    0    0 -0.62507517253E+02  0.19681511560E+02  0.66377828405E+02  0.93276833748E+02  0.00000000000E+00 0. -1.
         11    1    1    2    0    0  0.45722475405E+01  0.55909961299E+02  0.13956814510E+03  0.15041973390E+03  0.00000000000E+00 0.  1.
</event>
<event>
 6    1  0.2842702E-009  0.1713275E+03  0.7561462E-02  0.1176471E+00
          1   -1    0    0  501    0  0.00000000000E+00  0.00000000000E+00  0.20496766026E+04  0.20496766026E+04  0.00000000000E+00 0. -1.
         -1   -1    0    0    0  501 -0.00000000000E+00 -0.00000000000E+00 -0.16513107235E+02  0.16513107235E+02  0.00000000000E+00 0.  1.
          5    1    1    2  502    0 -0.50439615156E+02 -0.14974197596E+03  0.74873405434E+03  0.76523654556E+03  0.41800000000E+01 0.  1.
         -5    1    1    2    0  502 -0.42950951623E+01  0.13312782628E+02  0.35181842494E+03  0.35212122138E+03  0.41800000000E+01 0.  1.
        -11    1    1    2    0    0  0.21574587939E+02  0.13509216722E+03  0.82348379013E+03  0.83476997376E+03  0.00000000000E+00 0. -1.
         11    1    1    2    0    0  0.33160122379E+02  0.13370261190E+01  0.10912722596E+03  0.11406196912E+03  0.00000000000E+00 0.  1.
</event>
<event>
 7    1  0.2842702E-009  0.2120824E+03  0.7561462E-02  0.1139928E+00
         -1   -1    0    0    0  501 -0.00000000000E+00  0.00000000000E+00  0.10186294945E+04  0.10186294945E+04  0.00000000000E+00 0.  1.
          1   -1    0    0  501    0  0.00000000000E+00 -0.00000000000E+00 -0.77713609852E+02  0.77713609852E+02  0.00000000000E+00 0. -1.
         25    2    1    2    0    0 -0.12316921042E+03 -0.16989389763E+03  0.77727744509E+03  0.81476630276E+03  0.12509720467E+03 0.  0.
          5    1    3    3  502    0 -0.92471810500E+02 -0.10722330152E+03  0.68221089308E+03  0.69676182959E+03  0.41800000000E+01 0. -1.
         -5    1    3    3    0  502 -0.30697399918E+02 -0.62670596108E+02  0.95066552010E+02  0.11800447317E+03  0.41800000000E+01 0. -1.
        -11    1    1    2    0    0  0.62218884017E+02  0.11414876121E+03  0.46136450245E+02  0.13794818323E+03  0.00000000000E+00 0. -1.
         11    1    1    2    0    0  0.60950326400E+02  0.55745136416E+02  0.11750198933E+03  0.14362861838E+03  0.00000000000E+00 0.  1.
</event>
<event>
 7    1  0.2842702E-009  0.9231262E+02  0.7561462E-02  0.1297346E+00
         -2   -1    0    0    0  501 -0.00000000000E+00  0.00000000000E+00  0.60998865889E+02  0.60998865889E+02  0.00000000000E+00 0. -1.
          2   -1    0    0  501    0  0.00000000000E+00 -0.00000000000E+00 -0.25461757558E+03  0.25461757558E+03  0.00000000000E+00 0.  1.
         25    2    1    2    0    0  0.36411982572E+01  0.61131466803E+02 -0.99954992581E+02  0.17143344060E+03  0.12509240367E+03 0.  0.
          5    1    3    3  502    0  0.16509262433E+02  0.60625987486E+02  0.72394827252E+01  0.63387290641E+02  0.41800000000E+01 0. -1.
         -5    1    3    3    0  502 -0.12868064176E+02  0.50547931735E+00 -0.10719447531E+03  0.10804614996E+03  0.41800000000E+01 0. -1.
        -11    1    1    2    0    0  0.28650631704E+02  0.97163417868E+01 -0.16053372064E+02  0.34248748143E+02  0.00000000000E+00 0. -1.
         11    1    1    2    0    0 -0.32291829961E+02 -0.70847808590E+02 -0.77610345050E+02  0.10993425273E+03  0.00000000000E+00 0.  1.
</event>
<event>
 7    1  0.2842702E-009  0.6299165E+02  0.7561462E-02  0.1385689E+00
         -2   -1    0    0    0  501 -0.00000000000E+00  0.00000000000E+00  0.23259388329E+03  0.23259388329E+03  0.00000000000E+00 0.  1.
          2   -1    0    0  501    0  0.00000000000E+00 -0.00000000000E+00 -0.60818756611E+02  0.60818756611E+02  0.00000000000E+00 0. -1.
         25    2    1    2    0    0 -0.43723163824E+02 -0.35266083114E+01  0.69986656585E+02  0.14989885591E+03  0.12508949949E+03 0.  0.
          5    1    3    3  502    0 -0.56254243917E+01 -0.19631272490E+02 -0.32890461195E+02  0.38939531286E+02  0.41800000000E+01 0.  1.
         -5    1    3    3    0  502 -0.38097739432E+02  0.16104664178E+02  0.10287711778E+03  0.11095932462E+03  0.41800000000E+01 0.  1.
        -11    1    1    2    0    0  0.47895051327E+02  0.15934035885E+02  0.11458377011E+03  0.12520890469E+03  0.00000000000E+00 0.  1.
         11    1    1    2    0    0 -0.41718875038E+01 -0.12407427573E+02 -0.12795300006E+02  0.18304879310E+02  0.00000000000E+00 0. -1.
</event>
<event>
 7    1  0.2842702E-009  0.1040389E+03  0.7561462E-02  0.1272025E+00
          1   -1    0    0  501    0  0.00000000000E+00  0.00000000000E+00  0.37111735777E+03  0.37111735777E+03  0.00000000000E+00 0. -1.
         -1   -1    0    0    0  501 -0.00000000000E+00 -0.00000000000E+00 -0.42583054962E+02  0.42583054962E+02  0.00000000000E+00 0.  1.
         25    2    1    2    0    0  0.11390796627E+02 -0.41640664401E+02  0.25671580184E+03  0.28881675575E+03  0.12509364616E+03 0.  0.
          5    1    3    3  502    0 -0.14516523140E+02 -0.75093194586E+02  0.21890259999E+03  0.23191709295E+03  0.41800000000E+01 0.  1.
         -5    1    3    3    0  502  0.25907319767E+02  0.33452530185E+02  0.37813201850E+02  0.56899662806E+02  0.41800000000E+01 0.  1.
        -11    1    1    2    0    0 -0.38441520355E+02 -0.10127032532E+01  0.17317653155E+01  0.38493831534E+02  0.00000000000E+00 0.  1.
         11    1    1    2    0    0  0.27050723727E+02  0.42653367654E+02  0.70086735648E+02  0.86389825443E+02  0.00000000000E+00 0. -1.
</event>
<event>
 7    1  0.2842702E-009  0.2151431E+03  0.7561462E-02  0.1137557E+00
         -1   -1    0    0    0  501 -0.00000000000E+00  0.00000000000E+00  0.45392022601E+03  0.45392022601E+03  0.00000000000E+00 0.  1.
          1   -1    0    0  501    0  0.00000000000E+00 -0.00000000000E+00 -0.14015691603E+03  0.14015691603E+03  0.00000000000E+00 0. -1.
         25    2    1    2    0    0  0.44985123674E+00 -0.19873630542E+03  0.29134414279E+03  0.37419974389E+03  0.12509083633E+03 0.  0.
          5    1    3    3  502    0  0.39322807107E+02 -0.14782620387E+03  0.13083471114E+03  0.20133073225E+03  0.41800000000E+01 0. -1.
         -5    1    3    3    0  502 -0.38872955870E+02 -0.50910101553E+02  0.16050943165E+03  0.17286901164E+03  0.41800000000E+01 0. -1.
        -11    1    1    2    0    0 -0.38602879109E+02  0.10475463855E+03 -0.13100778022E+02  0.11240705920E+03  0.00000000000E+00 0. -1.
         11    1    1    2    0    0  0.38153027872E+02  0.93981666876E+02  0.35519945216E+02  0.10747033894E+03  0.00000000000E+00 0.  1.
</event>
<event>
 7    1  0.2842702E-009  0.7487107E+02  0.7561462E-02  0.1344271E+00
          1   -1    0    0  501    0  0.00000000000E+00  0.00000000000E+00  0.38470075750E+03  0.38470075750E+03  0.00000000000E+00 0. -1.
         -1   -1    0    0    0  501 -0.00000000000E+00 -0.00000000000E+00 -0.30966081903E+02  0.30966081903E+02  0.00000000000E+00 0.  1.
         25    2    1    2    0    0  0.28095079077E+00  0.43562754174E+01  0.23145343645E+03  0.26313023493E+03  0.12509105173E+03 0.  0.
          5    1    3    3  502    0 -0.36485419313E+02 -0.11244691672E+02  0.21712081216E+03  0.22049160616E+03  0.41800000000E+01 0. -1.
         -5    1    3    3    0  502  0.36766370104E+02  0.15600967090E+02  0.14332624292E+02  0.42638628775E+02  0.41800000000E+01 0. -1.
        -11    1    1    2    0    0  0.30464052364E+02  0.15895735088E+02  0.12201883496E+02  0.36463938916E+02  0.00000000000E+00 0.  1.
         11    1    1    2    0    0 -0.30745003155E+02 -0.20252010505E+02  0.11007935565E+03  0.11607266555E+03  0.00000000000E+00 0. -1.
</event>
<event>
 7    1  0.2842702E-009  0.1533320E+03  0.7561462E-02  0.1196437E+00
         -1   -1    0    0    0  501 -0.00000000000E+00  0.00000000000E+00  0.24625096589E+03  0.24625096589E+03  0.00000000000E+00 0.  1.
          1   -1    0    0  501    0  0.00000000000E+00 -0.00000000000E+00 -0.14341384973E+03  0.14341384973E+03  0.00000000000E+00 0. -1.
         25    2    1    2    0    0  0.13275946105E+03  0.55832369883E+02  0.10664977963E+03  0.21854496158E+03  0.12508156024E+03 0.  0.
          5    1    3    3  502    0  0.22358974220E+02  0.46496891037E+02  0.93529924782E+02  0.10689810024E+03  0.41800000000E+01 0.  1.
         -5    1    3    3    0  502  0.11040048683E+03  0.93354788459E+01  0.13119854852E+02  0.11164686135E+03  0.41800000000E+01 0.  1.
        -11    1    1    2    0    0 -0.28383122265E+02 -0.12531248198E+02  0.39389270060E+02  0.50141284455E+02  0.00000000000E+00 0.  1.
         11    1    1    2    0    0 -0.10437633878E+03 -0.43301121685E+02 -0.43201933531E+02  0.12097856958E+03  0.00000000000E+00 0. -1.
</event>
<event>
 7    1  0.2842702E-009  0.6677602E+02  0.7561462E-02  0.1371413E+00
          1   -1    0    0  501    0  0.00000000000E+00  0.00000000000E+00  0.52063875676E+03  0.52063875676E+03  0.00000000000E+00 0. -1.
         -1   -1    0    0    0  501 -0.00000000000E+00 -0.00000000000E+00 -0.18536239815E+02  0.18536239815E+02  0.00000000000E+00 0.  1.
         25    2    1    2    0    0  0.51579500946E+02  0.12966795742E+02  0.37382113787E+03  0.39776739877E+03  0.12509227672E+03 0.  0.
          5    1    3    3  502    0 -0.69484384225E+01  0.13201687959E+02  0.31254032538E+03  0.31292410062E+03  0.41800000000E+01 0.  1.
         -5    1    3    3    0  502  0.58527939368E+02 -0.23489221623E+00  0.61280812493E+02  0.84843298149E+02  0.41800000000E+01 0.  1.
        -11    1    1    2    0    0 -0.23631152581E+02 -0.19548194766E+02  0.61825670857E+02  0.69014323642E+02  0.00000000000E+00 0.  1.
         11    1    1    2    0    0 -0.27948348364E+02  0.65813990233E+01  0.66455708216E+02  0.72393274162E+02  0.00000000000E+00 0. -1.
</event>
<event>
 7    1  0.2842702E-009  0.7630253E+02  0.7561462E-02  0.1339884E+00
         -2   -1    0    0    0  501 -0.00000000000E+00  0.00000000000E+00  0.90977561605E+02  0.90977561605E+02  0.00000000000E+00 0.  1.
          2   -1    0    0  501    0  0.00000000000E+00 -0.00000000000E+00 -0.13986840235E+03  0.13986840235E+03  0.00000000000E+00 0. -1.
         25    2    1    2    0    0  0.22111207694E+02  0.22537514272E+02 -0.33715529033E+02  0.13334744733E+03  0.12509180531E+03 0.  0.
          5    1    3    3  502    0 -0.14708701686E+02  0.12796145024E+02  0.43109820327E+02  0.47497539319E+02  0.41800000000E+01 0.  1.
         -5    1    3    3    0  502  0.36819909380E+02  0.97413692480E+01 -0.76825349360E+02  0.85849908013E+02  0.41800000000E+01 0.  1.
        -11    1    1    2    0    0 -0.26394254457E+02 -0.55317680768E+02 -0.41281235280E+00  0.61293334776E+02  0.00000000000E+00 0.  1.
         11    1    1    2    0    0  0.42830467634E+01  0.32780166496E+02 -0.14762499355E+02  0.36205181843E+02  0.00000000000E+00 0. -1.
</event>
<event>
 7    1  0.2842702E-009  0.1279176E+03  0.7561462E-02  0.1230579E+00
          1   -1    0    0  501    0  0.00000000000E+00  0.00000000000E+00  0.34323267575E+03  0.34323267575E+03  0.00000000000E+00 0. -1.
         -1   -1    0    0    0  501 -0.00000000000E+00 -0.00000000000E+00 -0.72231381334E+02  0.72231381334E+02  0.00000000000E+00 0.  1.
         25    2    1    2    0    0  0.77988493132E+02 -0.39387029451E+02  0.24239782907E+03  0.28642931816E+03  0.12510596953E+03 0.  0.
          5    1    3    3  502    0  0.53029246614E+02 -0.76150455814E+02  0.21462011438E+03  0.23385948519E+03  0.41800000000E+01 0.  1.
         -5    1    3    3    0  502  0.24959246518E+02  0.36763426363E+02  0.27777714693E+02  0.52569832968E+02  0.41800000000E+01 0.  1.
        -11    1    1    2    0    0 -0.22661475740E+02 -0.24785702606E+02  0.28895810749E+02  0.44303966134E+02  0.00000000000E+00 0. -1.
         11    1    1    2    0    0 -0.55327017391E+02  0.64172732057E+02 -0.29234539954E+00  0.84730772798E+02  0.00000000000E+00 0.  1.
</event>
<event>
 7    1  0.2842702E-009  0.1046069E+03  0.7561462E-02  0.1270896E+00
         -1   -1    0    0    0  501 -0.00000000000E+00  0.00000000000E+00  0.27309740965E+03  0.27309740965E+03  0.00000000000E+00 0.  1.
          1   -1    0    0  501    0  0.00000000000E+00 -0.00000000000E+00 -0.47193610120E+02  0.47193610120E+02  0.00000000000E+00 0. -1.
         25    2    1    2    0    0 -0.25974067284E+02 -0.73272740593E+01  0.12988681995E+03  0.18233555708E+03  0.12508928117E+03 0.  0.
          5    1    3    3  502    0 -0.69021806776E+02  0.70437523807E+01  0.36698429880E+02  0.78599436473E+02  0.41800000000E+01 0.  1.
         -5    1    3    3    0  502  0.43047739491E+02 -0.14371026440E+02  0.93188390065E+02  0.10373612061E+03  0.41800000000E+01 0.  1.
        -11    1    1    2    0    0  0.43816460916E+02 -0.29766236690E+02  0.32120642843E+02  0.61948743252E+02  0.00000000000E+00 0. -1.
         11    1    1    2    0    0 -0.17842393632E+02  0.37093510749E+02  0.63896336740E+02  0.76006719433E+02  0.00000000000E+00 0.  1.
</event>
<event>
 7    1  0.2842702E-009  0.1626538E+03  0.7561462E-02  0.1185733E+00
         -2   -1    0    0    0  501 -0.00000000000E+00  0.00000000000E+00  0.94024723143E+02  0.94024723143E+02  0.00000000000E+00 0.  1.
          2   -1    0    0  501    0  0.00000000000E+00 -0.00000000000E+00 -0.34180804389E+03  0.34180804389E+03  0.00000000000E+00 0. -1.
         25    2    1    2    0    0 -0.11826940986E+03 -0.67816092476E+02 -0.81330474233E+02  0.20211126714E+03  0.12509053745E+03 0.  0.
          5    1    3    3  502    0  0.17580933885E+02  0.16068634218E+02 -0.34785674398E+01  0.24430781268E+02  0.41800000000E+01 0.  1.
         -5    1    3    3    0  502 -0.13585034375E+03 -0.83884726695E+02 -0.77851906793E+02  0.17768048587E+03  0.41800000000E+01 0.  1.
        -11    1    1    2    0    0  0.70962944796E+02  0.19067039676E+02 -0.14488101285E+03  0.16244937495E+03  0.00000000000E+00 0. -1.
         11    1    1    2    0    0  0.47306465068E+02  0.48749052800E+02 -0.21571833663E+02  0.71272124942E+02  0.00000000000E+00 0.  1.
</event>
<event>
 7    1  0.2842702E-009  0.2210477E+03  0.7561462E-02  0.1133104E+00
         -2   -1    0    0    0  501 -0.00000000000E+00  0.00000000000E+00  0.38359511991E+02  0.38359511991E+02  0.00000000000E+00 0.  1.
          2   -1    0    0  501    0  0.00000000000E+00 -0.00000000000E+00 -0.14180084491E+04  0.14180084491E+04  0.00000000000E+00 0. -1.
         25    2    1    2    0    0  0.18401494382E+03  0.73750552032E+02 -0.91590679855E+03  0.94542779528E+03  0.12509120270E+03 0.  0.
          5    1    3    3  502    0  0.66779983317E+01  0.55392988651E+02 -0.23225257251E+03  0.23889685785E+03  0.41800000000E+01 0. -1.
         -5    1    3    3    0  502  0.17733694549E+03  0.18357563381E+02 -0.68365422603E+03  0.70653093743E+03  0.41800000000E+01 0. -1.
        -11    1    1    2    0    0 -0.14420568596E+02  0.11078591547E+02 -0.90287211239E+02  0.92100317603E+02  0.00000000000E+00 0. -1.
         11    1    1    2    0    0 -0.16959437523E+03 -0.84829143578E+02 -0.37345492737E+03  0.41883984826E+03  0.00000000000E+00 0.  1.
</event>
<event>
 7    1  0.2842702E-009  0.1531311E+03  0.7561462E-02  0.1196677E+00
          2   -1    0    0  501    0  0.00000000000E+00  0.00000000000E+00  0.58940091678E+03  0.58940091678E+03  0.00000000000E+00 0. -1.
         -2   -1    0    0    0  501 -0.00000000000E+00 -0.00000000000E+00 -0.56977849177E+02  0.56977849177E+02  0.00000000000E+00 0.  1.
         25    2    1    2    0    0  0.12294059235E+03  0.61897374241E+02  0.18759055955E+03  0.26416271237E+03  0.12508415723E+03 0.  0.
          5    1    3    3  502    0  0.11806129214E+03  0.42476330495E+02  0.20291029911E+03  0.23860588685E+03  0.41800000000E+01 0. -1.
         -5    1    3    3    0  502  0.48793002038E+01  0.19421043746E+02 -0.15319739556E+02  0.25556825521E+02  0.41800000000E+01 0. -1.
        -11    1    1    2    0    0  0.76117129023E+01 -0.22722050164E+02  0.91000456700E+02  0.94102671889E+02  0.00000000000E+00 0. -1.
         11    1    1    2    0    0 -0.13055230525E+03 -0.39175324077E+02  0.25383205135E+03  0.28811338170E+03  0.00000000000E+00 0.  1.
</event>
<event>
 7    1  0.2842702E-009  0.1032426E+03  0.7561462E-02  0.1273621E+00
          2   -1    0    0  501    0  0.00000000000E+00  0.00000000000E+00  0.41968296904E+03  0.41968296904E+03  0.00000000000E+00 0. -1.
         -2   -1    0    0    0  501 -0.00000000000E+00 -0.00000000000E+00 -0.36482437073E+02  0.36482437073E+02  0.00000000000E+00 0.  1.
         25    2    1    2    0    0  0.18832531738E+02  0.55041000358E+02  0.18619695532E+03  0.23173525076E+03  0.12509094413E+03 0.  0.
          5    1    3    3  502    0 -0.37721206617E+02  0.29385243048E+02  0.16129741547E+02  0.50636181728E+02  0.41800000000E+01 0.  1.
         -5    1    3    3    0  502  0.56553738355E+02  0.25655757310E+02  0.17006721377E+03  0.18109906903E+03  0.41800000000E+01 0.  1.
        -11    1    1    2    0    0 -0.43721126936E+02 -0.56349862658E+02  0.18166820207E+03  0.19516705563E+03  0.00000000000E+00 0. -1.
         11    1    1    2    0    0  0.24888595198E+02  0.13088623000E+01  0.15335374577E+02  0.29263099714E+02  0.00000000000E+00 0.  1.
</event>
<event>
 7    1  0.2842702E-009  0.1446342E+03  0.7561462E-02  0.1207226E+00
         -1   -1    0    0    0  501 -0.00000000000E+00  0.00000000000E+00  0.41406748693E+02  0.41406748693E+02  0.00000000000E+00 0.  1.
          1   -1    0    0  501    0  0.00000000000E+00 -0.00000000000E+00 -0.61057137099E+03  0.61057137099E+03  0.00000000000E+00 0. -1.
         25    2    1    2    0    0 -0.92604614585E+02  0.65594151125E+02 -0.34662700638E+03  0.38558524208E+03  0.12508992787E+03 0.  0.
          5    1    3    3  502    0 -0.12347699880E+03  0.58229049517E+02 -0.27139817697E+03  0.30382829740E+03  0.41800000000E+01 0. -1.
         -5    1    3    3    0  502  0.30872384213E+02  0.73651016076E+01 -0.75228829411E+02  0.81756944679E+02  0.41800000000E+01 0. -1.
        -11    1    1    2    0    0  0.76630831878E+02 -0.31177394432E+02 -0.67481231558E+02  0.10676156111E+03  0.00000000000E+00 0. -1.
         11    1    1    2    0    0  0.15973782707E+02 -0.34416756693E+02 -0.15505638436E+03  0.15963131650E+03  0.00000000000E+00 0.  1.
</event>
<event>
 7    1  0.2842702E-009  0.1263932E+03  0.7561462E-02  0.1232908E+00
         -4   -1    0    0    0  501 -0.00000000000E+00  0.00000000000E+00  0.24665616890E+03  0.24665616890E+03  0.00000000000E+00 0.  1.
          4   -1    0    0  501    0  0.00000000000E+00 -0.00000000000E+00 -0.89249497358E+02  0.89249497358E+02  0.00000000000E+00 0. -1.
         25    2    1    2    0    0 -0.90571906928E+02  0.20682441202E+02  0.73485026248E+02  0.17227490385E+03  0.12509020631E+03 0.  0.
          5    1    3    3  502    0 -0.14728368232E+02  0.51372245408E+02  0.72726234302E+02  0.90347163679E+02  0.41800000000E+01 0.  1.
         -5    1    3    3    0  502 -0.75843538695E+02 -0.30689804205E+02  0.75879194616E+00  0.81927740169E+02  0.41800000000E+01 0.  1.
        -11    1    1    2    0    0  0.14931679465E+02 -0.36980267633E+02 -0.10805061370E+02  0.41318816501E+02  0.00000000000E+00 0. -1.
         11    1    1    2    0    0  0.75640227462E+02  0.16297826430E+02  0.94726706664E+02  0.12231194591E+03  0.00000000000E+00 0.  1.
</event>
<event>
 7    1  0.2842702E-009  0.1223272E+03  0.7561462E-02  0.1239306E+00
          2   -1    0    0  501    0  0.00000000000E+00  0.00000000000E+00  0.56462077805E+03  0.56462077805E+03  0.00000000000E+00 0. -1.
         -2   -1    0    0    0  501 -0.00000000000E+00 -0.00000000000E+00 -0.33034882218E+02  0.33034882218E+02  0.00000000000E+00 0.  1.
         25    2    1    2    0    0  0.30674423047E+01  0.74081616773E+02  0.21383186934E+03  0.25859136144E+03  0.12509168126E+03 0.  0.
          5    1    3    3  502    0  0.52700005579E+02  0.74416213143E+02  0.10651180728E+03  0.14027580282E+03  0.41800000000E+01 0. -1.
         -5    1    3    3    0  502 -0.49632563274E+02 -0.33459637040E+00  0.10732006206E+03  0.11831555862E+03  0.41800000000E+01 0. -1.
        -11    1    1    2    0    0 -0.24186611696E+01 -0.88798382668E+02  0.30987973357E+03  0.32236074817E+03  0.00000000000E+00 0. -1.
         11    1    1    2    0    0 -0.64878113516E+00  0.14716765895E+02  0.78742929245E+01  0.16703550653E+02  0.00000000000E+00 0.  1.
</event>
<event>
 7    1  0.2842702E-009  0.1032545E+03  0.7561462E-02  0.1273597E+00
         -2   -1    0    0    0  501 -0.00000000000E+00  0.00000000000E+00  0.93575414328E+01  0.93575414328E+01  0.00000000000E+00 0.  1.
          2   -1    0    0  501    0  0.00000000000E+00 -0.00000000000E+00 -0.16350978784E+04  0.16350978784E+04  0.00000000000E+00 0. -1.
         25    2    1    2    0    0  0.41733666435E+02  0.15177230855E+00 -0.12382877621E+04  0.12452899051E+04  0.12509454018E+03 0.  0.
          5    1    3    3  502    0 -0.28592473712E+02 -0.22544785819E+02 -0.79666022182E+03  0.79750283909E+03  0.41800000000E+01 0. -1.
         -5    1    3    3    0  502  0.70326140147E+02  0.22696558127E+02 -0.44162754026E+03  0.44778706597E+03  0.41800000000E+01 0. -1.
        -11    1    1    2    0    0  0.23817443233E+02  0.15540525414E+02 -0.12523784013E+03  0.12842622447E+03  0.00000000000E+00 0.  1.
         11    1    1    2    0    0 -0.65551109668E+02 -0.15692297722E+02 -0.26221473476E+03  0.27073929030E+03  0.00000000000E+00 0. -1.
</event>
<event>
 7    1  0.2842702E-009  0.1254673E+03  0.7561462E-02  0.1234341E+00
          1   -1    0    0  501    0  0.00000000000E+00  0.00000000000E+00  0.53527705091E+02  0.53527705091E+02  0.00000000000E+00 0. -1.
         -1   -1    0    0    0  501 -0.00000000000E+00 -0.00000000000E+00 -0.33670528253E+03  0.33670528253E+03  0.00000000000E+00 0.  1.
         25    2    1    2    0    0  0.60258805716E+02 -0.44733224477E+02 -0.21684266225E+03  0.26134234217E+03  0.12508754774E+03 0.  0.
          5    1    3    3  502    0  0.45463100787E+02 -0.85815637484E+02 -0.17771580865E+03  0.20256257851E+03  0.41800000000E+01 0.  1.
         -5    1    3    3    0  502  0.14795704930E+02  0.41082413007E+02 -0.39126853607E+02  0.58779763661E+02  0.41800000000E+01 0.  1.
        -11    1    1    2    0    0 -0.18505124919E+02 -0.23475076633E+02 -0.12026884028E+02  0.32220565026E+02  0.00000000000E+00 0.  1.
         11    1    1    2    0    0 -0.41753680797E+02  0.68208301110E+02 -0.54308031155E+02  0.96670080420E+02  0.00000000000E+00 0. -1.
</event>
<event>
 7    1  0.2842702E-009  0.1710694E+03  0.7561462E-02  0.1176737E+00
         -2   -1    0    0    0  501 -0.00000000000E+00  0.00000000000E+00  0.83462414466E+02  0.83462414466E+02  0.00000000000E+00 0.  1.
          2   -1    0    0  501    0  0.00000000000E+00 -0.00000000000E+00 -0.44943457171E+03  0.44943457171E+03  0.00000000000E+00 0. -1.
         25    2    1    2    0    0  0.15939354046E+03  0.14598699592E+02 -0.18882765330E+03  0.27734949091E+03  0.12508970655E+03 0.  0.
          5    1    3    3  502    0  0.12838528205E+03  0.19577881252E+02 -0.20427737821E+03  0.24210079250E+03  0.41800000000E+01 0.  1.
         -5    1    3    3    0  502  0.31008258407E+02 -0.49791816595E+01  0.15449724908E+02  0.35248698404E+02  0.41800000000E+01 0.  1.
        -11    1    1    2    0    0 -0.12466428695E+03  0.25736531640E+02 -0.10025615318E+03  0.16203348343E+03  0.00000000000E+00 0.  1.
         11    1    1    2    0    0 -0.34729253506E+02 -0.40335231232E+02 -0.76888350761E+02  0.93514011840E+02  0.00000000000E+00 0. -1.
</event>
<event>
 7    1  0.2842702E-009  0.1747098E+03  0.7561462E-02  0.1173023E+00
         -1   -1    0    0    0  501 -0.00000000000E+00  0.00000000000E+00  0.16022819345E+03  0.16022819345E+03  0.00000000000E+00 0.  1.
          1   -1    0    0  501    0  0.00000000000E+00 -0.00000000000E+00 -0.20038289507E+03  0.20038289507E+03  0.00000000000E+00 0. -1.
         25    2    1    2    0    0 -0.98740613195E+02  0.99462488053E+02  0.32391883481E+01  0.18789033426E+03  0.12509912127E+03 0.  0.
          5    1    3    3  502    0  0.23336901074E+02 -0.17456359961E+01  0.16144403741E+02  0.28736255304E+02  0.41800000000E+01 0.  1.
         -5    1    3    3    0  502 -0.12207751427E+03  0.10120812405E+03 -0.12905215392E+02  0.15915407896E+03  0.41800000000E+01 0.  1.
        -11    1    1    2    0    0  0.11637714762E+03 -0.83546927551E+02 -0.39862935856E+02  0.14870367597E+03  0.00000000000E+00 0. -1.
         11    1    1    2    0    0 -0.17636534426E+02 -0.15915560502E+02 -0.35309541191E+01  0.24017078291E+02  0.00000000000E+00 0.  1.
</event>
<event>
 7    1  0.2842702E-009  0.5834197E+02  0.7561462E-02  0.1404924E+00
         -2   -1    0    0    0  501 -0.00000000000E+00  0.00000000000E+00  0.44739548877E+03  0.44739548877E+03  0.00000000000E+00 0.  1.
          2   -1    0    0  501    0  0.00000000000E+00 -0.00000000000E+00 -0.26127557487E+02  0.26127557487E+02  0.00000000000E+00 0. -1.
         25    2    1    2    0    0  0.19640675226E+01 -0.87455305728E+01  0.26981996732E+03  0.29754285417E+03  0.12509433816E+03 0.  0.
          5    1    3    3  502    0  0.28643530927E+02 -0.18455467186E+02  0.94643491623E+01  0.35610425975E+02  0.41800000000E+01 0.  1.
         -5    1    3    3    0  502 -0.26679463405E+02  0.97099366137E+01  0.26035561816E+03  0.26193242820E+03  0.41800000000E+01 0.  1.
        -11    1    1    2    0    0 -0.13661791658E+02  0.27984134534E+02  0.15023849508E+03  0.15343194498E+03  0.00000000000E+00 0.  1.
         11    1    1    2    0    0  0.11697724136E+02 -0.19238603961E+02  0.12094688823E+01  0.22548247101E+02  0.00000000000E+00 0. -1.
</event>
<event>
 7    1  0.2842702E-009  0.1218102E+03  0.7561462E-02  0.1240140E+00
          2   -1    0    0  501    0  0.00000000000E+00  0.00000000000E+00  0.26767556124E+03  0.26767556124E+03  0.00000000000E+00 0. -1.
         -2   -1    0    0    0  501 -0.00000000000E+00 -0.00000000000E+00 -0.11863877625E+03  0.11863877625E+03  0.00000000000E+00 0.  1.
         25    2    1    2    0    0 -0.35525532831E+02 -0.90338819767E+02 -0.32112888237E+02  0.16156026130E+03  0.12508922656E+03 0.  0.
          5    1    3    3  502    0 -0.18502090917E+02 -0.34762366079E+00 -0.62230141364E+02  0.65057752072E+02  0.41800000000E+01 0. -1.
         -5    1    3    3    0  502 -0.17023441914E+02 -0.89991196106E+02  0.30117253126E+02  0.96502509227E+02  0.41800000000E+01 0. -1.
        -11    1    1    2    0    0 -0.82712948802E+01  0.88756242496E+02  0.12488717919E+03  0.15343693306E+03  0.00000000000E+00 0.  1.
         11    1    1    2    0    0  0.43796827711E+02  0.15825772712E+01  0.56262494043E+02  0.71317143130E+02  0.00000000000E+00 0. -1.
</event>
<event>
 7    1  0.2842702E-009  0.1170557E+03  0.7561462E-02  0.1248035E+00
         -2   -1    0    0    0  501 -0.00000000000E+00  0.00000000000E+00  0.91713869689E+02  0.91713869689E+02  0.00000000000E+00 0.  1.
          2   -1    0    0  501    0  0.00000000000E+00 -0.00000000000E+00 -0.21085553506E+03  0.21085553506E+03  0.00000000000E+00 0. -1.
         25    2    1    2    0    0  0.76443958069E+02 -0.39749484144E+02 -0.58367389028E+02  0.16271679700E+03  0.12508518581E+03 0.  0.
          5    1    3    3  502    0  0.10616092989E+03 -0.29988257014E+02 -0.68079929583E+02  0.12969883502E+03  0.41800000000E+01 0. -1.
         -5    1    3    3    0  502 -0.29716971822E+02 -0.97612271304E+01  0.97125405549E+01  0.33017961981E+02  0.41800000000E+01 0. -1.
        -11    1    1    2    0    0 -0.26520253701E+02  0.32124881792E+02  0.18721984340E+02  0.45671047548E+02  0.00000000000E+00 0.  1.
         11    1    1    2    0    0 -0.49923704367E+02  0.76246023523E+01 -0.79496260683E+02  0.94181560198E+02  0.00000000000E+00 0. -1.
</event>
<event>
 7    1  0.2842702E-009  0.1425046E+03  0.7561462E-02  0.1209998E+00
         -2   -1    0    0    0  501 -0.00000000000E+00  0.00000000000E+00  0.15915309366E+03  0.15915309366E+03  0.00000000000E+00 0.  1.
          2   -1    0    0  501    0  0.00000000000E+00 -0.00000000000E+00 -0.16140653864E+03  0.16140653864E+03  0.00000000000E+00 0. -1.
         25    2    1    2    0    0 -0.87754985216E+02 -0.64911561119E+02 -0.45599879107E+02  0.17219032977E+03  0.12512278968E+03 0.  0.
          5    1    3    3  502    0 -0.11146781479E+03 -0.42913554238E+02 -0.43373048879E+01  0.11959486396E+03  0.41800000000E+01 0.  1.
         -5    1    3    3    0  502  0.23712829575E+02 -0.21998006881E+02 -0.41262574219E+02  0.52595465816E+02  0.41800000000E+01 0.  1.
        -11    1    1    2    0    0  0.35246502979E+02  0.71737420432E+02  0.51081201140E+02  0.94857063904E+02  0.00000000000E+00 0. -1.
         11    1    1    2    0    0  0.52508482236E+02 -0.68258593127E+01 -0.77347670116E+01  0.53512238627E+02  0.00000000000E+00 0.  1.
</event>
<event>
 7    1  0.2842702E-009  0.1057295E+03  0.7561462E-02  0.1268689E+00
          1   -1    0    0  501    0  0.00000000000E+00  0.00000000000E+00  0.43998797843E+03  0.43998797843E+03  0.00000000000E+00 0. -1.
         -1   -1    0    0    0  501 -0.00000000000E+00 -0.00000000000E+00 -0.30284333888E+02  0.30284333888E+02  0.00000000000E+00 0.  1.
         25    2    1    2    0    0  0.20873808354E+02 -0.32804984947E+02  0.23669465379E+03  0.27052556785E+03  0.12509132988E+03 0.  0.
          5    1    3    3  502    0 -0.57930347635E+01 -0.74305453788E+02  0.97538318808E+02  0.12282530582E+03  0.41800000000E+01 0.  1.
         -5    1    3    3    0  502  0.26666843117E+02  0.41500468841E+02  0.13915633498E+03  0.14770026202E+03  0.41800000000E+01 0.  1.
        -11    1    1    2    0    0  0.28149642845E+02 -0.29812951002E+00  0.16967230173E+02  0.32869106670E+02  0.00000000000E+00 0.  1.
         11    1    1    2    0    0 -0.49023451199E+02  0.33103114457E+02  0.15604176058E+03  0.16687763780E+03  0.00000000000E+00 0. -1.
</event>
<event>
 7    1  0.2842702E-009  0.1008674E+03  0.7561462E-02  0.1278482E+00
         -2   -1    0    0    0  501 -0.00000000000E+00  0.00000000000E+00  0.68950609212E+02  0.68950609212E+02  0.00000000000E+00 0.  1.
          2   -1    0    0  501    0  0.00000000000E+00 -0.00000000000E+00 -0.22218671101E+03  0.22218671101E+03  0.00000000000E+00 0. -1.
         25    2    1    2    0    0  0.28135033795E+02  0.46293468350E+02 -0.50201233076E+02  0.14526589746E+03  0.12508937535E+03 0.  0.
          5    1    3    3  502    0 -0.48544646195E+02  0.23522137640E+02 -0.78850550777E+01  0.54676504341E+02  0.41800000000E+01 0.  1.
         -5    1    3    3    0  502  0.76679679990E+02  0.22771330710E+02 -0.42316177998E+02  0.90589393121E+02  0.41800000000E+01 0.  1.
        -11    1    1    2    0    0 -0.25212117418E+02 -0.44693605747E+01 -0.10067369768E+03  0.10387886914E+03  0.00000000000E+00 0. -1.
         11    1    1    2    0    0 -0.29229163767E+01 -0.41824107775E+02 -0.23611710457E+01  0.41992553626E+02  0.00000000000E+00 0.  1.
</event>
<event>
 7    1  0.2842702E-009  0.1082481E+03  0.7561462E-02  0.1263849E+00
         -2   -1    0    0    0  501 -0.00000000000E+00  0.00000000000E+00  0.27627673240E+02  0.27627673240E+02  0.00000000000E+00 0.  1.
          2   -1    0    0  501    0  0.00000000000E+00 -0.00000000000E+00 -0.44348616122E+03  0.44348616122E+03  0.00000000000E+00 0. -1.
         25    2    1    2    0    0  0.14657923874E+02  0.90399641045E+01 -0.25877358642E+03  0.28793066135E+03  0.12507486172E+03 0.  0.
          5    1    3    3  502    0 -0.13697579146E+02 -0.53152331156E+02 -0.86323648925E+02  0.10238182820E+03  0.41800000000E+01 0.  1.
         -5    1    3    3    0  502  0.28355503020E+02  0.62192295261E+02 -0.17244993750E+03  0.18554883315E+03  0.41800000000E+01 0.  1.
        -11    1    1    2    0    0 -0.10393797422E+02  0.41229409118E+02 -0.57107735963E+02  0.71198235286E+02  0.00000000000E+00 0.  1.
         11    1    1    2    0    0 -0.42641264518E+01 -0.50269373223E+02 -0.99977165596E+02  0.11198493782E+03  0.00000000000E+00 0. -1.
</event>
<event>
 7    1  0.2842702E-009  0.1012429E+03  0.7561462E-02  0.1277704E+00
          2   -1    0    0  501    0  0.00000000000E+00  0.00000000000E+00  0.23417691848E+02  0.23417691848E+02  0.00000000000E+00 0. -1.
         -2   -1    0    0    0  501 -0.00000000000E+00 -0.00000000000E+00 -0.61220598442E+03  0.61220598442E+03  0.00000000000E+00 0.  1.
         25    2    1    2    0    0  0.43762944464E+01 -0.49242490489E+02 -0.39974795557E+03  0.42177056629E+03  0.12509199729E+03 0.  0.
          5    1    3    3  502    0  0.38442212455E+02 -0.75285552537E+02 -0.19559583703E+03  0.21312184774E+03  0.41800000000E+01 0.  1.
         -5    1    3    3    0  502 -0.34065918008E+02  0.26043062048E+02 -0.20415211854E+03  0.20864871855E+03  0.41800000000E+01 0.  1.
        -11    1    1    2    0    0 -0.27908737257E+02  0.11280511322E+02 -0.13989675369E+02  0.33194255043E+02  0.00000000000E+00 0. -1.
         11    1    1    2    0    0  0.23532442810E+02  0.37961979167E+02 -0.17505066163E+03  0.18065885493E+03  0.00000000000E+00 0.  1.
</event>
<event>
 7    1  0.2842702E-009  0.7754508E+02  0.7561462E-02  0.1336166E+00
         -2   -1    0    0    0  501 -0.00000000000E+00  0.00000000000E+00  0.47384630871E+02  0.47384630871E+02  0.00000000000E+00 0.  1.
          2   -1    0    0  501    0  0.00000000000E+00 -0.00000000000E+00 -0.84386529796E+03  0.84386529796E+03  0.00000000000E+00 0. -1.
         25    2    1    2    0    0 -0.18171187137E+02 -0.25997868502E+02 -0.61862518128E+03  0.63194193322E+03  0.12508961125E+03 0.  0.
          5    1    3    3  502    0 -0.98669815871E+01 -0.34246568745E+02 -0.42247283101E+02  0.55430047139E+02  0.41800000000E+01 0. -1.
         -5    1    3    3    0  502 -0.83042055497E+01  0.82487002427E+01 -0.57637789817E+03  0.57651188608E+03  0.41800000000E+01 0. -1.
        -11    1    1    2    0    0  0.39343220918E+02  0.56985508460E+02  0.79935477877E+01  0.69707488930E+02  0.00000000000E+00 0.  1.
         11    1    1    2    0    0 -0.21172033782E+02 -0.30987639958E+02 -0.18584903360E+03  0.18960050669E+03  0.00000000000E+00 0. -1.
</event>
<event>
 6    1  0.3949922E-009  0.1997638E+03  0.7561462E-02  0.1149938E+00
          1   -1    0    0  501    0  0.00000000000E+00  0.00000000000E+00  0.63119994569E+03  0.63119994569E+03  0.00000000000E+00 0. -1.
         -1   -1    0    0    0  501 -0.00000000000E+00 -0.00000000000E+00 -0.77200586816E+02  0.77200586816E+02  0.00000000000E+00 0.  1.
          5    1    1    2  502    0 -0.67749311926E+02  0.12290237283E+03  0.35194657911E+03  0.37891797194E+03  0.41800000000E+01 0.  1.
         -5    1    1    2    0  502 -0.61359478630E+02 -0.31473455469E+01  0.58802334798E+02  0.85147392088E+02  0.41800000000E+01 0.  1.
        -11    1    1    2    0    0  0.27482765060E+02 -0.86273493885E+02  0.58021266005E+02  0.10754015730E+03  0.00000000000E+00 0.  1.
         11    1    1    2    0    0  0.10162602550E+03 -0.33481533401E+02  0.85229178959E+02  0.13679501118E+03  0.00000000000E+00 0. -1.
</event>
<event>
 7    1  0.2842702E-009  0.9154024E+02  0.7561462E-02  0.1299164E+00
         -1   -1    0    0    0  501 -0.00000000000E+00  0.00000000000E+00  0.35454003127E+03  0.35454003127E+03  0.00000000000E+00 0.  1.
          1   -1    0    0  501    0  0.00000000000E+00 -0.00000000000E+00 -0.44895404979E+02  0.44895404979E+02  0.00000000000E+00 0. -1.
         25    2    1    2    0    0 -0.11033279315E+02 -0.99701708063E+00  0.27009687806E+03  0.29786415682E+03  0.12509198650E+03 0.  0.
          5    1    3    3  502    0 -0.20309997837E+02  0.56073198917E+02  0.85126797576E+02  0.10402280382E+03  0.41800000000E+01 0.  1.
         -5    1    3    3    0  502  0.92767185215E+01 -0.57070215997E+02  0.18497008048E+03  0.19384135300E+03  0.41800000000E+01 0.  1.
        -11    1    1    2    0    0  0.21481171070E+01  0.32511747335E+02  0.56104914004E+02  0.64879808086E+02  0.00000000000E+00 0.  1.
         11    1    1    2    0    0  0.88851622081E+01 -0.31514730254E+02 -0.16557165774E+02  0.36691471338E+02  0.00000000000E+00 0. -1.
</event>
<event>
 7    1  0.2842702E-009  0.9721478E+02  0.7561462E-02  0.1286264E+00
         -1   -1    0    0    0  501 -0.00000000000E+00  0.00000000000E+00  0.13912813473E+03  0.13912813473E+03  0.00000000000E+00 0.  1.
          1   -1    0    0  501    0  0.00000000000E+00 -0.00000000000E+00 -0.86114241369E+02  0.86114241369E+02  0.00000000000E+00 0. -1.
         25    2    1    2    0    0 -0.93008263428E+01  0.12592854898E+02  0.28335609524E+02  0.12921238178E+03  0.12509135651E+03 0.  0.
          5    1    3    3  502    0 -0.37884813360E+02  0.56981948349E+02  0.32928245382E+02  0.76052240368E+02  0.41800000000E+01 0.  1.
         -5    1    3    3    0  502  0.28583987017E+02 -0.44389093451E+02 -0.45926358583E+01  0.53160141415E+02  0.41800000000E+01 0.  1.
        -11    1    1    2    0    0  0.33282011464E+01  0.29859072395E+02 -0.18419900385E+02  0.35241081955E+02  0.00000000000E+00 0. -1.
         11    1    1    2    0    0  0.59726251963E+01 -0.42451927294E+02  0.43098184223E+02  0.60788912361E+02  0.00000000000E+00 0.  1.
</event>
<event>
 7    1  0.2842702E-009  0.1856123E+03  0.7561462E-02  0.1162479E+00
         -1   -1    0    0    0  501 -0.00000000000E+00  0.00000000000E+00  0.83988463171E+02  0.83988463171E+02  0.00000000000E+00 0.  1.
          1   -1    0    0  501    0  0.00000000000E+00 -0.00000000000E+00 -0.66443937643E+03  0.66443937643E+03  0.00000000000E+00 0. -1.
         25    2    1    2    0    0  0.64950674800E+02  0.12864589900E+03 -0.52314958945E+03  0.55686722233E+03  0.12508897987E+03 0.  0.
          5    1    3    3  502    0  0.40366918822E+02 -0.14539115388E+02 -0.16020619991E+03  0.16590471031E+03  0.41800000000E+01 0.  1.
         -5    1    3    3    0  502  0.24583755978E+02  0.14318501439E+03 -0.36294338953E+03  0.39096251203E+03  0.41800000000E+01 0.  1.
        -11    1    1    2    0    0 -0.97259406876E+02 -0.91361028804E+02 -0.40785682636E+02  0.13953387301E+03  0.00000000000E+00 0.  1.
         11    1    1    2    0    0  0.32308732076E+02 -0.37284870201E+02 -0.16515641176E+02  0.52026744254E+02  0.00000000000E+00 0. -1.
</event>
<event>
 7    1  0.2842702E-009  0.1473373E+03  0.7561462E-02  0.1203784E+00
         -2   -1    0    0    0  501 -0.00000000000E+00  0.00000000000E+00  0.62944694429E+02  0.62944694429E+02  0.00000000000E+00 0.  1.
          2   -1    0    0  501    0  0.00000000000E+00 -0.00000000000E+00 -0.42316108614E+03  0.42316108614E+03  0.00000000000E+00 0. -1.
         25    2    1    2    0    0  0.92445355669E+02 -0.76798414757E+02 -0.18142328122E+03  0.25101154851E+03  0.12509296631E+03 0.  0.
          5    1    3    3  502    0  0.78251284949E+02 -0.11107795861E+03 -0.13729120807E+03  0.19320435993E+03  0.41800000000E+01 0. -1.
         -5    1    3    3    0  502  0.14194070721E+02  0.34279543849E+02 -0.44132073155E+02  0.57807188577E+02  0.41800000000E+01 0. -1.
        -11    1    1    2    0    0 -0.65745256091E+02  0.44010077584E+02 -0.17570699532E+03  0.19269736332E+03  0.00000000000E+00 0. -1.
         11    1    1    2    0    0 -0.26700099578E+02  0.32788337173E+02 -0.30861151705E+01  0.42396868739E+02  0.00000000000E+00 0.  1.
</event>
<event>
 7    1  0.2842702E-009  0.1021926E+03  0.7561462E-02  0.1275752E+00
         -1   -1    0    0    0  501 -0.00000000000E+00  0.00000000000E+00  0.19523821497E+02  0.19523821497E+02  0.00000000000E+00 0.  1.
          1   -1    0    0  501    0  0.00000000000E+00 -0.00000000000E+00 -0.11827971056E+04  0.11827971056E+04  0.00000000000E+00 0. -1.
         25    2    1    2    0    0  0.60295514667E+02 -0.10144742969E+02 -0.97397507396E+03  0.98387670611E+03  0.12508982062E+03 0.  0.
          5    1    3    3  502    0  0.30591743777E+02  0.51040845433E+02 -0.65462685642E+03  0.65733919421E+03  0.41800000000E+01 0. -1.
         -5    1    3    3    0  502  0.29703770890E+02 -0.61185588402E+02 -0.31934821754E+03  0.32653751190E+03  0.41800000000E+01 0. -1.
        -11    1    1    2    0    0 -0.26293950801E+02 -0.18483406798E+02 -0.16436936937E+03  0.16748223119E+03  0.00000000000E+00 0. -1.
         11    1    1    2    0    0 -0.34001563866E+02  0.28628149767E+02 -0.24928840807E+02  0.50961989840E+02  0.00000000000E+00 0.  1.
</event>
<event>
 7    1  0.2842702E-009  0.1932345E+03  0.7561462E-02  0.1155576E+00
         -2   -1    0    0    0  501 -0.00000000000E+00  0.00000000000E+00  0.28868119350E+03  0.28868119350E+03  0.00000000000E+00 0.  1.
          2   -1    0    0  501    0  0.00000000000E+00 -0.00000000000E+00 -0.18029248510E+03  0.18029248510E+03  0.00000000000E+00 0. -1.
         25    2    1    2    0    0  0.79562372792E+02 -0.14962427157E+03 -0.53699261434E+02  0.21736768375E+03  0.12508998942E+03 0.  0.
          5    1    3    3  502    0  0.10965963501E+03 -0.89021893162E+02 -0.23899103625E+02  0.14331354635E+03  0.41800000000E+01 0. -1.
         -5    1    3    3    0  502 -0.30097262214E+02 -0.60602378411E+02 -0.29800157809E+02  0.74054137408E+02  0.41800000000E+01 0. -1.
        -11    1    1    2    0    0 -0.75921700732E+02  0.90483053437E+02  0.57426883825E+02  0.13133596075E+03  0.00000000000E+00 0. -1.
         11    1    1    2    0    0 -0.36406720608E+01  0.59141218136E+02  0.10466108601E+03  0.12027003409E+03  0.00000000000E+00 0.  1.
</event>
<event>
 7    1  0.2842702E-009  0.9577929E+02  0.7561462E-02  0.1289431E+00
         -1   -1    0    0    0  501 -0.00000000000E+00  0.00000000000E+00  0.17116752141E+02  0.17116752141E+02  0.00000000000E+00 0.  1.
          1   -1    0    0  501    0  0.00000000000E+00 -0.00000000000E+00 -0.10658384942E+04  0.10658384942E+04  0.00000000000E+00 0. -1.
         25    2    1    2    0    0  0.79425401982E+02  0.80810375784E+01 -0.64502881110E+03  0.66187398877E+03  0.12506523185E+03 0.  0.
          5    1    3    3  502    0  0.46059130495E+02  0.13184761126E+02 -0.65038911564E+02  0.80887661886E+02  0.41800000000E+01 0. -1.
         -5    1    3    3    0  502  0.33366271487E+02 -0.51037235476E+01 -0.57998989953E+03  0.58098632688E+03  0.41800000000E+01 0. -1.
        -11    1    1    2    0    0 -0.35312868811E+02  0.33615927330E+02 -0.26844299421E+03  0.27283451104E+03  0.00000000000E+00 0. -1.
         11    1    1    2    0    0 -0.44112533172E+02 -0.41696964909E+02 -0.13524993675E+03  0.14824674652E+03  0.00000000000E+00 0.  1.
</event>
<event>
 7    1  0.2842702E-009  0.1237294E+03  0.7561462E-02  0.1237069E+00
          2   -1    0    0  501    0  0.00000000000E+00  0.00000000000E+00  0.32285079184E+03  0.32285079184E+03  0.00000000000E+00 0.  1.
         -2   -1    0    0    0  501 -0.00000000000E+00 -0.00000000000E+00 -0.51365201106E+02  0.51365201106E+02  0.00000000000E+00 0. -1.
         25    2    1    2    0    0  0.32055497842E+02 -0.54119556313E+02  0.11224193696E+03  0.17944716806E+03  0.12508617987E+03 0.  0.
          5    1    3    3  502    0 -0.21159503354E+02  0.30930969720E+02  0.44458359740E+02  0.58296377424E+02  0.41800000000E+01 0. -1.
         -5    1    3    3    0  502  0.53215001196E+02 -0.85050526033E+02  0.67783577223E+02  0.12115079064E+03  0.41800000000E+01 0. -1.
        -11    1    1    2    0    0 -0.40829424243E+02  0.75717695335E+02  0.10508026181E+03  0.13580159311E+03  0.00000000000E+00 0.  1.
         11    1    1    2    0    0  0.87739264006E+01 -0.21598139022E+02  0.54163391960E+02  0.58967231767E+02  0.00000000000E+00 0. -1.
</event>
<event>
 7    1  0.2842702E-009  0.2284002E+03  0.7561462E-02  0.1127771E+00
         -2   -1    0    0    0  501 -0.00000000000E+00  0.00000000000E+00  0.12056022819E+03  0.12056022819E+03  0.00000000000E+00 0. -1.
          2   -1    0    0  501    0  0.00000000000E+00 -0.00000000000E+00 -0.56442904166E+03  0.56442904166E+03  0.00000000000E+00 0.  1.
         25    2    1    2    0    0  0.32272573969E+02  0.20371212770E+03 -0.37658094717E+03  0.44720742856E+03  0.12506448089E+03 0.  0.
          5    1    3    3  502    0  0.78772030559E+02  0.10141545511E+03 -0.21152592021E+03  0.24748901926E+03  0.41800000000E+01 0. -1.
         -5    1    3    3    0  502 -0.46499456590E+02  0.10229667259E+03 -0.16505502696E+03  0.19971840929E+03  0.41800000000E+01 0. -1.
        -11    1    1    2    0    0 -0.36334070560E+02 -0.48470215880E+02  0.14468749166E+02  0.62280584562E+02  0.00000000000E+00 0. -1.
         11    1    1    2    0    0  0.40614965910E+01 -0.15524191182E+03 -0.81756615463E+02  0.17550125673E+03  0.00000000000E+00 0.  1.
</event>
<event>
 7    1  0.2842702E-009  0.1032357E+03  0.7561462E-02  0.1273635E+00
         -2   -1    0    0    0  501 -0.00000000000E+00  0.00000000000E+00  0.11729523161E+02  0.11729523161E+02  0.00000000000E+00 0.  1.
          2   -1    0    0  501    0  0.00000000000E+00 -0.00000000000E+00 -0.10018158204E+04  0.10018158204E+04  0.00000000000E+00 0. -1.
         25    2    1    2    0    0  0.22786289230E+02  0.82308776656E+01 -0.60147831354E+03  0.61482788587E+03  0.12510078041E+03 0.  0.
          5    1    3    3  502    0  0.54514428077E+02  0.43427992960E+02 -0.23140621432E+03  0.24171082281E+03  0.41800000000E+01 0. -1.
         -5    1    3    3    0  502 -0.31728138847E+02 -0.35197115295E+02 -0.37007209922E+03  0.37311706306E+03  0.41800000000E+01 0. -1.
        -11    1    1    2    0    0  0.27184118798E+02  0.18036742675E+02 -0.13179039085E+03  0.13576821248E+03  0.00000000000E+00 0.  1.
         11    1    1    2    0    0 -0.49970408028E+02 -0.26267620341E+02 -0.25681759281E+03  0.26294924517E+03  0.00000000000E+00 0. -1.
</event>
<event>
 7    1  0.2842702E-009  0.2092044E+03  0.7561462E-02  0.1142198E+00
          4   -1    0    0  501    0  0.00000000000E+00  0.00000000000E+00  0.26781203443E+03  0.26781203443E+03  0.00000000000E+00 0. -1.
         -4   -1    0    0    0  501 -0.00000000000E+00 -0.00000000000E+00 -0.22329892943E+03  0.22329892943E+03  0.00000000000E+00 0.  1.
         25    2    1    2    0    0  0.10018194415E+03  0.17263081418E+03 -0.67499035769E+02  0.24503463562E+03  0.12509209761E+03 0.  0.
          5    1    3    3  502    0  0.84275536793E+02  0.80622489605E+02 -0.91774712086E+02  0.14846690577E+03  0.41800000000E+01 0. -1.
         -5    1    3    3    0  502  0.15906407357E+02  0.92008324580E+02  0.24275676317E+02  0.96567729846E+02  0.41800000000E+01 0. -1.
        -11    1    1    2    0    0 -0.33776883230E+02 -0.11646996408E+03  0.10213344666E+03  0.15854769408E+03  0.00000000000E+00 0.  1.
         11    1    1    2    0    0 -0.66405060919E+02 -0.56160850108E+02  0.98786941096E+01  0.87528634160E+02  0.00000000000E+00 0. -1.
</event>
<event>
 7    1  0.2842702E-009  0.1521615E+03  0.7561462E-02  0.1197842E+00
         -2   -1    0    0    0  501 -0.00000000000E+00  0.00000000000E+00  0.29977661655E+03  0.29977661655E+03  0.00000000000E+00 0.  1.
          2   -1    0    0  501    0  0.00000000000E+00 -0.00000000000E+00 -0.10578141612E+03  0.10578141612E+03  0.00000000000E+00 0. -1.
         25    2    1    2    0    0 -0.10842234055E+03  0.18160275540E+02  0.20826517078E+03  0.26665660246E+03  0.12508462231E+03 0.  0.
          5    1    3    3  502    0 -0.35443192151E+02 -0.53401361616E+02  0.80962223439E+02  0.10334543684E+03  0.41800000000E+01 0.  1.
         -5    1    3    3    0  502 -0.72979148400E+02  0.71561637156E+02  0.12730294734E+03  0.16331116561E+03  0.41800000000E+01 0.  1.
        -11    1    1    2    0    0  0.11079101153E+03 -0.38523227943E+02 -0.85018070286E+01  0.11760513615E+03  0.00000000000E+00 0. -1.
         11    1    1    2    0    0 -0.23686709800E+01  0.20362952403E+02 -0.57681633166E+01  0.21296294064E+02  0.00000000000E+00 0.  1.
</event>
<event>
 7    1  0.2842702E-009  0.2035629E+03  0.7561462E-02  0.1146767E+00
         -2   -1    0    0    0  501 -0.00000000000E+00  0.00000000000E+00  0.55076740050E+02  0.55076740050E+02  0.00000000000E+00 0.  1.
          2   -1    0    0  501    0  0.00000000000E+00 -0.00000000000E+00 -0.93959742361E+03  0.93959742361E+03  0.00000000000E+00 0. -1.
         25    2    1    2    0    0  0.18830469478E+03 -0.83169570955E+01 -0.60516192482E+03  0.64606347557E+03  0.12509687990E+03 0.  0.
          5    1    3    3  502    0  0.14995600520E+03 -0.53363519999E+02 -0.50661737063E+03  0.53104905742E+03  0.41800000000E+01 0. -1.
         -5    1    3    3    0  502  0.38348689577E+02  0.45046562903E+02 -0.98544554192E+02  0.11501441815E+03  0.41800000000E+01 0. -1.
        -11    1    1    2    0    0 -0.16796090804E+02 -0.10755416685E+01 -0.95614935943E+02  0.97084918662E+02  0.00000000000E+00 0. -1.
         11    1    1    2    0    0 -0.17150860398E+03  0.93924987640E+01 -0.18374382280E+03  0.25152576943E+03  0.00000000000E+00 0.  1.
</event>
<event>
 7    1  0.2842702E-009  0.8246294E+02  0.7561462E-02  0.1322204E+00
         -3   -1    0    0    0  501 -0.00000000000E+00  0.00000000000E+00  0.69538737598E+03  0.69538737598E+03  0.00000000000E+00 0. -1.
          3   -1    0    0  501    0  0.00000000000E+00 -0.00000000000E+00 -0.27322257147E+02  0.27322257147E+02  0.00000000000E+00 0.  1.
         25    2    1    2    0    0 -0.40611176329E+02  0.22730363386E+02  0.55492934730E+03  0.57075367155E+03  0.12508891250E+03 0.  0.
          5    1    3    3  502    0 -0.39783291809E+02 -0.50430243434E+00  0.54266475483E+03  0.54413736607E+03  0.41800000000E+01 0.  1.
         -5    1    3    3    0  502 -0.82788452004E+00  0.23234665820E+02  0.12264592473E+02  0.26616305474E+02  0.41800000000E+01 0.  1.
        -11    1    1    2    0    0 -0.19041119304E+02 -0.35509432680E+02  0.41046582984E+02  0.57517875554E+02  0.00000000000E+00 0. -1.
         11    1    1    2    0    0  0.59652295634E+02  0.12779069294E+02  0.72089188552E+02  0.94438086027E+02  0.00000000000E+00 0.  1.
</event>
<event>
 7    1  0.2842702E-009  0.9909700E+02  0.7561462E-02  0.1282206E+00
         -1   -1    0    0    0  501 -0.00000000000E+00  0.00000000000E+00  0.24392819006E+03  0.24392819006E+03  0.00000000000E+00 0.  1.
          1   -1    0    0  501    0  0.00000000000E+00 -0.00000000000E+00 -0.75633105181E+02  0.75633105181E+02  0.00000000000E+00 0. -1.
         25    2    1    2    0    0  0.78914255689E+02 -0.24471516642E+02  0.14959055691E+03  0.21178196992E+03  0.12509177907E+03 0.  0.
          5    1    3    3  502    0 -0.13284698451E+02 -0.12333133845E+02 -0.14188884878E+02  0.23396287258E+02  0.41800000000E+01 0.  1.
         -5    1    3    3    0  502  0.92198954140E+02 -0.12138382797E+02  0.16377944178E+03  0.18838568266E+03  0.41800000000E+01 0.  1.
        -11    1    1    2    0    0 -0.46221420647E+02  0.95616533916E+00  0.40961083291E+02  0.61766854568E+02  0.00000000000E+00 0.  1.
         11    1    1    2    0    0 -0.32692835042E+02  0.23515351303E+02 -0.22256555319E+02  0.46012470752E+02  0.00000000000E+00 0. -1.
</event>
<event>
 7    1  0.2842702E-009  0.1070926E+03  0.7561462E-02  0.1266051E+00
         -2   -1    0    0    0  501 -0.00000000000E+00  0.00000000000E+00  0.12180311647E+03  0.12180311647E+03  0.00000000000E+00 0.  1.
          2   -1    0    0  501    0  0.00000000000E+00 -0.00000000000E+00 -0.10747287335E+03  0.10747287335E+03  0.00000000000E+00 0. -1.
         25    2    1    2    0    0 -0.21527367423E+02 -0.13180970434E+02  0.31773604315E+02  0.13150749332E+03  0.12508994100E+03 0.  0.
          5    1    3    3  502    0 -0.72234741946E+02 -0.10839157321E+02  0.34855294588E+01  0.73245932249E+02  0.41800000000E+01 0.  1.
         -5    1    3    3    0  502  0.50707374523E+02 -0.23418131134E+01  0.28288074856E+02  0.58261561074E+02  0.41800000000E+01 0.  1.
        -11    1    1    2    0    0  0.32252981509E+02  0.45650043799E+02 -0.27267066635E+02  0.62190628216E+02  0.00000000000E+00 0. -1.
         11    1    1    2    0    0 -0.10725614086E+02 -0.32469073365E+02  0.98237054413E+01  0.35577868279E+02  0.00000000000E+00 0.  1.
</event>
<event>
 7    1  0.2842702E-009  0.1245469E+03  0.7561462E-02  0.1235779E+00
         -3   -1    0    0    0  501 -0.00000000000E+00  0.00000000000E+00  0.70593780109E+02  0.70593780109E+02  0.00000000000E+00 0.  1.
          3   -1    0    0  501    0  0.00000000000E+00 -0.00000000000E+00 -0.29463253992E+03  0.29463253992E+03  0.00000000000E+00 0. -1.
         25    2    1    2    0    0 -0.58707348133E+01  0.93569847581E+02 -0.14739286851E+03  0.21485425037E+03  0.12509160368E+03 0.  0.
          5    1    3    3  502    0 -0.10379028662E+02  0.10583084307E+03 -0.16262874034E+03  0.19435398418E+03  0.41800000000E+01 0.  1.
         -5    1    3    3    0  502  0.45082938488E+01 -0.12260995490E+02  0.15235871826E+02  0.20500266196E+02  0.41800000000E+01 0.  1.
        -11    1    1    2    0    0  0.45455260943E+02 -0.31368672485E+02 -0.38816719543E+02  0.67504904095E+02  0.00000000000E+00 0. -1.
         11    1    1    2    0    0 -0.39584526130E+02 -0.62201175097E+02 -0.37829171756E+02  0.82867165561E+02  0.00000000000E+00 0.  1.
</event>
<event>
 7    1  0.2842702E-009  0.9645802E+02  0.7561462E-02  0.1287926E+00
         -4   -1    0    0    0  501 -0.00000000000E+00  0.00000000000E+00  0.58455807016E+02  0.58455807016E+02  0.00000000000E+00 0.  1.
          4   -1    0    0  501    0  0.00000000000E+00 -0.00000000000E+00 -0.31789450489E+03  0.31789450489E+03  0.00000000000E+00 0. -1.
         25    2    1    2    0    0 -0.81201270550E+02 -0.15197067606E+02 -0.13561904261E+03  0.20214882358E+03  0.12508806879E+03 0.  0.
          5    1    3    3  502    0 -0.25658267089E+02  0.11356037485E+02  0.20021683274E+02  0.34722420113E+02  0.41800000000E+01 0.  1.
         -5    1    3    3    0  502 -0.55543003461E+02 -0.26553105091E+02 -0.15564072589E+03  0.16742640347E+03  0.41800000000E+01 0.  1.
        -11    1    1    2    0    0  0.69465024229E+02  0.36536843548E+02 -0.12734880662E+03  0.14959294460E+03  0.00000000000E+00 0. -1.
         11    1    1    2    0    0  0.11736246321E+02 -0.21339775941E+02  0.35291513568E+01  0.24608543724E+02  0.00000000000E+00 0.  1.
</event>
<event>
 7    1  0.2987400E-009  0.2345609E+03  0.7561462E-02  0.1123470E+00
         -3   -1    0    0    0  501 -0.00000000000E+00  0.00000000000E+00  0.18671611971E+03  0.18671611971E+03  0.00000000000E+00 0.  1.
          3   -1    0    0  501    0  0.00000000000E+00 -0.00000000000E+00 -0.37150049948E+03  0.37150049948E+03  0.00000000000E+00 0. -1.
         25    2    1    2    0    0 -0.12147999922E+03  0.19035648103E+03 -0.10167311935E+02  0.25834755335E+03  0.12508838479E+03 0.  0.
          5    1    3    3  502    0 -0.62202403316E+02  0.93205009534E+02 -0.67462521826E+02  0.13086243553E+03  0.41800000000E+01 0. -1.
         -5    1    3    3    0  502 -0.59277595906E+02  0.97151471494E+02  0.57295209891E+02  0.12748511782E+03  0.41800000000E+01 0. -1.
        -11    1    1    2    0    0  0.11385125843E+03 -0.97383447251E+02 -0.96619595796E+02  0.17827223883E+03  0.00000000000E+00 0. -1.
         11    1    1    2    0    0  0.76287407891E+01 -0.92973033777E+02 -0.77997472043E+02  0.12159682702E+03  0.00000000000E+00 0.  1.
</event>
<event>
 7    1  0.2842702E-009  0.1208902E+03  0.7561462E-02  0.1241636E+00
         -2   -1    0    0    0  501 -0.00000000000E+00  0.00000000000E+00  0.54260283182E+02  0.54260283182E+02  0.00000000000E+00 0.  1.
          2   -1    0    0  501    0  0.00000000000E+00 -0.00000000000E+00 -0.33995795533E+03  0.33995795533E+03  0.00000000000E+00 0. -1.
         25    2    1    2    0    0  0.79756219793E+02 -0.49767780405E+01 -0.15557695892E+03  0.21502633596E+03  0.12508521933E+03 0.  0.
          5    1    3    3  502    0  0.95645323414E+02  0.14627129082E+02 -0.55268648820E+02  0.11150819135E+03  0.41800000000E+01 0. -1.
         -5    1    3    3    0  502 -0.15889103621E+02 -0.19603907122E+02 -0.10030831010E+03  0.10351814461E+03  0.41800000000E+01 0. -1.
        -11    1    1    2    0    0 -0.98398352579E+02 -0.43805511353E+01 -0.87533349137E+02  0.13177068046E+03  0.00000000000E+00 0. -1.
         11    1    1    2    0    0  0.18642132786E+02  0.93573291759E+01 -0.42587364098E+02  0.47421222094E+02  0.00000000000E+00 0.  1.
</event>
<event>
 7    1  0.2842702E-009  0.1492703E+03  0.7561462E-02  0.1201372E+00
         -2   -1    0    0    0  501 -0.00000000000E+00  0.00000000000E+00  0.46574377273E+03  0.46574377273E+03  0.00000000000E+00 0.  1.
          2   -1    0    0  501    0  0.00000000000E+00 -0.00000000000E+00 -0.66165463302E+02  0.66165463302E+02  0.00000000000E+00 0. -1.
         25    2    1    2    0    0  0.12561320581E+03 -0.55273408568E+02  0.18506762001E+03  0.26216698097E+03  0.12509066619E+03 0.  0.
          5    1    3    3  502    0  0.10047198688E+03 -0.22922538820E+01  0.44866874784E+02  0.11013801990E+03  0.41800000000E+01 0. -1.
         -5    1    3    3    0  502  0.25141218928E+02 -0.52981154686E+02  0.14020074523E+03  0.15202896107E+03  0.41800000000E+01 0. -1.
        -11    1    1    2    0    0 -0.10020428237E+03  0.53746684569E+02  0.21615042653E+03  0.24423474609E+03  0.00000000000E+00 0.  1.
         11    1    1    2    0    0 -0.25408923433E+02  0.15267239996E+01 -0.16397371147E+01  0.25507508973E+02  0.00000000000E+00 0. -1.
</event>
<event>
 7    1  0.2842702E-009  0.5689030E+02  0.7561462E-02  0.1411365E+00
         -2   -1    0    0    0  501 -0.00000000000E+00  0.00000000000E+00  0.33913778047E+02  0.33913778047E+02  0.00000000000E+00 0.  1.
          2   -1    0    0  501    0  0.00000000000E+00 -0.00000000000E+00 -0.34980985324E+03  0.34980985324E+03  0.00000000000E+00 0. -1.
         25    2    1    2    0    0  0.10352166138E+02  0.21783483063E+02 -0.18722149744E+03  0.22645303545E+03  0.12508957065E+03 0.  0.
          5    1    3    3  502    0  0.23573634210E+02 -0.32155874810E+01  0.10741289100E+02  0.26436791112E+02  0.41800000000E+01 0. -1.
         -5    1    3    3    0  502 -0.13221468073E+02  0.24999070544E+02 -0.19796278654E+03  0.20001624434E+03  0.41800000000E+01 0. -1.
        -11    1    1    2    0    0 -0.18048305860E+02  0.14993274394E+02 -0.25264489323E+00  0.23464940889E+02  0.00000000000E+00 0.  1.
         11    1    1    2    0    0  0.76961397220E+01 -0.36776757457E+02 -0.12842193286E+03  0.13380565494E+03  0.00000000000E+00 0. -1.
</event>
<event>
 7    1  0.2842702E-009  0.1855609E+03  0.7561462E-02  0.1162527E+00
         -2   -1    0    0    0  501 -0.00000000000E+00  0.00000000000E+00  0.72428413451E+02  0.72428413451E+02  0.00000000000E+00 0.  1.
          2   -1    0    0  501    0  0.00000000000E+00 -0.00000000000E+00 -0.78166738047E+03  0.78166738047E+03  0.00000000000E+00 0. -1.
         25    2    1    2    0    0  0.13782340287E+03  0.68480303415E+02 -0.10652135171E+03  0.22511961715E+03  0.12508877377E+03 0.  0.
          5    1    3    3  502    0  0.11791311277E+03 -0.32299349170E+01 -0.38345867948E+02  0.12410403955E+03  0.41800000000E+01 0. -1.
         -5    1    3    3    0  502  0.19910290100E+02  0.71710238332E+02 -0.68175483757E+02  0.10101557761E+03  0.41800000000E+01 0. -1.
        -11    1    1    2    0    0 -0.13139357651E+03 -0.87906139940E+02 -0.50611922557E+03  0.53023431790E+03  0.00000000000E+00 0.  1.
         11    1    1    2    0    0 -0.64298263596E+01  0.19425836525E+02 -0.96598389749E+02  0.98741858874E+02  0.00000000000E+00 0. -1.
</event>
<event>
 7    1  0.2842702E-009  0.2685211E+03  0.7561462E-02  0.1102129E+00
          1   -1    0    0  501    0  0.00000000000E+00  0.00000000000E+00  0.92956114012E+02  0.92956114012E+02  0.00000000000E+00 0. -1.
         -1   -1    0    0    0  501 -0.00000000000E+00 -0.00000000000E+00 -0.82578489238E+03  0.82578489238E+03  0.00000000000E+00 0.  1.
         25    2    1    2    0    0  0.65272407002E+02 -0.24543170482E+03 -0.34824709097E+03  0.44879946704E+03  0.12509083261E+03 0.  0.
          5    1    3    3  502    0  0.10167443605E+03 -0.15437671552E+03 -0.22346442186E+03  0.29004082726E+03  0.41800000000E+01 0. -1.
         -5    1    3    3    0  502 -0.36402029048E+02 -0.91054989298E+02 -0.12478266912E+03  0.15875863979E+03  0.41800000000E+01 0. -1.
        -11    1    1    2    0    0 -0.32466076837E+02  0.11448492113E+03 -0.10184379855E+03  0.15663014593E+03  0.00000000000E+00 0.  1.
         11    1    1    2    0    0 -0.32806330165E+02  0.13094678369E+03 -0.28273788885E+03  0.31331139342E+03  0.00000000000E+00 0. -1.
</event>
<event>
 7    1  0.2842702E-009  0.1261370E+03  0.7561462E-02  0.1233303E+00
         -2   -1    0    0    0  501 -0.00000000000E+00  0.00000000000E+00  0.41600062491E+02  0.41600062491E+02  0.00000000000E+00 0.  1.
          2   -1    0    0  501    0  0.00000000000E+00 -0.00000000000E+00 -0.41241138866E+03  0.41241138866E+03  0.00000000000E+00 0. -1.
         25    2    1    2    0    0  0.57804886337E+02  0.45000555141E+02 -0.22583637110E+03  0.26835770242E+03  0.12508930845E+03 0.  0.
          5    1    3    3  502    0  0.86418278160E+02  0.15694364757E+01 -0.17639206262E+03  0.19647446167E+03  0.41800000000E+01 0. -1.
         -5    1    3    3    0  502 -0.28613391823E+02  0.43431118666E+02 -0.49444308479E+02  0.71883240753E+02  0.41800000000E+01 0. -1.
        -11    1    1    2    0    0 -0.17926620999E+02 -0.66071620032E+02 -0.68347070914E+02  0.96737504706E+02  0.00000000000E+00 0. -1.
         11    1    1    2    0    0 -0.39878265338E+02  0.21071064891E+02 -0.76627884151E+02  0.88916244025E+02  0.00000000000E+00 0.  1.
</event>
<event>
 7    1  0.2842702E-009  0.6378679E+02  0.7561462E-02  0.1382594E+00
          3   -1    0    0  501    0  0.00000000000E+00  0.00000000000E+00  0.13665457441E+03  0.13665457441E+03  0.00000000000E+00 0. -1.
         -3   -1    0    0    0  501 -0.00000000000E+00 -0.00000000000E+00 -0.93937156112E+02  0.93937156112E+02  0.00000000000E+00 0.  1.
         25    2    1    2    0    0  0.39410844574E+02  0.97794228717E+01  0.55203972174E+02  0.14262850244E+03  0.12508620780E+03 0.  0.
          5    1    3    3  502    0 -0.10822826452E+02 -0.15436808124E+02 -0.32835459269E+02  0.38092891763E+02  0.41800000000E+01 0.  1.
         -5    1    3    3    0  502  0.50233671026E+02  0.25216230995E+02  0.88039431443E+02  0.10453561067E+03  0.41800000000E+01 0.  1.
        -11    1    1    2    0    0 -0.25750690273E+01 -0.14532683702E+02  0.28841304500E+02  0.32398313557E+02  0.00000000000E+00 0. -1.
         11    1    1    2    0    0 -0.36835775546E+02  0.47532608302E+01 -0.41327858375E+02  0.55564914528E+02  0.00000000000E+00 0.  1.
</event>
<event>
 7    1  0.2842702E-009  0.9524958E+02  0.7561462E-02  0.1290615E+00
         -1   -1    0    0    0  501 -0.00000000000E+00  0.00000000000E+00  0.94567853260E+01  0.94567853260E+01  0.00000000000E+00 0.  1.
          1   -1    0    0  501    0  0.00000000000E+00 -0.00000000000E+00 -0.16036749424E+04  0.16036749424E+04  0.00000000000E+00 0. -1.
         25    2    1    2    0    0  0.52835361288E+02 -0.59084169710E+01 -0.11004866359E+04  0.11088483694E+04  0.12508951015E+03 0.  0.
          5    1    3    3  502    0 -0.10013877447E+01 -0.28884364797E+02 -0.60212223516E+02  0.66920053555E+02  0.41800000000E+01 0.  1.
         -5    1    3    3    0  502  0.53836749033E+02  0.22975947826E+02 -0.10402744124E+04  0.10419283158E+04  0.41800000000E+01 0.  1.
        -11    1    1    2    0    0 -0.32768513817E+02 -0.40473921232E+02 -0.24762774190E+03  0.25304428932E+03  0.00000000000E+00 0.  1.
         11    1    1    2    0    0 -0.20066847471E+02  0.46382338203E+02 -0.24610377924E+03  0.25123906906E+03  0.00000000000E+00 0. -1.
</event>
<event>
 7    1  0.2842702E-009  0.8763527E+02  0.7561462E-02  0.1308681E+00
         -2   -1    0    0    0  501 -0.00000000000E+00  0.00000000000E+00  0.14042736716E+04  0.14042736716E+04  0.00000000000E+00 0.  1.
          2   -1    0    0  501    0  0.00000000000E+00 -0.00000000000E+00 -0.12858075742E+02  0.12858075742E+02  0.00000000000E+00 0. -1.
         25    2    1    2    0    0 -0.35661011331E+02 -0.19304199470E+02  0.11743158604E+04  0.11816560700E+04  0.12509583408E+03 0.  0.
          5    1    3    3  502    0  0.21117638236E+02  0.19570646770E+02  0.79236239803E+02  0.84408642673E+02  0.41800000000E+01 0.  1.
         -5    1    3    3    0  502 -0.56778649568E+02 -0.38874846240E+02  0.10950796206E+04  0.10972474273E+04  0.41800000000E+01 0.  1.
        -11    1    1    2    0    0 -0.17106449806E+02  0.17452849562E+02  0.20465210416E+02  0.31875655603E+02  0.00000000000E+00 0. -1.
         11    1    1    2    0    0  0.52767461137E+02  0.18513499080E+01  0.19663452495E+03  0.20360002175E+03  0.00000000000E+00 0.  1.
</event>
<event>
 7    1  0.2889932E-009  0.9363868E+02  0.7561462E-02  0.1294272E+00
         -2   -1    0    0    0  501 -0.00000000000E+00  0.00000000000E+00  0.41405950671E+02  0.41405950671E+02  0.00000000000E+00 0.  1.
          2   -1    0    0  501    0  0.00000000000E+00 -0.00000000000E+00 -0.34183646772E+03  0.34183646772E+03  0.00000000000E+00 0. -1.
         25    2    1    2    0    0 -0.40796811245E+01  0.77235206051E+01 -0.24593869756E+03  0.27605971399E+03  0.12508727418E+03 0.  0.
          5    1    3    3  502    0 -0.13064813295E+02  0.63330940955E+02 -0.16582535689E+03  0.17803656595E+03  0.41800000000E+01 0.  1.
         -5    1    3    3    0  502  0.89851321706E+01 -0.55607420350E+02 -0.80113340675E+02  0.98023148043E+02  0.41800000000E+01 0.  1.
        -11    1    1    2    0    0 -0.85196815965E+01 -0.34960916988E+02  0.88805720336E+01  0.37063664833E+02  0.00000000000E+00 0.  1.
         11    1    1    2    0    0  0.12599362721E+02  0.27237396383E+02 -0.63372391525E+02  0.70119039571E+02  0.00000000000E+00 0. -1.
</event>
<event>
 7    1  0.2842702E-009  0.1431929E+03  0.7561462E-02  0.1209096E+00
         -1   -1    0    0    0  501 -0.00000000000E+00  0.00000000000E+00  0.97337312623E+02  0.97337312623E+02  0.00000000000E+00 0.  1.
          1   -1    0    0  501    0  0.00000000000E+00 -0.00000000000E+00 -0.31754211645E+03  0.31754211645E+03  0.00000000000E+00 0. -1.
         25    2    1    2    0    0 -0.16641668805E+02  0.13697748535E+03 -0.11832869341E+03  0.22065601043E+03  0.12509044177E+03 0.  0.
          5    1    3    3  502    0 -0.24119664594E+02  0.27495176135E+02 -0.10348808863E+03  0.10984079305E+03  0.41800000000E+01 0. -1.
         -5    1    3    3    0  502  0.74779957893E+01  0.10948230922E+03 -0.14840604779E+02  0.11081521738E+03  0.41800000000E+01 0. -1.
        -11    1    1    2    0    0 -0.22678777784E+01 -0.73171279331E+02 -0.80564457565E+00  0.73210849276E+02  0.00000000000E+00 0. -1.
         11    1    1    2    0    0  0.18909546583E+02 -0.63806206020E+02 -0.10107046585E+03  0.12101256937E+03  0.00000000000E+00 0.  1.
</event>
<event>
 7    1  0.2842702E-009  0.1004910E+03  0.7561462E-02  0.1279267E+00
          2   -1    0    0  501    0  0.00000000000E+00  0.00000000000E+00  0.36316267116E+03  0.36316267116E+03  0.00000000000E+00 0. -1.
         -2   -1    0    0    0  501 -0.00000000000E+00 -0.00000000000E+00 -0.37858454744E+02  0.37858454744E+02  0.00000000000E+00 0.  1.
         25    2    1    2    0    0  0.25262470398E+02 -0.15535478973E+01  0.24791685695E+03  0.27883924132E+03  0.12509176079E+03 0.  0.
          5    1    3    3  502    0  0.57756763877E+01  0.55242947090E+02  0.17835560096E+03  0.18685110231E+03  0.41800000000E+01 0. -1.
         -5    1    3    3    0  502  0.19486794011E+02 -0.56796494987E+02  0.69561255993E+02  0.91988139013E+02  0.41800000000E+01 0. -1.
        -11    1    1    2    0    0  0.29199901623E+02 -0.68226927992E+01  0.55122642467E+02  0.62751008791E+02  0.00000000000E+00 0. -1.
         11    1    1    2    0    0 -0.54462372022E+02  0.83762406966E+01  0.22264716999E+02  0.59430875793E+02  0.00000000000E+00 0.  1.
</event>
<event>
 7    1  0.2842702E-009  0.1167778E+03  0.7561462E-02  0.1248509E+00
         -1   -1    0    0    0  501 -0.00000000000E+00  0.00000000000E+00  0.49361201076E+03  0.49361201076E+03  0.00000000000E+00 0.  1.
          1   -1    0    0  501    0  0.00000000000E+00 -0.00000000000E+00 -0.33916719447E+02  0.33916719447E+02  0.00000000000E+00 0. -1.
         25    2    1    2    0    0 -0.68238028061E+02  0.17562440258E+02  0.24271343145E+03  0.28199682048E+03  0.12509008424E+03 0.  0.
          5    1    3    3  502    0 -0.57935728273E+02  0.66961268695E+02  0.11953098906E+03  0.14881360778E+03  0.41800000000E+01 0. -1.
         -5    1    3    3    0  502 -0.10302299788E+02 -0.49398828437E+02  0.12318244239E+03  0.13318321270E+03  0.41800000000E+01 0. -1.
        -11    1    1    2    0    0  0.10260674343E+02 -0.32769250087E+02  0.20233243273E+02  0.39855856816E+02  0.00000000000E+00 0. -1.
         11    1    1    2    0    0  0.57977353718E+02  0.15206809829E+02  0.19674861659E+03  0.20567605290E+03  0.00000000000E+00 0.  1.
</event>
<event>
 7    1  0.2842702E-009  0.1131684E+03  0.7561462E-02  0.1254813E+00
         -2   -1    0    0    0  501 -0.00000000000E+00  0.00000000000E+00  0.16687253451E+02  0.16687253451E+02  0.00000000000E+00 0.  1.
          2   -1    0    0  501    0  0.00000000000E+00 -0.00000000000E+00 -0.81769300264E+03  0.81769300264E+03  0.00000000000E+00 0. -1.
         25    2    1    2    0    0 -0.43576809748E+02  0.32337934389E+00 -0.49562483008E+03  0.51302123000E+03  0.12509103610E+03 0.  0.
          5    1    3    3  502    0 -0.46623565453E+02  0.55322799269E+02 -0.21136933239E+03  0.22344761366E+03  0.41800000000E+01 0. -1.
         -5    1    3    3    0  502  0.30467557056E+01 -0.54999419925E+02 -0.28425549769E+03  0.28957361634E+03  0.41800000000E+01 0. -1.
        -11    1    1    2    0    0  0.55880140634E+01  0.41644189522E+02 -0.10382894052E+03  0.11200854125E+03  0.00000000000E+00 0.  1.
         11    1    1    2    0    0  0.37988795684E+02 -0.41967568866E+02 -0.20155197858E+03  0.20935048485E+03  0.00000000000E+00 0. -1.
</event>
<event>
 7    1  0.2842702E-009  0.1153780E+03  0.7561462E-02  0.1250923E+00
          2   -1    0    0  501    0  0.00000000000E+00  0.00000000000E+00  0.39183103692E+03  0.39183103692E+03  0.00000000000E+00 0.  1.
         -2   -1    0    0    0  501 -0.00000000000E+00 -0.00000000000E+00 -0.36966369749E+02  0.36966369749E+02  0.00000000000E+00 0. -1.
         25    2    1    2    0    0 -0.28480190598E+02 -0.31133788432E+02  0.14702194258E+03  0.19759388361E+03  0.12508979656E+03 0.  0.
          5    1    3    3  502    0  0.43544730420E+02  0.14373462503E+02  0.42274837399E+02  0.62508993343E+02  0.41800000000E+01 0.  1.
         -5    1    3    3    0  502 -0.72024921018E+02 -0.45507250935E+02  0.10474710518E+03  0.13508489027E+03  0.41800000000E+01 0.  1.
        -11    1    1    2    0    0  0.36779200113E+02  0.59447988538E+02  0.16485597805E+03  0.17906497815E+03  0.00000000000E+00 0. -1.
         11    1    1    2    0    0 -0.82990095152E+01 -0.28314200106E+02  0.42986746548E+02  0.52138544911E+02  0.00000000000E+00 0.  1.
</event>
<event>
 7    1  0.2842702E-009  0.1007345E+03  0.7561462E-02  0.1278759E+00
         -1   -1    0    0    0  501 -0.00000000000E+00  0.00000000000E+00  0.42951390373E+02  0.42951390373E+02  0.00000000000E+00 0.  1.
          1   -1    0    0  501    0  0.00000000000E+00 -0.00000000000E+00 -0.60029477178E+03  0.60029477178E+03  0.00000000000E+00 0. -1.
         25    2    1    2    0    0  0.19036139992E+02  0.56735969624E+02 -0.50573805967E+03  0.52440435573E+03  0.12509036107E+03 0.  0.
          5    1    3    3  502    0  0.10143010153E+02  0.89275241561E+02 -0.45167342203E+03  0.46054239976E+03  0.41800000000E+01 0.  1.
         -5    1    3    3    0  502  0.88931298389E+01 -0.32539271937E+02 -0.54064637641E+02  0.63861955966E+02  0.41800000000E+01 0.  1.
        -11    1    1    2    0    0 -0.35126416494E+02 -0.29376359156E+02  0.12363862697E+02  0.47431010044E+02  0.00000000000E+00 0.  1.
         11    1    1    2    0    0  0.16090276502E+02 -0.27359610468E+02 -0.63969184435E+02  0.71410796384E+02  0.00000000000E+00 0. -1.
</event>
<event>
 7    1  0.2842702E-009  0.1692960E+03  0.7561462E-02  0.1178584E+00
          2   -1    0    0  501    0  0.00000000000E+00  0.00000000000E+00  0.23601244138E+03  0.23601244138E+03  0.00000000000E+00 0. -1.
         -2   -1    0    0    0  501 -0.00000000000E+00 -0.00000000000E+00 -0.13543848386E+03  0.13543848386E+03  0.00000000000E+00 0.  1.
         25    2    1    2    0    0  0.10036418849E+02 -0.14104351366E+03  0.67413684798E+02  0.20046567764E+03  0.12509148878E+03 0.  0.
          5    1    3    3  502    0  0.51467007944E+02 -0.99318620572E+02  0.13803943144E+01  0.11194828801E+03  0.41800000000E+01 0. -1.
         -5    1    3    3    0  502 -0.41430589095E+02 -0.41724893093E+02  0.66033290483E+02  0.88517389638E+02  0.41800000000E+01 0. -1.
        -11    1    1    2    0    0  0.38023054116E+02  0.36799266381E+02  0.12093798683E+02  0.54278896609E+02  0.00000000000E+00 0. -1.
         11    1    1    2    0    0 -0.48059472965E+02  0.10424424728E+03  0.21066474036E+02  0.11670635099E+03  0.00000000000E+00 0.  1.
</event>
<event>
 7    1  0.2954842E-009  0.1999838E+03  0.7561462E-02  0.1149753E+00
         -3   -1    0    0    0  501 -0.00000000000E+00  0.00000000000E+00  0.73938289778E+02  0.73938289778E+02  0.00000000000E+00 0.  1.
          3   -1    0    0  501    0  0.00000000000E+00 -0.00000000000E+00 -0.77613092213E+03  0.77613092213E+03  0.00000000000E+00 0. -1.
         25    2    1    2    0    0 -0.16830384463E+03 -0.75985992593E+02 -0.55100494308E+03  0.59443600983E+03  0.12509063631E+03 0.  0.
          5    1    3    3  502    0 -0.17297082816E+03 -0.79339937491E+02 -0.55468333077E+03  0.58643397149E+03  0.41800000000E+01 0.  1.
         -5    1    3    3    0  502  0.46669835333E+01  0.33539448978E+01  0.36783876884E+01  0.80020383443E+01  0.41800000000E+01 0.  1.
        -11    1    1    2    0    0  0.89450014105E+02 -0.48609020157E+01 -0.43496983109E+02  0.99583738288E+02  0.00000000000E+00 0.  1.
         11    1    1    2    0    0  0.78853830525E+02  0.80846894609E+02 -0.10769070616E+03  0.15604946379E+03  0.00000000000E+00 0. -1.
</event>
<event>
 7    1  0.2842702E-009  0.1113344E+03  0.7561462E-02  0.1258119E+00
         -1   -1    0    0    0  501 -0.00000000000E+00  0.00000000000E+00  0.13968907520E+03  0.13968907520E+03  0.00000000000E+00 0.  1.
          1   -1    0    0  501    0  0.00000000000E+00 -0.00000000000E+00 -0.14412106224E+03  0.14412106224E+03  0.00000000000E+00 0. -1.
         25    2    1    2    0    0 -0.45089171622E+02  0.61927407181E+02  0.53744024046E+02  0.15621929933E+03  0.12509201495E+03 0.  0.
          5    1    3    3  502    0 -0.26346357503E+02  0.99580597242E+02  0.47444303705E+02  0.11348506622E+03  0.41800000000E+01 0. -1.
         -5    1    3    3    0  502 -0.18742814119E+02 -0.37653190061E+02  0.62997203408E+01  0.42734233107E+02  0.41800000000E+01 0. -1.
        -11    1    1    2    0    0  0.27723536933E+02 -0.46205252031E+02  0.10615646661E+02  0.54920048883E+02  0.00000000000E+00 0.  1.
         11    1    1    2    0    0  0.17365634689E+02 -0.15722155151E+02 -0.68791657755E+02  0.72670789231E+02  0.00000000000E+00 0. -1.
</event>
<event>
 7    1  0.2842702E-009  0.1130863E+03  0.7561462E-02  0.1254959E+00
         -1   -1    0    0    0  501 -0.00000000000E+00  0.00000000000E+00  0.36734987363E+02  0.36734987363E+02  0.00000000000E+00 0.  1.
          1   -1    0    0  501    0  0.00000000000E+00 -0.00000000000E+00 -0.39880039682E+03  0.39880039682E+03  0.00000000000E+00 0. -1.
         25    2    1    2    0    0  0.34375175985E+02 -0.59822803523E+02 -0.24349333351E+03  0.28230631699E+03  0.12508969823E+03 0.  0.
          5    1    3    3  502    0 -0.32293798157E+02 -0.57197080891E+02 -0.17327560403E+03  0.18535453276E+03  0.41800000000E+01 0.  1.
         -5    1    3    3    0  502  0.66668974142E+02 -0.26257226324E+01 -0.70217729480E+02  0.96951784232E+02  0.41800000000E+01 0.  1.
        -11    1    1    2    0    0  0.36779356286E+01  0.55027240139E+02 -0.89396535795E+02  0.10503934967E+03  0.00000000000E+00 0. -1.
         11    1    1    2    0    0 -0.38053111613E+02  0.47955633845E+01 -0.29175540158E+02  0.48189717525E+02  0.00000000000E+00 0.  1.
</event>
<event>
 7    1  0.2842702E-009  0.7488439E+02  0.7561462E-02  0.1344229E+00
         -4   -1    0    0    0  501 -0.00000000000E+00  0.00000000000E+00  0.78407962737E+03  0.78407962737E+03  0.00000000000E+00 0.  1.
          4   -1    0    0  501    0  0.00000000000E+00 -0.00000000000E+00 -0.25284544336E+02  0.25284544336E+02  0.00000000000E+00 0. -1.
         25    2    1    2    0    0 -0.35978952086E+02 -0.10337892290E+02  0.65179683538E+03  0.66474642061E+03  0.12508929645E+03 0.  0.
          5    1    3    3  502    0 -0.42102999452E+01 -0.21442582819E+02  0.61223496928E+03  0.61263907890E+03  0.41800000000E+01 0. -1.
         -5    1    3    3    0  502 -0.31768652141E+02  0.11104690529E+02  0.39561866103E+02  0.52107341711E+02  0.41800000000E+01 0. -1.
        -11    1    1    2    0    0  0.60352289119E+02  0.24820607626E+02  0.91259290939E+02  0.11219055017E+03  0.00000000000E+00 0.  1.
         11    1    1    2    0    0 -0.24373337033E+02 -0.14482715336E+02  0.15738956715E+02  0.32427200930E+02  0.00000000000E+00 0. -1.
</event>
<event>
 7    1  0.2842702E-009  0.1867610E+03  0.7561462E-02  0.1161416E+00
          1   -1    0    0  501    0  0.00000000000E+00  0.00000000000E+00  0.11305919465E+04  0.11305919465E+04  0.00000000000E+00 0. -1.
         -1   -1    0    0    0  501 -0.00000000000E+00 -0.00000000000E+00 -0.50780708510E+02  0.50780708510E+02  0.00000000000E+00 0.  1.
         25    2    1    2    0    0 -0.16916415686E+03 -0.68025631750E+02  0.82803415198E+03  0.85704822642E+03  0.12508839687E+03 0.  0.
          5    1    3    3  502    0 -0.13143916012E+03 -0.27011357382E+02  0.33564510146E+03  0.36149823343E+03  0.41800000000E+01 0. -1.
         -5    1    3    3    0  502 -0.37724996733E+02 -0.41014274367E+02  0.49238905052E+03  0.49554999299E+03  0.41800000000E+01 0. -1.
        -11    1    1    2    0    0  0.58677964417E+02  0.13639666491E+02  0.22951427449E+02  0.64466363571E+02  0.00000000000E+00 0.  1.
         11    1    1    2    0    0  0.11048619244E+03  0.54385965259E+02  0.22882565855E+03  0.25985806501E+03  0.00000000000E+00 0. -1.
</event>
<event>
 7    1  0.2842702E-009  0.1392804E+03  0.7561462E-02  0.1214301E+00
         -2   -1    0    0    0  501 -0.00000000000E+00  0.00000000000E+00  0.49304792100E+02  0.49304792100E+02  0.00000000000E+00 0.  1.
          2   -1    0    0  501    0  0.00000000000E+00 -0.00000000000E+00 -0.61214253171E+03  0.61214253171E+03  0.00000000000E+00 0. -1.
         25    2    1    2    0    0  0.12405634621E+03  0.99209096373E+01 -0.18159893979E+03  0.25320778457E+03  0.12509039032E+03 0.  0.
          5    1    3    3  502    0  0.59639480577E+02  0.30432372205E+02 -0.88649989994E+01  0.67668733761E+02  0.41800000000E+01 0.  1.
         -5    1    3    3    0  502  0.64416865631E+02 -0.20511462568E+02 -0.17273394079E+03  0.18553905081E+03  0.41800000000E+01 0.  1.
        -11    1    1    2    0    0 -0.13200217802E+03 -0.17010328977E+02 -0.36749198630E+03  0.39085072124E+03  0.00000000000E+00 0. -1.
         11    1    1    2    0    0  0.79458318092E+01  0.70894193397E+01 -0.13746813516E+02  0.17388818003E+02  0.00000000000E+00 0.  1.
</event>
<event>
 7    1  0.2842702E-009  0.1238106E+03  0.7561462E-02  0.1236940E+00
          2   -1    0    0  501    0  0.00000000000E+00  0.00000000000E+00  0.85619878082E+03  0.85619878082E+03  0.00000000000E+00 0. -1.
         -2   -1    0    0    0  501 -0.00000000000E+00 -0.00000000000E+00 -0.31866832066E+02  0.31866832066E+02  0.00000000000E+00 0.  1.
         25    2    1    2    0    0 -0.82949134429E+02 -0.43740909974E+02  0.65724516294E+03  0.67558310091E+03  0.12508995130E+03 0.  0.
          5    1    3    3  502    0 -0.93244980499E+02 -0.29526298371E+01  0.58051102977E+03  0.58797438082E+03  0.41800000000E+01 0.  1.
         -5    1    3    3    0  502  0.10295846069E+02 -0.40788280137E+02  0.76734133170E+02  0.87608720092E+02  0.41800000000E+01 0.  1.
        -11    1    1    2    0    0  0.19876653473E+02 -0.15672180633E+02  0.12137893973E+01  0.25341110547E+02  0.00000000000E+00 0.  1.
         11    1    1    2    0    0  0.63072480957E+02  0.59413090606E+02  0.16587299642E+03  0.18714140143E+03  0.00000000000E+00 0. -1.
</event>
<event>
 7    1  0.2842702E-009  0.1090138E+03  0.7561462E-02  0.1262407E+00
          2   -1    0    0  501    0  0.00000000000E+00  0.00000000000E+00  0.25529912161E+03  0.25529912161E+03  0.00000000000E+00 0. -1.
         -2   -1    0    0    0  501 -0.00000000000E+00 -0.00000000000E+00 -0.56220851676E+02  0.56220851676E+02  0.00000000000E+00 0.  1.
         25    2    1    2    0    0 -0.18798820916E+01  0.40175730240E+02  0.81998900422E+02  0.15488178062E+03  0.12508766143E+03 0.  0.
          5    1    3    3  502    0 -0.11638706538E+02 -0.42222400859E+02  0.48006284431E+02  0.65117327717E+02  0.41800000000E+01 0. -1.
         -5    1    3    3    0  502  0.97588244461E+01  0.82398131099E+02  0.33992615992E+02  0.89764452904E+02  0.41800000000E+01 0. -1.
        -11    1    1    2    0    0 -0.11122649591E+02  0.23480412374E+02  0.74645463686E+02  0.79037891850E+02  0.00000000000E+00 0. -1.
         11    1    1    2    0    0  0.13002531683E+02 -0.63656142615E+02  0.42433905821E+02  0.77600300811E+02  0.00000000000E+00 0.  1.
</event>
<event>
 7    1  0.2842702E-009  0.1499755E+03  0.7561462E-02  0.1200503E+00
         -1   -1    0    0    0  501 -0.00000000000E+00  0.00000000000E+00  0.20460103919E+03  0.20460103919E+03  0.00000000000E+00 0.  1.
          1   -1    0    0  501    0  0.00000000000E+00 -0.00000000000E+00 -0.13414308526E+03  0.13414308526E+03  0.00000000000E+00 0. -1.
         25    2    1    2    0    0 -0.11943310247E+03  0.50394402599E+00  0.74516851293E+02  0.18832099078E+03  0.12509002565E+03 0.  0.
          5    1    3    3  502    0 -0.10237363752E+02 -0.49608972612E+02  0.97047065071E+01  0.51744637486E+02  0.41800000000E+01 0. -1.
         -5    1    3    3    0  502 -0.10919573872E+03  0.50112916638E+02  0.64812144785E+02  0.13657635330E+03  0.41800000000E+01 0. -1.
        -11    1    1    2    0    0  0.31861949537E+01  0.11600997957E+02  0.26942052829E+02  0.29506087550E+02  0.00000000000E+00 0.  1.
         11    1    1    2    0    0  0.11624690752E+03 -0.12104941983E+02 -0.31000950191E+02  0.12091704611E+03  0.00000000000E+00 0. -1.
</event>
<event>
 7    1  0.2842702E-009  0.2166531E+03  0.7561462E-02  0.1136403E+00
         -2   -1    0    0    0  501 -0.00000000000E+00  0.00000000000E+00  0.35958428024E+02  0.35958428024E+02  0.00000000000E+00 0.  1.
          2   -1    0    0  501    0  0.00000000000E+00 -0.00000000000E+00 -0.13790521304E+04  0.13790521304E+04  0.00000000000E+00 0. -1.
         25    2    1    2    0    0  0.18192538228E+03  0.61247491461E+02 -0.60068033835E+03  0.64289418075E+03  0.12509180165E+03 0.  0.
          5    1    3    3  502    0  0.18002015289E+03  0.15113463425E+02 -0.50966530256E+03  0.54075120458E+03  0.41800000000E+01 0. -1.
         -5    1    3    3    0  502  0.19052293961E+01  0.46134028037E+02 -0.91015035783E+02  0.10214297617E+03  0.41800000000E+01 0. -1.
        -11    1    1    2    0    0 -0.51888599388E+02  0.16849764598E+02 -0.12581160315E+03  0.13713096222E+03  0.00000000000E+00 0.  1.
         11    1    1    2    0    0 -0.13003678289E+03 -0.78097256060E+02 -0.61660176085E+03  0.63498541542E+03  0.00000000000E+00 0. -1.
</event>
<event>
 7    1  0.2842702E-009  0.1403195E+03  0.7561462E-02  0.1212900E+00
         -2   -1    0    0    0  501 -0.00000000000E+00  0.00000000000E+00  0.13759876002E+03  0.13759876002E+03  0.00000000000E+00 0.  1.
          2   -1    0    0  501    0  0.00000000000E+00 -0.00000000000E+00 -0.22636500215E+03  0.22636500215E+03  0.00000000000E+00 0. -1.
         25    2    1    2    0    0  0.88422681789E+02 -0.98265952705E+02 -0.75100712419E+01  0.18214832150E+03  0.12508733645E+03 0.  0.
          5    1    3    3  502    0  0.80565988695E+02 -0.41503652019E+02 -0.56298520590E+02  0.10677278439E+03  0.41800000000E+01 0.  1.
         -5    1    3    3    0  502  0.78566930942E+01 -0.56762300686E+02  0.48788449348E+02  0.75375537115E+02  0.41800000000E+01 0.  1.
        -11    1    1    2    0    0 -0.48423089097E+02  0.47534250100E+02 -0.94034067683E+02  0.11595993435E+03  0.00000000000E+00 0. -1.
         11    1    1    2    0    0 -0.39999592692E+02  0.50731702605E+02  0.12777896796E+02  0.65855506310E+02  0.00000000000E+00 0.  1.
</event>
<event>
 7    1  0.2842702E-009  0.7839762E+02  0.7561462E-02  0.1333661E+00
         -2   -1    0    0    0  501 -0.00000000000E+00  0.00000000000E+00  0.12059965907E+03  0.12059965907E+03  0.00000000000E+00 0.  1.
          2   -1    0    0  501    0  0.00000000000E+00 -0.00000000000E+00 -0.10828089363E+03  0.10828089363E+03  0.00000000000E+00 0. -1.
         25    2    1    2    0    0  0.12184469090E+02  0.13556555521E+02 -0.26631848032E+02  0.12918676968E+03  0.12509086556E+03 0.  0.
          5    1    3    3  502    0  0.12031768280E+01  0.38268866372E+02 -0.68841632213E+02  0.78883436117E+02  0.41800000000E+01 0.  1.
         -5    1    3    3    0  502  0.10981292262E+02 -0.24712310851E+02  0.42209784181E+02  0.50303333566E+02  0.41800000000E+01 0.  1.
        -11    1    1    2    0    0  0.36859936079E+02  0.73778509046E+01  0.22848624893E+02  0.43990308379E+02  0.00000000000E+00 0.  1.
         11    1    1    2    0    0 -0.49044405170E+02 -0.20934406426E+02  0.16101988581E+02  0.55703474641E+02  0.00000000000E+00 0. -1.
</event>
<event>
 7    1  0.2842702E-009  0.1330255E+03  0.7561462E-02  0.1223034E+00
         -2   -1    0    0    0  501 -0.00000000000E+00  0.00000000000E+00  0.25364947031E+02  0.25364947031E+02  0.00000000000E+00 0.  1.
          2   -1    0    0  501    0  0.00000000000E+00 -0.00000000000E+00 -0.72932745290E+03  0.72932745290E+03  0.00000000000E+00 0. -1.
         25    2    1    2    0    0  0.76515661763E+02 -0.27540840055E+02 -0.38991053174E+03  0.41748039379E+03  0.12508601868E+03 0.  0.
          5    1    3    3  502    0  0.64609974014E+02  0.42629575185E+02 -0.21797643273E+03  0.23135022595E+03  0.41800000000E+01 0.  1.
         -5    1    3    3    0  502  0.11905687748E+02 -0.70170415240E+02 -0.17193409901E+03  0.18613016784E+03  0.41800000000E+01 0.  1.
        -11    1    1    2    0    0 -0.90395307806E+02  0.39751574808E+02 -0.29301049342E+03  0.30920324809E+03  0.00000000000E+00 0. -1.
         11    1    1    2    0    0  0.13879646044E+02 -0.12210734753E+02 -0.21041480713E+02  0.28008758061E+02  0.00000000000E+00 0.  1.
</event>
<event>
 7    1  0.2842702E-009  0.2918027E+03  0.7561462E-02  0.1089412E+00
         -2   -1    0    0    0  501 -0.00000000000E+00  0.00000000000E+00  0.50436773692E+03  0.50436773692E+03  0.00000000000E+00 0.  1.
          2   -1    0    0  501    0  0.00000000000E+00 -0.00000000000E+00 -0.18766496464E+03  0.18766496464E+03  0.00000000000E+00 0. -1.
         25    2    1    2    0    0 -0.14484681570E+03 -0.23630817531E+03  0.71825596207E+02  0.31245563048E+03  0.12508977181E+03 0.  0.
          5    1    3    3  502    0 -0.64889894163E+02 -0.19067017572E+03  0.86311836135E+02  0.21916436693E+03  0.41800000000E+01 0.  1.
         -5    1    3    3    0  502 -0.79956921540E+02 -0.45637999591E+02 -0.14486239928E+02  0.93291263557E+02  0.41800000000E+01 0.  1.
        -11    1    1    2    0    0  0.45854214649E+02  0.15576240907E+03  0.13434116891E+03  0.21074175368E+03  0.00000000000E+00 0.  1.
         11    1    1    2    0    0  0.98992601054E+02  0.80545766240E+02  0.11053600716E+03  0.16883531740E+03  0.00000000000E+00 0. -1.
</event>
<event>
 7    1  0.2842702E-009  0.1496682E+03  0.7561462E-02  0.1200881E+00
         -3   -1    0    0    0  501 -0.00000000000E+00  0.00000000000E+00  0.13548424576E+03  0.13548424576E+03  0.00000000000E+00 0.  1.
          3   -1    0    0  501    0  0.00000000000E+00 -0.00000000000E+00 -0.20658418947E+03  0.20658418947E+03  0.00000000000E+00 0. -1.
         25    2    1    2    0    0 -0.90400604881E+02 -0.52447015943E+02 -0.11245737815E+03  0.19803233792E+03  0.12508871299E+03 0.  0.
          5    1    3    3  502    0 -0.11967817169E+03 -0.24535089998E+02 -0.87334363106E+02  0.15023181687E+03  0.41800000000E+01 0.  1.
         -5    1    3    3    0  502  0.29277566808E+02 -0.27911925945E+02 -0.25123015039E+02  0.47800521051E+02  0.41800000000E+01 0.  1.
        -11    1    1    2    0    0  0.16202622695E+02 -0.24606342864E+02  0.18066227882E+02  0.34559885434E+02  0.00000000000E+00 0. -1.
         11    1    1    2    0    0  0.74197982186E+02  0.77053358807E+02  0.23291206554E+02  0.10947621188E+03  0.00000000000E+00 0.  1.
</event>
<event>
 7    1  0.2842702E-009  0.1515363E+03  0.7561462E-02  0.1198598E+00
          2   -1    0    0  501    0  0.00000000000E+00  0.00000000000E+00  0.10115763099E+04  0.10115763099E+04  0.00000000000E+00 0. -1.
         -2   -1    0    0    0  501 -0.00000000000E+00 -0.00000000000E+00 -0.25940864738E+02  0.25940864738E+02  0.00000000000E+00 0.  1.
         25    2    1    2    0    0  0.21971130113E+02  0.11162102883E+03  0.65736709758E+03  0.67876449285E+03  0.12509097146E+03 0.  0.
          5    1    3    3  502    0 -0.44007406338E+02  0.27261599068E+02  0.33615162316E+03  0.34014001933E+03  0.41800000000E+01 0.  1.
         -5    1    3    3    0  502  0.65978536451E+02  0.84359429758E+02  0.32121547441E+03  0.33862447352E+03  0.41800000000E+01 0.  1.
        -11    1    1    2    0    0  0.27309649502E+02 -0.68185870244E+01  0.79834283211E+02  0.84651183458E+02  0.00000000000E+00 0.  1.
         11    1    1    2    0    0 -0.49280779614E+02 -0.10480244180E+03  0.24843406438E+03  0.27410149834E+03  0.00000000000E+00 0. -1.
</event>
<event>
 7    1  0.2842702E-009  0.8624447E+02  0.7561462E-02  0.1312210E+00
         -2   -1    0    0    0  501 -0.00000000000E+00  0.00000000000E+00  0.20890320884E+02  0.20890320884E+02  0.00000000000E+00 0.  1.
          2   -1    0    0  501    0  0.00000000000E+00 -0.00000000000E+00 -0.71833517948E+03  0.71833517948E+03  0.00000000000E+00 0. -1.
         25    2    1    2    0    0  0.13895917865E+02  0.54479870112E+02 -0.36883166187E+03  0.39350406994E+03  0.12508998952E+03 0.  0.
          5    1    3    3  502    0  0.24544226163E+02  0.41266289375E+02 -0.37253421251E+03  0.37563883927E+03  0.41800000000E+01 0. -1.
         -5    1    3    3    0  502 -0.10648308299E+02  0.13213580737E+02  0.37025506407E+01  0.17865230666E+02  0.41800000000E+01 0. -1.
        -11    1    1    2    0    0 -0.26256132062E+02  0.18932777584E+02 -0.83611591476E+02  0.89658980404E+02  0.00000000000E+00 0.  1.
         11    1    1    2    0    0  0.12360214198E+02 -0.73412647696E+02 -0.24500160524E+03  0.25606245001E+03  0.00000000000E+00 0. -1.
</event>
<event>
 7    1  0.2842702E-009  0.3665408E+03  0.7561462E-02  0.1056024E+00
         -2   -1    0    0    0  501 -0.00000000000E+00  0.00000000000E+00  0.22047894868E+03  0.22047894868E+03  0.00000000000E+00 0.  1.
          2   -1    0    0  501    0  0.00000000000E+00 -0.00000000000E+00 -0.66113154298E+03  0.66113154298E+03  0.00000000000E+00 0. -1.
         25    2    1    2    0    0 -0.37700076749E+01  0.36168206983E+03 -0.15908703539E+03  0.41446939041E+03  0.12509219864E+03 0.  0.
          5    1    3    3  502    0 -0.41514349645E+02  0.12840371538E+03 -0.10743540330E+03  0.17254215031E+03  0.41800000000E+01 0. -1.
         -5    1    3    3    0  502  0.37744341970E+02  0.23327835445E+03 -0.51651632091E+02  0.24192724010E+03  0.41800000000E+01 0. -1.
        -11    1    1    2    0    0  0.19922115689E+01 -0.31139701140E+03 -0.19622329502E+03  0.36807016875E+03  0.00000000000E+00 0.  1.
         11    1    1    2    0    0  0.17777961060E+01 -0.50285058426E+02 -0.85342263893E+02  0.99070932499E+02  0.00000000000E+00 0. -1.
</event>
<event>
 7    1  0.2842702E-009  0.1248088E+03  0.7561462E-02  0.1235368E+00
         -1   -1    0    0    0  501 -0.00000000000E+00  0.00000000000E+00  0.18922391680E+03  0.18922391680E+03  0.00000000000E+00 0.  1.
          1   -1    0    0  501    0  0.00000000000E+00 -0.00000000000E+00 -0.12802069460E+03  0.12802069460E+03  0.00000000000E+00 0. -1.
         25    2    1    2    0    0 -0.29848885522E+02  0.10719723733E+03  0.23418080029E+02  0.16905017933E+03  0.12508938005E+03 0.  0.
          5    1    3    3  502    0 -0.24672716500E+01  0.35981386765E+02  0.70497980494E+02  0.79298078644E+02  0.41800000000E+01 0. -1.
         -5    1    3    3    0  502 -0.27381613872E+02  0.71215850564E+02 -0.47079900465E+02  0.89752100686E+02  0.41800000000E+01 0. -1.
        -11    1    1    2    0    0 -0.21706259435E+02 -0.47655385827E+01 -0.94808942585E+01  0.24161113645E+02  0.00000000000E+00 0.  1.
         11    1    1    2    0    0  0.51555144956E+02 -0.10243169875E+03  0.47266036430E+02  0.12403331842E+03  0.00000000000E+00 0. -1.
</event>
<event>
 7    1  0.2842702E-009  0.8746550E+02  0.7561462E-02  0.1309108E+00
          2   -1    0    0  501    0  0.00000000000E+00  0.00000000000E+00  0.18953224410E+03  0.18953224410E+03  0.00000000000E+00 0. -1.
         -2   -1    0    0    0  501 -0.00000000000E+00 -0.00000000000E+00 -0.95243890905E+02  0.95243890905E+02  0.00000000000E+00 0.  1.
         25    2    1    2    0    0 -0.50236472732E+01 -0.25640437292E+02  0.12896556772E+03  0.18155591847E+03  0.12509102612E+03 0.  0.
          5    1    3    3  502    0 -0.24677815460E+02 -0.51582938722E+02  0.10066305039E+02  0.58211657253E+02  0.41800000000E+01 0.  1.
         -5    1    3    3    0  502  0.19654168187E+02  0.25942501429E+02  0.11889926268E+03  0.12334426121E+03  0.41800000000E+01 0.  1.
        -11    1    1    2    0    0  0.33082237659E+02 -0.14242687101E+02 -0.40396491664E+02  0.54121762011E+02  0.00000000000E+00 0.  1.
         11    1    1    2    0    0 -0.28058590386E+02  0.39883124393E+02  0.57192771325E+01  0.49098454524E+02  0.00000000000E+00 0. -1.
</event>
<event>
 7    1  0.2842702E-009  0.1223114E+03  0.7561462E-02  0.1239332E+00
         -2   -1    0    0    0  501 -0.00000000000E+00  0.00000000000E+00  0.77625144925E+02  0.77625144925E+02  0.00000000000E+00 0.  1.
          2   -1    0    0  501    0  0.00000000000E+00 -0.00000000000E+00 -0.22236519982E+03  0.22236519982E+03  0.00000000000E+00 0. -1.
         25    2    1    2    0    0 -0.32989254342E+02  0.64819569871E+02 -0.98296027435E+02  0.17491963975E+03  0.12507958995E+03 0.  0.
          5    1    3    3  502    0 -0.57293973873E+02 -0.29235748480E+01 -0.83387148831E+02  0.10130170641E+03  0.41800000000E+01 0.  1.
         -5    1    3    3    0  502  0.24304719531E+02  0.67743144719E+02 -0.14908878604E+02  0.73617933339E+02  0.41800000000E+01 0.  1.
        -11    1    1    2    0    0 -0.53823550616E+01  0.20640334410E+02 -0.21225340654E+01  0.21435911491E+02  0.00000000000E+00 0.  1.
         11    1    1    2    0    0  0.38371609403E+02 -0.85459904282E+02 -0.44321493399E+02  0.10363479351E+03  0.00000000000E+00 0. -1.
</event>
<event>
 7    1  0.2842702E-009  0.1337112E+03  0.7561462E-02  0.1222051E+00
         -2   -1    0    0    0  501 -0.00000000000E+00  0.00000000000E+00  0.37384288095E+02  0.37384288095E+02  0.00000000000E+00 0.  1.
          2   -1    0    0  501    0  0.00000000000E+00 -0.00000000000E+00 -0.52157655283E+03  0.52157655283E+03  0.00000000000E+00 0. -1.
         25    2    1    2    0    0 -0.46073095207E+02  0.72617554391E+02 -0.23362629211E+03  0.27861196276E+03  0.12508933656E+03 0.  0.
          5    1    3    3  502    0 -0.81816706031E+02  0.79795184932E+02 -0.16446456886E+03  0.20031802648E+03  0.41800000000E+01 0.  1.
         -5    1    3    3    0  502  0.35743610824E+02 -0.71776305404E+01 -0.69161723249E+02  0.78293936277E+02  0.41800000000E+01 0.  1.
        -11    1    1    2    0    0  0.11277686145E+02 -0.80002758170E+02 -0.11740323235E+03  0.14251717962E+03  0.00000000000E+00 0.  1.
         11    1    1    2    0    0  0.34795409062E+02  0.73852037791E+01 -0.13316274027E+03  0.13783169854E+03  0.00000000000E+00 0. -1.
</event>
<event>
 7    1  0.2842702E-009  0.1103152E+03  0.7561462E-02  0.1259987E+00
         -1   -1    0    0    0  501 -0.00000000000E+00  0.00000000000E+00  0.45300039816E+02  0.45300039816E+02  0.00000000000E+00 0.  1.
          1   -1    0    0  501    0  0.00000000000E+00 -0.00000000000E+00 -0.46799032866E+03  0.46799032866E+03  0.00000000000E+00 0. -1.
         25    2    1    2    0    0  0.30309729710E+02  0.90352504678E+02 -0.25955707486E+03  0.30348175124E+03  0.12509613667E+03 0.  0.
          5    1    3    3  502    0 -0.26819352825E+01 -0.14327540381E+02  0.58438960864E+01  0.16250991099E+02  0.41800000000E+01 0.  1.
         -5    1    3    3    0  502  0.32991664993E+02  0.10468004506E+03 -0.26540097094E+03  0.28723076014E+03  0.41800000000E+01 0.  1.
        -11    1    1    2    0    0 -0.24596530415E+02 -0.61844360751E+02 -0.29068037629E+02  0.72626889488E+02  0.00000000000E+00 0.  1.
         11    1    1    2    0    0 -0.57131992955E+01 -0.28508143927E+02 -0.13406517636E+03  0.13718172775E+03  0.00000000000E+00 0. -1.
</event>
<event>
 7    1  0.2842702E-009  0.1039683E+03  0.7561462E-02  0.1272166E+00
          2   -1    0    0  501    0  0.00000000000E+00  0.00000000000E+00  0.26535940157E+03  0.26535940157E+03  0.00000000000E+00 0. -1.
         -2   -1    0    0    0  501 -0.00000000000E+00 -0.00000000000E+00 -0.71735808016E+02  0.71735808016E+02  0.00000000000E+00 0.  1.
         25    2    1    2    0    0  0.16390765362E+02 -0.54693503169E+02  0.18307156879E+03  0.22896000566E+03  0.12508976143E+03 0.  0.
          5    1    3    3  502    0  0.46122416776E+02 -0.67216176138E+02  0.59056800563E+02  0.10074953973E+03  0.41800000000E+01 0.  1.
         -5    1    3    3    0  502 -0.29731651414E+02  0.12522672969E+02  0.12401476823E+03  0.12821046593E+03  0.41800000000E+01 0.  1.
        -11    1    1    2    0    0 -0.42379407237E+02  0.12428854479E+02 -0.21446335951E+02  0.49096190353E+02  0.00000000000E+00 0.  1.
         11    1    1    2    0    0  0.25988641875E+02  0.42264648691E+02  0.31998360714E+02  0.59039013574E+02  0.00000000000E+00 0. -1.
</event>
<event>
 7    1  0.2842702E-009  0.9716476E+02  0.7561462E-02  0.1286374E+00
         -1   -1    0    0    0  501 -0.00000000000E+00  0.00000000000E+00  0.11039949201E+03  0.11039949201E+03  0.00000000000E+00 0.  1.
          1   -1    0    0  501    0  0.00000000000E+00 -0.00000000000E+00 -0.14351762008E+03  0.14351762008E+03  0.00000000000E+00 0. -1.
         25    2    1    2    0    0  0.41582218231E+02 -0.26249873027E+02  0.20676692299E+02  0.13598880791E+03  0.12508914248E+03 0.  0.
          5    1    3    3  502    0  0.74575861941E+02 -0.18943174932E+02  0.49322888537E+02  0.91491107734E+02  0.41800000000E+01 0.  1.
         -5    1    3    3    0  502 -0.32993643710E+02 -0.73066980944E+01 -0.28646196237E+02  0.44497700178E+02  0.41800000000E+01 0.  1.
        -11    1    1    2    0    0 -0.40883002985E+02 -0.13812192987E+02  0.83816102561E+01  0.43959617817E+02  0.00000000000E+00 0.  1.
         11    1    1    2    0    0 -0.69921524619E+00  0.40062066014E+02 -0.62176430631E+02  0.73968686356E+02  0.00000000000E+00 0. -1.
</event>
<event>
 7    1  0.2842702E-009  0.1017269E+03  0.7561462E-02  0.1276706E+00
         -2   -1    0    0    0  501 -0.00000000000E+00  0.00000000000E+00  0.19639305121E+02  0.19639305121E+02  0.00000000000E+00 0. -1.
          2   -1    0    0  501    0  0.00000000000E+00 -0.00000000000E+00 -0.84212934649E+03  0.84212934649E+03  0.00000000000E+00 0.  1.
         25    2    1    2    0    0 -0.42872218408E+02  0.37607613890E+02 -0.51215137493E+03  0.53028218754E+03  0.12509119814E+03 0.  0.
          5    1    3    3  502    0  0.37194556630E+02  0.27102530448E+02 -0.98496387415E+02  0.10879794545E+03  0.41800000000E+01 0.  1.
         -5    1    3    3    0  502 -0.80066775038E+02  0.10505083443E+02 -0.41365498751E+03  0.42148424210E+03  0.41800000000E+01 0.  1.
        -11    1    1    2    0    0 -0.10018425183E+02 -0.16769553160E+02 -0.40278325912E+01  0.19945179661E+02  0.00000000000E+00 0. -1.
         11    1    1    2    0    0  0.52890643591E+02 -0.20838060730E+02 -0.30631083386E+03  0.31154128441E+03  0.00000000000E+00 0.  1.
</event>
<event>
 7    1  0.2842702E-009  0.1343533E+03  0.7561462E-02  0.1221135E+00
          1   -1    0    0  501    0  0.00000000000E+00  0.00000000000E+00  0.25428160713E+03  0.25428160713E+03  0.00000000000E+00 0. -1.
         -1   -1    0    0    0  501 -0.00000000000E+00 -0.00000000000E+00 -0.10066970012E+03  0.10066970012E+03  0.00000000000E+00 0.  1.
         25    2    1    2    0    0  0.77608957698E+02  0.45946068343E+02  0.12523773281E+03  0.19866246032E+03  0.12509233353E+03 0.  0.
          5    1    3    3  502    0  0.92667699370E+02  0.37496967936E+02  0.33942333989E+02  0.10565452923E+03  0.41800000000E+01 0. -1.
         -5    1    3    3    0  502 -0.15058741672E+02  0.84491004064E+01  0.91295398824E+02  0.93007931085E+02  0.41800000000E+01 0. -1.
        -11    1    1    2    0    0 -0.27510170953E+02  0.41685806553E+02 -0.44533687935E+01  0.50143279384E+02  0.00000000000E+00 0.  1.
         11    1    1    2    0    0 -0.50098786745E+02 -0.87631874895E+02  0.32827542995E+02  0.10614556755E+03  0.00000000000E+00 0. -1.
</event>
<event>
 7    1  0.2842702E-009  0.2299203E+03  0.7561462E-02  0.1126696E+00
         -1   -1    0    0    0  501 -0.00000000000E+00  0.00000000000E+00  0.49313655801E+02  0.49313655801E+02  0.00000000000E+00 0.  1.
          1   -1    0    0  501    0  0.00000000000E+00 -0.00000000000E+00 -0.12227253596E+04  0.12227253596E+04  0.00000000000E+00 0. -1.
         25    2    1    2    0    0 -0.18518601294E+03 -0.11811372188E+03 -0.59547068391E+03  0.64689854620E+03  0.12509069908E+03 0.  0.
          5    1    3    3  502    0 -0.19519720143E+03 -0.10343233786E+03 -0.46120764340E+03  0.51140019426E+03  0.41800000000E+01 0. -1.
         -5    1    3    3    0  502  0.10011188485E+02 -0.14681384020E+02 -0.13426304051E+03  0.13549835194E+03  0.41800000000E+01 0. -1.
        -11    1    1    2    0    0  0.82297253415E+02  0.40277902224E+02 -0.13037620994E+03  0.15935213662E+03  0.00000000000E+00 0.  1.
         11    1    1    2    0    0  0.10288875953E+03  0.77835819655E+02 -0.44756480993E+03  0.46578833256E+03  0.00000000000E+00 0. -1.
</event>
<event>
 7    1  0.2842702E-009  0.1235970E+03  0.7561462E-02  0.1237278E+00
         -1   -1    0    0    0  501 -0.00000000000E+00  0.00000000000E+00  0.53005770386E+03  0.53005770386E+03  0.00000000000E+00 0.  1.
          1   -1    0    0  501    0  0.00000000000E+00 -0.00000000000E+00 -0.49804937055E+02  0.49804937055E+02  0.00000000000E+00 0. -1.
         25    2    1    2    0    0  0.25073309882E+02  0.58956577541E+02  0.44354885221E+03  0.46528197458E+03  0.12508869917E+03 0.  0.
          5    1    3    3  502    0 -0.22999224506E+02 -0.30018430476E+02  0.15094368757E+03  0.15566483133E+03  0.41800000000E+01 0.  1.
         -5    1    3    3    0  502  0.48072534388E+02  0.88975008018E+02  0.29260516464E+03  0.30961714324E+03  0.41800000000E+01 0.  1.
        -11    1    1    2    0    0  0.29060308529E+02 -0.42245414611E+02  0.11374806752E+02  0.52522022201E+02  0.00000000000E+00 0.  1.
         11    1    1    2    0    0 -0.54133618411E+02 -0.16711162931E+02  0.25329107843E+02  0.62058644143E+02  0.00000000000E+00 0. -1.
</event>
<event>
 7    1  0.2842702E-009  0.1989600E+03  0.7561462E-02  0.1150619E+00
          2   -1    0    0  501    0  0.00000000000E+00  0.00000000000E+00  0.15401863399E+03  0.15401863399E+03  0.00000000000E+00 0. -1.
         -2   -1    0    0    0  501 -0.00000000000E+00 -0.00000000000E+00 -0.32899703608E+03  0.32899703608E+03  0.00000000000E+00 0.  1.
         25    2    1    2    0    0 -0.14677451527E+03 -0.12761022723E+03 -0.55990994980E+02  0.23793012918E+03  0.12509447000E+03 0.  0.
          5    1    3    3  502    0 -0.60770614622E+02 -0.26331945873E+02  0.36735309323E+02  0.75851132662E+02  0.41800000000E+01 0. -1.
         -5    1    3    3    0  502 -0.86003900651E+02 -0.10127828136E+03 -0.92726304304E+02  0.16207899652E+03  0.41800000000E+01 0. -1.
        -11    1    1    2    0    0  0.26401866736E+02  0.51316756656E+01  0.11654838415E+02  0.29312589800E+02  0.00000000000E+00 0. -1.
         11    1    1    2    0    0  0.12037264854E+03  0.12247855156E+03 -0.13064224552E+03  0.21577295109E+03  0.00000000000E+00 0.  1.
</event>
<event>
 7    1  0.2842702E-009  0.1081513E+03  0.7561462E-02  0.1264032E+00
          3   -1    0    0  501    0  0.00000000000E+00  0.00000000000E+00  0.39433338419E+02  0.39433338419E+02  0.00000000000E+00 0. -1.
         -3   -1    0    0    0  501 -0.00000000000E+00 -0.00000000000E+00 -0.32559106887E+03  0.32559106887E+03  0.00000000000E+00 0.  1.
         25    2    1    2    0    0 -0.33586647496E+02  0.16892831237E+02 -0.15584479564E+03  0.20334354552E+03  0.12509023359E+03 0.  0.
          5    1    3    3  502    0 -0.18942920222E+02 -0.51677516975E+02 -0.41149080133E+02  0.68848523463E+02  0.41800000000E+01 0. -1.
         -5    1    3    3    0  502 -0.14643727273E+02  0.68570348212E+02 -0.11469571551E+03  0.13449502206E+03  0.41800000000E+01 0. -1.
        -11    1    1    2    0    0 -0.27142748101E+02 -0.12761901373E+02 -0.21170857161E+02  0.36712397007E+02  0.00000000000E+00 0. -1.
         11    1    1    2    0    0  0.60729395596E+02 -0.41309298641E+01 -0.10914207765E+03  0.12496846476E+03  0.00000000000E+00 0.  1.
</event>
<event>
 7    1  0.2842702E-009  0.1135880E+03  0.7561462E-02  0.1254066E+00
          2   -1    0    0  501    0  0.00000000000E+00  0.00000000000E+00  0.89109344827E+02  0.89109344827E+02  0.00000000000E+00 0. -1.
         -2   -1    0    0    0  501 -0.00000000000E+00 -0.00000000000E+00 -0.25192174629E+03  0.25192174629E+03  0.00000000000E+00 0.  1.
         25    2    1    2    0    0  0.88800117687E+02 -0.13176812658E+02 -0.48792263379E+02  0.16150769263E+03  0.12507981660E+03 0.  0.
          5    1    3    3  502    0  0.25979464785E+02  0.38215143582E+02 -0.63774451213E+02  0.78866867676E+02  0.41800000000E+01 0.  1.
         -5    1    3    3    0  502  0.62820652902E+02 -0.51391956240E+02  0.14982187835E+02  0.82640824957E+02  0.41800000000E+01 0.  1.
        -11    1    1    2    0    0 -0.90715521593E+01  0.17446021143E+02 -0.95576189039E+02  0.97577992516E+02  0.00000000000E+00 0.  1.
         11    1    1    2    0    0 -0.79728565528E+02 -0.42692084848E+01 -0.18443949041E+02  0.81945405963E+02  0.00000000000E+00 0. -1.
</event>
<event>
 7    1  0.4352138E-009  0.3076823E+03  0.7561462E-02  0.1081462E+00
          2   -1    0    0  501    0  0.00000000000E+00  0.00000000000E+00  0.27394087936E+03  0.27394087936E+03  0.00000000000E+00 0. -1.
         -2   -1    0    0    0  501 -0.00000000000E+00 -0.00000000000E+00 -0.38716814601E+03  0.38716814601E+03  0.00000000000E+00 0.  1.
         25    2    1    2    0    0 -0.28875716698E+03 -0.90880888729E+01  0.46965749518E+02  0.31830303742E+03  0.12509095555E+03 0.  0.
          5    1    3    3  502    0 -0.27509663363E+03 -0.41776699719E+02  0.34024781344E+02  0.28035443392E+03  0.41800000000E+01 0.  1.
         -5    1    3    3    0  502 -0.13660533356E+02  0.32688610846E+02  0.12940968174E+02  0.37948603504E+02  0.41800000000E+01 0.  1.
        -11    1    1    2    0    0  0.17653850228E+03 -0.36519421752E+02 -0.11324234452E+03  0.21289278885E+03  0.00000000000E+00 0.  1.
         11    1    1    2    0    0  0.11221866470E+03  0.45607510624E+02 -0.46950671648E+02  0.12991319910E+03  0.00000000000E+00 0. -1.
</event>
<event>
 7    1  0.2842702E-009  0.1598332E+03  0.7561462E-02  0.1188885E+00
         -2   -1    0    0    0  501 -0.00000000000E+00  0.00000000000E+00  0.10904869879E+03  0.10904869879E+03  0.00000000000E+00 0.  1.
          2   -1    0    0  501    0  0.00000000000E+00 -0.00000000000E+00 -0.28959392872E+03  0.28959392872E+03  0.00000000000E+00 0. -1.
         25    2    1    2    0    0 -0.13102627587E+03  0.94290465707E+01 -0.14848484910E+03  0.23441914171E+03  0.12509113358E+03 0.  0.
          5    1    3    3  502    0 -0.14085429478E+02  0.47967152457E+02 -0.77246076272E+02  0.92106871285E+02  0.41800000000E+01 0.  1.
         -5    1    3    3    0  502 -0.11694084639E+03 -0.38538105886E+02 -0.71238772829E+02  0.14231227043E+03  0.41800000000E+01 0.  1.
        -11    1    1    2    0    0  0.10261197850E+03 -0.34653838651E+02  0.85096495114E+01  0.10863940721E+03  0.00000000000E+00 0.  1.
         11    1    1    2    0    0  0.28414297372E+02  0.25224792080E+02 -0.40570030344E+02  0.55584078590E+02  0.00000000000E+00 0. -1.
</event>
<event>
 7    1  0.2842702E-009  0.9781933E+02  0.7561462E-02  0.1284950E+00
         -1   -1    0    0    0  501 -0.00000000000E+00  0.00000000000E+00  0.10539673229E+03  0.10539673229E+03  0.00000000000E+00 0.  1.
          1   -1    0    0  501    0  0.00000000000E+00 -0.00000000000E+00 -0.14256894993E+03  0.14256894993E+03  0.00000000000E+00 0. -1.
         25    2    1    2    0    0  0.18801176319E+02 -0.52151915064E+02 -0.51691959182E+02  0.14626244262E+03  0.12508931609E+03 0.  0.
          5    1    3    3  502    0  0.51494173964E+02 -0.17715203349E+02 -0.75337795428E+02  0.93052319702E+02  0.41800000000E+01 0.  1.
         -5    1    3    3    0  502 -0.32692997645E+02 -0.34436711715E+02  0.23645836247E+02  0.53210122914E+02  0.41800000000E+01 0.  1.
        -11    1    1    2    0    0 -0.43431896140E+02  0.53229908300E+02 -0.68969525484E+01  0.69045786941E+02  0.00000000000E+00 0. -1.
         11    1    1    2    0    0  0.24630719820E+02 -0.10779932352E+01  0.21416694088E+02  0.32657452655E+02  0.00000000000E+00 0.  1.
</event>
<event>
 7    1  0.2842702E-009  0.1305179E+03  0.7561462E-02  0.1226689E+00
         -1   -1    0    0    0  501 -0.00000000000E+00  0.00000000000E+00  0.18766231132E+02  0.18766231132E+02  0.00000000000E+00 0.  1.
          1   -1    0    0  501    0  0.00000000000E+00 -0.00000000000E+00 -0.13793336450E+04  0.13793336450E+04  0.00000000000E+00 0. -1.
         25    2    1    2    0    0 -0.26742781998E+02 -0.74624812076E+02 -0.10848930294E+04  0.10949538856E+04  0.12508831832E+03 0.  0.
          5    1    3    3  502    0 -0.47484822370E+02 -0.10237319889E+03 -0.79970890771E+03  0.80764279832E+03  0.41800000000E+01 0.  1.
         -5    1    3    3    0  502  0.20742040372E+02  0.27748386812E+02 -0.28518412173E+03  0.28731108731E+03  0.41800000000E+01 0.  1.
        -11    1    1    2    0    0  0.54741746888E+01  0.87946811478E+02 -0.25750079160E+03  0.27216036800E+03  0.00000000000E+00 0.  1.
         11    1    1    2    0    0  0.21268607310E+02 -0.13321999402E+02 -0.18173592836E+02  0.30985622497E+02  0.00000000000E+00 0. -1.
</event>
<event>
 7    1  0.2842702E-009  0.1230284E+03  0.7561462E-02  0.1238183E+00
          1   -1    0    0  501    0  0.00000000000E+00  0.00000000000E+00  0.65863665798E+03  0.65863665798E+03  0.00000000000E+00 0. -1.
         -1   -1    0    0    0  501 -0.00000000000E+00 -0.00000000000E+00 -0.32592560211E+02  0.32592560211E+02  0.00000000000E+00 0.  1.
         25    2    1    2    0    0  0.94194054435E+02 -0.16542881117E+02  0.39937472902E+03  0.42929443041E+03  0.12508935604E+03 0.  0.
          5    1    3    3  502    0  0.65148116173E+02  0.46888768024E+02  0.27636904988E+03  0.28781966183E+03  0.41800000000E+01 0.  1.
         -5    1    3    3    0  502  0.29045938261E+02 -0.63431649141E+02  0.12300567915E+03  0.14147476858E+03  0.41800000000E+01 0.  1.
        -11    1    1    2    0    0 -0.55583530570E+02  0.70430900013E+01  0.21243883920E+03  0.21970296855E+03  0.00000000000E+00 0. -1.
         11    1    1    2    0    0 -0.38610523865E+02  0.94997911159E+01  0.14230529542E+02  0.42231819229E+02  0.00000000000E+00 0.  1.
</event>
<event>
 7    1  0.2842702E-009  0.1152939E+03  0.7561462E-02  0.1251069E+00
          2   -1    0    0  501    0  0.00000000000E+00  0.00000000000E+00  0.21847657382E+03  0.21847657382E+03  0.00000000000E+00 0. -1.
         -2   -1    0    0    0  501 -0.00000000000E+00 -0.00000000000E+00 -0.16441751462E+03  0.16441751462E+03  0.00000000000E+00 0.  1.
         25    2    1    2    0    0 -0.82961105774E+02 -0.53332998420E+02  0.15087869834E+03  0.21940596250E+03  0.12509053112E+03 0.  0.
          5    1    3    3  502    0  0.14547853623E+02  0.63700963966E+01  0.86663324095E+02  0.88205568511E+02  0.41800000000E+01 0.  1.
         -5    1    3    3    0  502 -0.97508959397E+02 -0.59703094816E+02  0.64215374246E+02  0.13120039399E+03  0.41800000000E+01 0.  1.
        -11    1    1    2    0    0  0.33324280830E+02  0.30275344213E+02  0.75373104946E+01  0.45649920148E+02  0.00000000000E+00 0. -1.
         11    1    1    2    0    0  0.49636824944E+02  0.23057654207E+02 -0.10435694964E+03  0.11783820580E+03  0.00000000000E+00 0.  1.
</event>
<event>
 7    1  0.2842702E-009  0.1447238E+03  0.7561462E-02  0.1207110E+00
          2   -1    0    0  501    0  0.00000000000E+00  0.00000000000E+00  0.13525012522E+03  0.13525012522E+03  0.00000000000E+00 0. -1.
         -2   -1    0    0    0  501 -0.00000000000E+00 -0.00000000000E+00 -0.31861654316E+03  0.31861654316E+03  0.00000000000E+00 0.  1.
         25    2    1    2    0    0 -0.11442102347E+03  0.67354691700E+02 -0.22318370009E+03  0.28824861846E+03  0.12508987551E+03 0.  0.
          5    1    3    3  502    0 -0.11904748773E+03  0.39412286069E+02 -0.96277948858E+02  0.15815355976E+03  0.41800000000E+01 0. -1.
         -5    1    3    3    0  502  0.46264642572E+01  0.27942405632E+02 -0.12690575123E+03  0.13009505870E+03  0.41800000000E+01 0. -1.
        -11    1    1    2    0    0  0.66297264494E+02 -0.23800529296E+02 -0.24172608248E+02  0.74472192553E+02  0.00000000000E+00 0. -1.
         11    1    1    2    0    0  0.48123758979E+02 -0.43554162404E+02  0.63989890403E+02  0.91145857365E+02  0.00000000000E+00 0.  1.
</event>
<event>
 7    1  0.2842702E-009  0.1078547E+03  0.7561462E-02  0.1264595E+00
         -1   -1    0    0    0  501 -0.00000000000E+00  0.00000000000E+00  0.92070973642E+03  0.92070973642E+03  0.00000000000E+00 0.  1.
          1   -1    0    0  501    0  0.00000000000E+00 -0.00000000000E+00 -0.23314389332E+02  0.23314389332E+02  0.00000000000E+00 0. -1.
         25    2    1    2    0    0 -0.11297281373E+02  0.52272504130E+02  0.75651446320E+03  0.76864921684E+03  0.12508973678E+03 0.  0.
          5    1    3    3  502    0  0.53170294030E+02  0.32143728936E+02  0.25018820040E+03  0.25782146438E+03  0.41800000000E+01 0.  1.
         -5    1    3    3    0  502 -0.64467575404E+02  0.20128775194E+02  0.50632626281E+03  0.51082775246E+03  0.41800000000E+01 0.  1.
        -11    1    1    2    0    0 -0.27819341929E+02 -0.29322860386E+02  0.17727298041E+02  0.44136187221E+02  0.00000000000E+00 0. -1.
         11    1    1    2    0    0  0.39116623302E+02 -0.22949643744E+02  0.12315358584E+03  0.13123872169E+03  0.00000000000E+00 0.  1.
</event>
<event>
 7    1  0.2842702E-009  0.2377243E+03  0.7561462E-02  0.1121318E+00
         -1   -1    0    0    0  501 -0.00000000000E+00  0.00000000000E+00  0.58101460395E+02  0.58101460395E+02  0.00000000000E+00 0.  1.
          1   -1    0    0  501    0  0.00000000000E+00 -0.00000000000E+00 -0.11243458642E+04  0.11243458642E+04  0.00000000000E+00 0. -1.
         25    2    1    2    0    0 -0.15695931292E+03  0.15075593962E+03 -0.72698226024E+03  0.76909952964E+03  0.12508917042E+03 0.  0.
          5    1    3    3  502    0 -0.26927623120E+01 -0.18260059174E+02 -0.29707389620E+02  0.35223317957E+02  0.41800000000E+01 0. -1.
         -5    1    3    3    0  502 -0.15426655061E+03  0.16901599879E+03 -0.69727487062E+03  0.73387621169E+03  0.41800000000E+01 0. -1.
        -11    1    1    2    0    0  0.16213677154E+03 -0.13472466638E+03 -0.33526672460E+03  0.39603389380E+03  0.00000000000E+00 0. -1.
         11    1    1    2    0    0 -0.51774586206E+01 -0.16031273238E+02 -0.39954189397E+01  0.17313901118E+02  0.00000000000E+00 0.  1.
</event>
<event>
 7    1  0.2842702E-009  0.7524251E+02  0.7561462E-02  0.1343122E+00
         -2   -1    0    0    0  501 -0.00000000000E+00  0.00000000000E+00  0.74005174916E+02  0.74005174916E+02  0.00000000000E+00 0.  1.
          2   -1    0    0  501    0  0.00000000000E+00 -0.00000000000E+00 -0.19120628658E+03  0.19120628658E+03  0.00000000000E+00 0. -1.
         25    2    1    2    0    0 -0.43647150602E+01  0.86709141106E+01 -0.12054387289E+03  0.17398356596E+03  0.12508085563E+03 0.  0.
          5    1    3    3  502    0 -0.20116447421E+01  0.45260361877E+02  0.24594418241E+01  0.45563892787E+02  0.41800000000E+01 0. -1.
         -5    1    3    3    0  502 -0.23530703181E+01 -0.36589447767E+02 -0.12300331472E+03  0.12841967318E+03  0.41800000000E+01 0. -1.
        -11    1    1    2    0    0  0.35607557508E+02 -0.94224018923E+01 -0.28529803992E+02  0.46590015292E+02  0.00000000000E+00 0. -1.
         11    1    1    2    0    0 -0.31242842448E+02  0.75148778169E+00  0.31872565223E+02  0.44637880236E+02  0.00000000000E+00 0.  1.
</event>
<event>
 7    1  0.2842702E-009  0.1655848E+03  0.7561462E-02  0.1182532E+00
          1   -1    0    0  501    0  0.00000000000E+00  0.00000000000E+00  0.12149638141E+03  0.12149638141E+03  0.00000000000E+00 0. -1.
         -1   -1    0    0    0  501 -0.00000000000E+00 -0.00000000000E+00 -0.35952991524E+03  0.35952991524E+03  0.00000000000E+00 0.  1.
         25    2    1    2    0    0 -0.14542027947E+03  0.49590917218E+02 -0.22726656510E+03  0.30150075188E+03  0.12508515107E+03 0.  0.
          5    1    3    3  502    0 -0.19285736571E+02 -0.23587576661E+02 -0.11032344437E+03  0.11452968255E+03  0.41800000000E+01 0.  1.
         -5    1    3    3    0  502 -0.12613454290E+03  0.73178493879E+02 -0.11694312073E+03  0.18697106933E+03  0.41800000000E+01 0.  1.
        -11    1    1    2    0    0  0.82706948856E+02 -0.19513182319E+02 -0.51066179937E+02  0.99141103517E+02  0.00000000000E+00 0.  1.
         11    1    1    2    0    0  0.62713330615E+02 -0.30077734899E+02  0.40299211206E+02  0.80384441264E+02  0.00000000000E+00 0. -1.
</event>
<event>
 7    1  0.2842702E-009  0.9265663E+02  0.7561462E-02  0.1296543E+00
          2   -1    0    0  501    0  0.00000000000E+00  0.00000000000E+00  0.49369577967E+03  0.49369577967E+03  0.00000000000E+00 0. -1.
         -2   -1    0    0    0  501 -0.00000000000E+00 -0.00000000000E+00 -0.41767846430E+02  0.41767846430E+02  0.00000000000E+00 0.  1.
         25    2    1    2    0    0 -0.76131573613E+01 -0.35504602457E+02  0.85686966377E+02  0.15591938368E+03  0.12510020400E+03 0.  0.
          5    1    3    3  502    0 -0.41540008456E+02 -0.88152313986E+01 -0.15841685052E+02  0.45516063016E+02  0.41800000000E+01 0. -1.
         -5    1    3    3    0  502  0.33926851095E+02 -0.26689371059E+02  0.10152865143E+03  0.11040332066E+03  0.41800000000E+01 0. -1.
        -11    1    1    2    0    0  0.20875482554E+02  0.64282749864E+02  0.26333519605E+03  0.27187034259E+03  0.00000000000E+00 0. -1.
         11    1    1    2    0    0 -0.13262325193E+02 -0.28778147407E+02  0.10290577081E+03  0.10767389982E+03  0.00000000000E+00 0.  1.
</event>
<event>
 7    1  0.2842702E-009  0.9680065E+02  0.7561462E-02  0.1287171E+00
         -2   -1    0    0    0  501 -0.00000000000E+00  0.00000000000E+00  0.23531531703E+02  0.23531531703E+02  0.00000000000E+00 0.  1.
          2   -1    0    0  501    0  0.00000000000E+00 -0.00000000000E+00 -0.75208489451E+03  0.75208489451E+03  0.00000000000E+00 0. -1.
         25    2    1    2    0    0 -0.29101870106E+02 -0.66482177090E+02 -0.46334667479E+03  0.48539096936E+03  0.12508978130E+03 0.  0.
          5    1    3    3  502    0 -0.64137694501E+01 -0.82909589005E+02 -0.44239559086E+03  0.45016271236E+03  0.41800000000E+01 0. -1.
         -5    1    3    3    0  502 -0.22688100656E+02  0.16427411914E+02 -0.20951083929E+02  0.35228257002E+02  0.41800000000E+01 0. -1.
        -11    1    1    2    0    0 -0.52317722970E+01  0.35148444627E+02 -0.20255858183E+02  0.40903354286E+02  0.00000000000E+00 0.  1.
         11    1    1    2    0    0  0.34333642403E+02  0.31333732463E+02 -0.24495082983E+03  0.24932210256E+03  0.00000000000E+00 0. -1.
</event>
<event>
 7    1  0.2842702E-009  0.1654622E+03  0.7561462E-02  0.1182664E+00
          1   -1    0    0  501    0  0.00000000000E+00  0.00000000000E+00  0.12062336825E+04  0.12062336825E+04  0.00000000000E+00 0. -1.
         -1   -1    0    0    0  501 -0.00000000000E+00 -0.00000000000E+00 -0.32209933590E+02  0.32209933590E+02  0.00000000000E+00 0.  1.
         25    2    1    2    0    0  0.10054419826E+03  0.12916020648E+03  0.67743487752E+03  0.70806414094E+03  0.12508125226E+03 0.  0.
          5    1    3    3  502    0  0.22241823535E+02  0.35851028143E+02  0.43156323929E+03  0.43364074629E+03  0.41800000000E+01 0.  1.
         -5    1    3    3    0  502  0.78302374722E+02  0.93309178334E+02  0.24587163823E+03  0.27442339465E+03  0.41800000000E+01 0.  1.
        -11    1    1    2    0    0 -0.67553448907E+02 -0.61430813469E+02  0.38541981969E+03  0.39608793306E+03  0.00000000000E+00 0. -1.
         11    1    1    2    0    0 -0.32990749350E+02 -0.67729393008E+02  0.11116905167E+03  0.13429154206E+03  0.00000000000E+00 0.  1.
</event>
<event>
 7    1  0.2842702E-009  0.1175021E+03  0.7561462E-02  0.1247276E+00
         -2   -1    0    0    0  501 -0.00000000000E+00  0.00000000000E+00  0.88042905221E+02  0.88042905221E+02  0.00000000000E+00 0. -1.
          2   -1    0    0  501    0  0.00000000000E+00 -0.00000000000E+00 -0.23609816306E+03  0.23609816306E+03  0.00000000000E+00 0.  1.
         25    2    1    2    0    0  0.17292303184E+01  0.81169381980E+02 -0.24320278715E+02  0.15108968998E+03  0.12508061262E+03 0.  0.
          5    1    3    3  502    0  0.40574151550E+01 -0.17948119630E+02 -0.45820875853E+02  0.49554239777E+02  0.41800000000E+01 0. -1.
         -5    1    3    3    0  502 -0.23281848366E+01  0.99117501610E+02  0.21500597138E+02  0.10153545020E+03  0.41800000000E+01 0. -1.
        -11    1    1    2    0    0  0.24815735699E+02 -0.86359184221E+02 -0.73859744656E+02  0.11631419225E+03  0.00000000000E+00 0. -1.
         11    1    1    2    0    0 -0.26544966017E+02  0.51898022406E+01 -0.49875234463E+02  0.56737186051E+02  0.00000000000E+00 0.  1.
</event>
<event>
 7    1  0.2842702E-009  0.1433144E+03  0.7561462E-02  0.1208938E+00
          2   -1    0    0  501    0  0.00000000000E+00  0.00000000000E+00  0.41426388102E+03  0.41426388102E+03  0.00000000000E+00 0. -1.
         -2   -1    0    0    0  501 -0.00000000000E+00 -0.00000000000E+00 -0.17802456517E+03  0.17802456517E+03  0.00000000000E+00 0.  1.
         25    2    1    2    0    0 -0.36138971492E+02 -0.11881118489E+03  0.35609651939E+03  0.39732410902E+03  0.12505836065E+03 0.  0.
          5    1    3    3  502    0 -0.65540898418E+01  0.17641833201E+02  0.56887810112E+01  0.20100373174E+02  0.41800000000E+01 0.  1.
         -5    1    3    3    0  502 -0.29584881650E+02 -0.13645301810E+03  0.35040773837E+03  0.37722373584E+03  0.41800000000E+01 0.  1.
        -11    1    1    2    0    0  0.61364787918E+01  0.70692666057E+02 -0.10435033957E+02  0.71721679706E+02  0.00000000000E+00 0. -1.
         11    1    1    2    0    0  0.30002492700E+02  0.48118518838E+02 -0.10942216958E+03  0.12324265747E+03  0.00000000000E+00 0.  1.
</event>
<event>
 7    1  0.2842702E-009  0.1244646E+03  0.7561462E-02  0.1235908E+00
          1   -1    0    0  501    0  0.00000000000E+00  0.00000000000E+00  0.13825272403E+04  0.13825272403E+04  0.00000000000E+00 0. -1.
         -1   -1    0    0    0  501 -0.00000000000E+00 -0.00000000000E+00 -0.13865404896E+02  0.13865404896E+02  0.00000000000E+00 0.  1.
         25    2    1    2    0    0 -0.86138319659E+02 -0.15966407744E+01  0.79269884186E+03  0.80712186670E+03  0.12510753154E+03 0.  0.
          5    1    3    3  502    0 -0.12336773567E+01 -0.40784751202E+02  0.99365725738E+02  0.10749854763E+03  0.41800000000E+01 0. -1.
         -5    1    3    3    0  502 -0.84904642302E+02  0.39188110428E+02  0.69333311612E+03  0.69962331907E+03  0.41800000000E+01 0. -1.
        -11    1    1    2    0    0 -0.12181135673E+02 -0.93832002780E+01  0.23937394483E+02  0.28450366752E+02  0.00000000000E+00 0.  1.
         11    1    1    2    0    0  0.98319455331E+02  0.10979841052E+02  0.55202559902E+03  0.56082041170E+03  0.00000000000E+00 0. -1.
</event>
<event>
 7    1  0.2842702E-009  0.1450027E+03  0.7561462E-02  0.1206752E+00
         -3   -1    0    0    0  501 -0.00000000000E+00  0.00000000000E+00  0.29355300438E+03  0.29355300438E+03  0.00000000000E+00 0.  1.
          3   -1    0    0  501    0  0.00000000000E+00 -0.00000000000E+00 -0.88631175692E+02  0.88631175692E+02  0.00000000000E+00 0. -1.
         25    2    1    2    0    0  0.89455292766E+02  0.62209943325E+02  0.55476525762E+02  0.17492901279E+03  0.12510071204E+03 0.  0.
          5    1    3    3  502    0  0.12104925016E+03  0.43846127847E+02  0.47503017056E+02  0.13729316414E+03  0.41800000000E+01 0. -1.
         -5    1    3    3    0  502 -0.31593957389E+02  0.18363815478E+02  0.79735087058E+01  0.37635848648E+02  0.41800000000E+01 0. -1.
        -11    1    1    2    0    0 -0.38193341511E+02  0.64408458266E+01  0.46508540728E+01  0.39010848163E+02  0.00000000000E+00 0.  1.
         11    1    1    2    0    0 -0.51261951255E+02 -0.68650789151E+02  0.14479444886E+03  0.16824431912E+03  0.00000000000E+00 0. -1.
</event>
<event>
 7    1  0.2842702E-009  0.2316689E+03  0.7561462E-02  0.1125471E+00
          2   -1    0    0  501    0  0.00000000000E+00  0.00000000000E+00  0.26413588710E+03  0.26413588710E+03  0.00000000000E+00 0. -1.
         -2   -1    0    0    0  501 -0.00000000000E+00 -0.00000000000E+00 -0.22360675851E+03  0.22360675851E+03  0.00000000000E+00 0.  1.
         25    2    1    2    0    0  0.16658253606E+03 -0.13796574835E+03  0.72134613020E+00  0.24986535526E+03  0.12509151202E+03 0.  0.
          5    1    3    3  502    0  0.10023232349E+03 -0.13215504305E+03 -0.41326996837E+02  0.17098791519E+03  0.41800000000E+01 0.  1.
         -5    1    3    3    0  502  0.66350212577E+02 -0.58107053029E+01  0.42048342967E+02  0.78877440066E+02  0.41800000000E+01 0.  1.
        -11    1    1    2    0    0 -0.10585138789E+03  0.13266954618E+03  0.47970790798E+02  0.17637154411E+03  0.00000000000E+00 0. -1.
         11    1    1    2    0    0 -0.60731148168E+02  0.52962021681E+01 -0.81630083398E+01  0.61505746239E+02  0.00000000000E+00 0.  1.
</event>
<event>
 7    1  0.2842702E-009  0.8111286E+02  0.7561462E-02  0.1325923E+00
         -2   -1    0    0    0  501 -0.00000000000E+00  0.00000000000E+00  0.15726383206E+03  0.15726383206E+03  0.00000000000E+00 0.  1.
          2   -1    0    0  501    0  0.00000000000E+00 -0.00000000000E+00 -0.11464980918E+03  0.11464980918E+03  0.00000000000E+00 0. -1.
         25    2    1    2    0    0  0.46819365566E+02 -0.61444576281E+02  0.26926673524E+02  0.14946529601E+03  0.12508932815E+03 0.  0.
          5    1    3    3  502    0  0.35847629599E+02 -0.56878646670E+02  0.74390797615E+02  0.10035784057E+03  0.41800000000E+01 0.  1.
         -5    1    3    3    0  502  0.10971735967E+02 -0.45659296112E+01 -0.47464124091E+02  0.49107455433E+02  0.41800000000E+01 0.  1.
        -11    1    1    2    0    0 -0.39076146628E+02  0.28349239177E+02  0.53192212844E+02  0.71833391291E+02  0.00000000000E+00 0.  1.
         11    1    1    2    0    0 -0.77432189385E+01  0.33095337104E+02 -0.37504863484E+02  0.50614953942E+02  0.00000000000E+00 0. -1.
</event>
<event>
 7    1  0.2842702E-009  0.9852894E+02  0.7561462E-02  0.1283420E+00
         -1   -1    0    0    0  501 -0.00000000000E+00  0.00000000000E+00  0.13298008237E+02  0.13298008237E+02  0.00000000000E+00 0.  1.
          1   -1    0    0  501    0  0.00000000000E+00 -0.00000000000E+00 -0.12389500309E+04  0.12389500309E+04  0.00000000000E+00 0. -1.
         25    2    1    2    0    0  0.35902745123E+02  0.53160850167E+01 -0.96735867732E+03  0.97608699979E+03  0.12508298328E+03 0.  0.
          5    1    3    3  502    0 -0.34978658078E+02  0.14876628877E+02 -0.12578697387E+03  0.13147112156E+03  0.41800000000E+01 0.  1.
         -5    1    3    3    0  502  0.70881403202E+02 -0.95605438602E+01 -0.84157170344E+03  0.84461587823E+03  0.41800000000E+01 0.  1.
        -11    1    1    2    0    0  0.10288868815E+02  0.28255144596E+02 -0.37309956087E+02  0.47919169868E+02  0.00000000000E+00 0.  1.
         11    1    1    2    0    0 -0.46191613938E+02 -0.33571229612E+02 -0.22098338923E+03  0.22824186946E+03  0.00000000000E+00 0. -1.
</event>
<event>
 7    1  0.2842702E-009  0.1138458E+03  0.7561462E-02  0.1253609E+00
          1   -1    0    0  501    0  0.00000000000E+00  0.00000000000E+00  0.41940875134E+03  0.41940875134E+03  0.00000000000E+00 0. -1.
         -1   -1    0    0    0  501 -0.00000000000E+00 -0.00000000000E+00 -0.37130561983E+02  0.37130561983E+02  0.00000000000E+00 0.  1.
         25    2    1    2    0    0  0.50958564755E+02 -0.32733139850E+02  0.24084770923E+03  0.27807212442E+03  0.12509297972E+03 0.  0.
          5    1    3    3  502    0 -0.31613668684E+02 -0.34854294852E+02  0.13937944389E+03  0.14716775359E+03  0.41800000000E+01 0. -1.
         -5    1    3    3    0  502  0.82572233440E+02  0.21211550026E+01  0.10146826534E+03  0.13090437084E+03  0.41800000000E+01 0. -1.
        -11    1    1    2    0    0 -0.96738378534E+01  0.51496221832E+02  0.35646785454E+02  0.63373001467E+02  0.00000000000E+00 0.  1.
         11    1    1    2    0    0 -0.41284726902E+02 -0.18763081982E+02  0.10578369468E+03  0.11509418743E+03  0.00000000000E+00 0. -1.
</event>
<event>
 7    1  0.2842702E-009  0.1789827E+03  0.7561462E-02  0.1168791E+00
          1   -1    0    0  501    0  0.00000000000E+00  0.00000000000E+00  0.11778511295E+04  0.11778511295E+04  0.00000000000E+00 0. -1.
         -1   -1    0    0    0  501 -0.00000000000E+00 -0.00000000000E+00 -0.49453615638E+02  0.49453615638E+02  0.00000000000E+00 0.  1.
         25    2    1    2    0    0  0.72322648021E+02 -0.12468003728E+03  0.17535945146E+03  0.25917858361E+03  0.12508766477E+03 0.  0.
          5    1    3    3  502    0  0.82031936184E+00 -0.11543707725E+03  0.12995012039E+03  0.17387034801E+03  0.41800000000E+01 0. -1.
         -5    1    3    3    0  502  0.71502328659E+02 -0.92429600256E+01  0.45409331067E+02  0.85308235603E+02  0.41800000000E+01 0. -1.
        -11    1    1    2    0    0 -0.94101476919E+02  0.10256383664E+03  0.78538072430E+03  0.79761977824E+03  0.00000000000E+00 0.  1.
         11    1    1    2    0    0  0.21778828897E+02  0.22116200632E+02  0.16765733812E+03  0.17050638329E+03  0.00000000000E+00 0. -1.
</event>
<event>
 7    1  0.2842702E-009  0.1829613E+03  0.7561462E-02  0.1164967E+00
          1   -1    0    0  501    0  0.00000000000E+00  0.00000000000E+00  0.72433136831E+02  0.72433136831E+02  0.00000000000E+00 0. -1.
         -1   -1    0    0    0  501 -0.00000000000E+00 -0.00000000000E+00 -0.48640446178E+03  0.48640446178E+03  0.00000000000E+00 0.  1.
         25    2    1    2    0    0  0.15108150964E+03 -0.24652923441E+02 -0.17500462535E+03  0.26402014780E+03  0.12508649153E+03 0.  0.
          5    1    3    3  502    0 -0.56708213615E+01 -0.38484331936E+02 -0.46817512586E+02  0.61012735590E+02  0.41800000000E+01 0. -1.
         -5    1    3    3    0  502  0.15675233101E+03  0.13831408495E+02 -0.12818711276E+03  0.20300741221E+03  0.41800000000E+01 0. -1.
        -11    1    1    2    0    0 -0.87993912870E+02 -0.22257192731E+02 -0.15625656838E+03  0.18070535823E+03  0.00000000000E+00 0. -1.
         11    1    1    2    0    0 -0.63087596774E+02  0.46910116172E+02 -0.82710131229E+02  0.11411209258E+03  0.00000000000E+00 0.  1.
</event>
<event>
 7    1  0.2842702E-009  0.1524197E+03  0.7561462E-02  0.1197531E+00
          2   -1    0    0  501    0  0.00000000000E+00  0.00000000000E+00  0.77265070356E+03  0.77265070356E+03  0.00000000000E+00 0. -1.
         -2   -1    0    0    0  501 -0.00000000000E+00 -0.00000000000E+00 -0.56658727355E+02  0.56658727355E+02  0.00000000000E+00 0.  1.
         25    2    1    2    0    0  0.10000050776E+03 -0.84110299883E+02  0.13216156221E+03  0.22402833761E+03  0.12508946170E+03 0.  0.
          5    1    3    3  502    0  0.24900946207E+01  0.25718709456E+02 -0.34105014860E+00  0.26177114098E+02  0.41800000000E+01 0.  1.
         -5    1    3    3    0  502  0.97510413139E+02 -0.10982900934E+03  0.13250261236E+03  0.19785122351E+03  0.41800000000E+01 0.  1.
        -11    1    1    2    0    0 -0.12998788769E+02  0.19204464785E+02  0.18614273556E+02  0.29736697146E+02  0.00000000000E+00 0.  1.
         11    1    1    2    0    0 -0.87001718990E+02  0.64905835099E+02  0.56521614044E+03  0.57554439616E+03  0.00000000000E+00 0. -1.
</event>
<event>
 7    1  0.2842702E-009  0.7395305E+02  0.7561462E-02  0.1347144E+00
          1   -1    0    0  501    0  0.00000000000E+00  0.00000000000E+00  0.35257429533E+02  0.35257429533E+02  0.00000000000E+00 0. -1.
         -1   -1    0    0    0  501 -0.00000000000E+00 -0.00000000000E+00 -0.41652797027E+03  0.41652797027E+03  0.00000000000E+00 0.  1.
         25    2    1    2    0    0 -0.15489083818E+02 -0.94742196476E+01 -0.31075367533E+03  0.33547636239E+03  0.12508745116E+03 0.  0.
          5    1    3    3  502    0 -0.32730820909E+02  0.43209760497E+01 -0.31122383568E+03  0.31299796447E+03  0.41800000000E+01 0. -1.
         -5    1    3    3    0  502  0.17241737091E+02 -0.13795195697E+02  0.47016034585E+00  0.22478397919E+02  0.41800000000E+01 0. -1.
        -11    1    1    2    0    0 -0.34551073074E+02  0.21493494099E+02 -0.26220174292E+02  0.48407070548E+02  0.00000000000E+00 0. -1.
         11    1    1    2    0    0  0.50040156893E+02 -0.12019274451E+02 -0.44296691117E+02  0.67901966865E+02  0.00000000000E+00 0.  1.
</event>
<event>
 7    1  0.2842702E-009  0.8334059E+02  0.7561462E-02  0.1319830E+00
         -1   -1    0    0    0  501 -0.00000000000E+00  0.00000000000E+00  0.19192943615E+03  0.19192943615E+03  0.00000000000E+00 0.  1.
          1   -1    0    0  501    0  0.00000000000E+00 -0.00000000000E+00 -0.70117689223E+02  0.70117689223E+02  0.00000000000E+00 0. -1.
         25    2    1    2    0    0  0.82713328104E+00 -0.34392158473E+02  0.93769353426E+02  0.16007526211E+03  0.12509153921E+03 0.  0.
          5    1    3    3  502    0  0.17983614096E+02 -0.65563845733E+02  0.98419913955E+01  0.68821257166E+02  0.41800000000E+01 0.  1.
         -5    1    3    3    0  502 -0.17156480815E+02  0.31171687260E+02  0.83927362031E+02  0.91254004942E+02  0.41800000000E+01 0.  1.
        -11    1    1    2    0    0  0.19402139004E+02  0.37550792086E+02  0.54213748177E+02  0.68743257674E+02  0.00000000000E+00 0.  1.
         11    1    1    2    0    0 -0.20229272285E+02 -0.31586336128E+01 -0.26171354680E+02  0.33228605587E+02  0.00000000000E+00 0. -1.
</event>
<event>
 7    1  0.2842702E-009  0.9670972E+02  0.7561462E-02  0.1287371E+00
          2   -1    0    0  501    0  0.00000000000E+00  0.00000000000E+00  0.26174412697E+03  0.26174412697E+03  0.00000000000E+00 0. -1.
         -2   -1    0    0    0  501 -0.00000000000E+00 -0.00000000000E+00 -0.88521496369E+02  0.88521496369E+02  0.00000000000E+00 0.  1.
         25    2    1    2    0    0  0.17475147152E+02 -0.72326448478E+02  0.18101565447E+03  0.23227066115E+03  0.12508595825E+03 0.  0.
          5    1    3    3  502    0 -0.29519870267E+02 -0.19904520676E+02  0.15172616728E+03  0.15590354364E+03  0.41800000000E+01 0. -1.
         -5    1    3    3    0  502  0.46995017418E+02 -0.52421927802E+02  0.29289487194E+02  0.76367117510E+02  0.41800000000E+01 0. -1.
        -11    1    1    2    0    0  0.14937946362E+02  0.14880357372E+02 -0.39526691828E+02  0.44798734847E+02  0.00000000000E+00 0.  1.
         11    1    1    2    0    0 -0.32413093513E+02  0.57446091107E+02  0.31733667954E+02  0.73196227337E+02  0.00000000000E+00 0. -1.
</event>
<event>
 7    1  0.2842702E-009  0.9804099E+02  0.7561462E-02  0.1284470E+00
          2   -1    0    0  501    0  0.00000000000E+00  0.00000000000E+00  0.14649509151E+03  0.14649509151E+03  0.00000000000E+00 0. -1.
         -2   -1    0    0    0  501 -0.00000000000E+00 -0.00000000000E+00 -0.78999586545E+02  0.78999586545E+02  0.00000000000E+00 0.  1.
         25    2    1    2    0    0 -0.72355884933E+01  0.17634395857E+02  0.28227221228E+02  0.12964942298E+03  0.12509544837E+03 0.  0.
          5    1    3    3  502    0 -0.26525460600E+02  0.66592548590E+02  0.27408178200E+02  0.76856022666E+02  0.41800000000E+01 0. -1.
         -5    1    3    3    0  502  0.19289872107E+02 -0.48958152734E+02  0.81904302819E+00  0.52793400312E+02  0.41800000000E+01 0. -1.
        -11    1    1    2    0    0  0.37836612357E+02 -0.41897180716E+01 -0.70612768868E+01  0.38717239099E+02  0.00000000000E+00 0.  1.
         11    1    1    2    0    0 -0.30601023863E+02 -0.13444677785E+02  0.46329560627E+02  0.57128015983E+02  0.00000000000E+00 0. -1.
</event>
<event>
 7    1  0.2842702E-009  0.1046145E+03  0.7561462E-02  0.1270881E+00
         -4   -1    0    0    0  501 -0.00000000000E+00  0.00000000000E+00  0.49024076768E+03  0.49024076768E+03  0.00000000000E+00 0.  1.
          4   -1    0    0  501    0  0.00000000000E+00 -0.00000000000E+00 -0.31233828588E+02  0.31233828588E+02  0.00000000000E+00 0. -1.
         25    2    1    2    0    0  0.43358509005E+02 -0.41021660403E+02  0.27763648318E+03  0.31031189736E+03  0.12509484373E+03 0.  0.
          5    1    3    3  502    0 -0.27880807640E+02  0.98915127592E+01  0.14999052919E+02  0.33430905579E+02  0.41800000000E+01 0. -1.
         -5    1    3    3    0  502  0.71239316645E+02 -0.50913173163E+02  0.26263743026E+03  0.27688099178E+03  0.41800000000E+01 0. -1.
        -11    1    1    2    0    0  0.50306924604E+01 -0.16076317138E+02  0.96694029247E+02  0.98150349625E+02  0.00000000000E+00 0.  1.
         11    1    1    2    0    0 -0.48389201465E+02  0.57097977541E+02  0.84676426671E+02  0.11301234929E+03  0.00000000000E+00 0. -1.
</event>
<event>
 7    1  0.2842702E-009  0.1044995E+03  0.7561462E-02  0.1271109E+00
         -2   -1    0    0    0  501 -0.00000000000E+00  0.00000000000E+00  0.16852720066E+02  0.16852720066E+02  0.00000000000E+00 0.  1.
          2   -1    0    0  501    0  0.00000000000E+00 -0.00000000000E+00 -0.71477292089E+03  0.71477292089E+03  0.00000000000E+00 0. -1.
         25    2    1    2    0    0 -0.14161555977E+01  0.18955766673E+02 -0.36359003714E+03  0.38497692194E+03  0.12509272054E+03 0.  0.
          5    1    3    3  502    0  0.47986605840E+02  0.45670826779E+02 -0.24267607310E+03  0.25159031702E+03  0.41800000000E+01 0.  1.
         -5    1    3    3    0  502 -0.49402761438E+02 -0.26715060106E+02 -0.12091396403E+03  0.13338660492E+03  0.41800000000E+01 0.  1.
        -11    1    1    2    0    0  0.42125193054E+02 -0.19088705319E+01 -0.22180774779E+03  0.22578054092E+03  0.00000000000E+00 0. -1.
         11    1    1    2    0    0 -0.40709037456E+02 -0.17046896141E+02 -0.11252241590E+03  0.12086817810E+03  0.00000000000E+00 0.  1.
</event>
<event>
 7    1  0.2842702E-009  0.1172922E+03  0.7561462E-02  0.1247632E+00
         -1   -1    0    0    0  501 -0.00000000000E+00  0.00000000000E+00  0.14409789606E+03  0.14409789606E+03  0.00000000000E+00 0.  1.
          1   -1    0    0  501    0  0.00000000000E+00 -0.00000000000E+00 -0.13960601884E+03  0.13960601884E+03  0.00000000000E+00 0. -1.
         25    2    1    2    0    0 -0.76108962166E+02 -0.31645129683E+02  0.39110643220E+02  0.15482317681E+03  0.12508631144E+03 0.  0.
          5    1    3    3  502    0 -0.43981979130E+02  0.42036296702E+02  0.42386866222E+02  0.74266974873E+02  0.41800000000E+01 0. -1.
         -5    1    3    3    0  502 -0.32126983036E+02 -0.73681426385E+02 -0.32762230028E+01  0.80556201935E+02  0.41800000000E+01 0. -1.
        -11    1    1    2    0    0  0.90953749448E+01 -0.10543060818E+02  0.25772050974E+02  0.29293012617E+02  0.00000000000E+00 0.  1.
         11    1    1    2    0    0  0.67013587221E+02  0.42188190501E+02 -0.60390816976E+02  0.99587725474E+02  0.00000000000E+00 0. -1.
</event>
<event>
 7    1  0.2842702E-009  0.1283722E+03  0.7561462E-02  0.1229891E+00
          2   -1    0    0  501    0  0.00000000000E+00  0.00000000000E+00  0.12501323309E+04  0.12501323309E+04  0.00000000000E+00 0. -1.
         -2   -1    0    0    0  501 -0.00000000000E+00 -0.00000000000E+00 -0.22694888106E+02  0.22694888106E+02  0.00000000000E+00 0.  1.
         25    2    1    2    0    0  0.74161011099E+02 -0.75881059006E+02  0.40014194873E+03  0.43245720383E+03  0.12509141987E+03 0.  0.
          5    1    3    3  502    0  0.39882836732E+02 -0.57487548867E+02  0.38364634591E+03  0.38999673085E+03  0.41800000000E+01 0.  1.
         -5    1    3    3    0  502  0.34278174367E+02 -0.18393510139E+02  0.16495602818E+02  0.42460472978E+02  0.41800000000E+01 0.  1.
        -11    1    1    2    0    0 -0.40901350977E+02 -0.20368695047E+02  0.23992050118E+03  0.24423278063E+03  0.00000000000E+00 0. -1.
         11    1    1    2    0    0 -0.33259660121E+02  0.96249754053E+02  0.58737499284E+03  0.59613723450E+03  0.00000000000E+00 0.  1.
</event>
<event>
 7    1  0.2842702E-009  0.1203014E+03  0.7561462E-02  0.1242601E+00
         -1   -1    0    0    0  501 -0.00000000000E+00  0.00000000000E+00  0.13632525564E+03  0.13632525564E+03  0.00000000000E+00 0.  1.
          1   -1    0    0  501    0  0.00000000000E+00 -0.00000000000E+00 -0.13584826280E+03  0.13584826280E+03  0.00000000000E+00 0. -1.
         25    2    1    2    0    0  0.39587735657E+01  0.61242341508E+02 -0.52569238258E+02  0.14892563621E+03  0.12509605921E+03 0.  0.
          5    1    3    3  502    0  0.52342216494E+02 -0.93850976657E+01 -0.24822085051E+02  0.58833629771E+02  0.41800000000E+01 0.  1.
         -5    1    3    3    0  502 -0.48383442929E+02  0.70627439174E+02 -0.27747153207E+02  0.90092006443E+02  0.41800000000E+01 0.  1.
        -11    1    1    2    0    0  0.35301259645E+02 -0.94236133606E+01  0.44653242612E+02  0.57696581329E+02  0.00000000000E+00 0.  1.
         11    1    1    2    0    0 -0.39260033211E+02 -0.51818728148E+02  0.83929884860E+01  0.65551300905E+02  0.00000000000E+00 0. -1.
</event>
<event>
 7    1  0.2842702E-009  0.1625369E+03  0.7561462E-02  0.1185862E+00
          2   -1    0    0  501    0  0.00000000000E+00  0.00000000000E+00  0.84174795259E+03  0.84174795259E+03  0.00000000000E+00 0. -1.
         -2   -1    0    0    0  501 -0.00000000000E+00 -0.00000000000E+00 -0.43333432807E+02  0.43333432807E+02  0.00000000000E+00 0.  1.
         25    2    1    2    0    0 -0.86236927852E+02 -0.84599693238E+02  0.64736885382E+03  0.67031879147E+03  0.12508770319E+03 0.  0.
          5    1    3    3  502    0 -0.61784032133E+02 -0.11674775819E+03  0.52551341391E+03  0.54187556346E+03  0.41800000000E+01 0. -1.
         -5    1    3    3    0  502 -0.24452895719E+02  0.32148064954E+02  0.12185543990E+03  0.12844322802E+03  0.41800000000E+01 0. -1.
        -11    1    1    2    0    0 -0.51302096080E+01  0.56485204159E+02  0.63439292997E+02  0.85096658192E+02  0.00000000000E+00 0. -1.
         11    1    1    2    0    0  0.91367137460E+02  0.28114489079E+02  0.87606372966E+02  0.12966593573E+03  0.00000000000E+00 0.  1.
</event>
<event>
 7    1  0.2842702E-009  0.3222752E+03  0.7561462E-02  0.1074607E+00
          2   -1    0    0  501    0  0.00000000000E+00  0.00000000000E+00  0.10038432382E+04  0.10038432382E+04  0.00000000000E+00 0. -1.
         -2   -1    0    0    0  501 -0.00000000000E+00 -0.00000000000E+00 -0.11306279741E+03  0.11306279741E+03  0.00000000000E+00 0.  1.
         25    2    1    2    0    0 -0.12888940308E+02 -0.30449603248E+03  0.60539376234E+03  0.68922496457E+03  0.12508191604E+03 0.  0.
          5    1    3    3  502    0  0.53431950050E+02 -0.97250818006E+02  0.22708911166E+03  0.25278376515E+03  0.41800000000E+01 0. -1.
         -5    1    3    3    0  502 -0.66320890358E+02 -0.20724521447E+03  0.37830465068E+03  0.43644119942E+03  0.41800000000E+01 0. -1.
        -11    1    1    2    0    0 -0.35105077197E+02  0.15196139094E+03  0.11333495640E+03  0.19279378394E+03  0.00000000000E+00 0.  1.
         11    1    1    2    0    0  0.47994017504E+02  0.15253464154E+03  0.17205172206E+03  0.23488728712E+03  0.00000000000E+00 0. -1.
</event>
<event>
 7    1  0.2842702E-009  0.1007804E+03  0.7561462E-02  0.1278663E+00
          2   -1    0    0  501    0  0.00000000000E+00  0.00000000000E+00  0.44564526347E+03  0.44564526347E+03  0.00000000000E+00 0. -1.
         -2   -1    0    0    0  501 -0.00000000000E+00 -0.00000000000E+00 -0.77205921070E+02  0.77205921070E+02  0.00000000000E+00 0.  1.
         25    2    1    2    0    0  0.23688560018E+02 -0.96345216672E+02  0.40980174861E+02  0.16483417168E+03  0.12508949105E+03 0.  0.
          5    1    3    3  502    0  0.22035366505E+02 -0.44613210470E+02 -0.43133069194E+02  0.65983558434E+02  0.41800000000E+01 0. -1.
         -5    1    3    3    0  502  0.16531935126E+01 -0.51732006202E+02  0.84113244055E+02  0.98850613251E+02  0.41800000000E+01 0. -1.
        -11    1    1    2    0    0 -0.33054685030E+01  0.32794603536E+02  0.11229028365E+02  0.34821016945E+02  0.00000000000E+00 0.  1.
         11    1    1    2    0    0 -0.20383091515E+02  0.63550613137E+02  0.31623013917E+03  0.32319599591E+03  0.00000000000E+00 0. -1.
</event>
<event>
 7    1  0.2842702E-009  0.1707294E+03  0.7561462E-02  0.1177089E+00
         -2   -1    0    0    0  501 -0.00000000000E+00  0.00000000000E+00  0.71603778227E+02  0.71603778227E+02  0.00000000000E+00 0. -1.
          2   -1    0    0  501    0  0.00000000000E+00 -0.00000000000E+00 -0.64411570021E+03  0.64411570021E+03  0.00000000000E+00 0.  1.
         25    2    1    2    0    0  0.14640598766E+02  0.14115500155E+03 -0.99882282063E+02  0.21392527326E+03  0.12509384746E+03 0.  0.
          5    1    3    3  502    0 -0.47472842086E+02  0.10030172484E+03 -0.79973980529E+02  0.13684815199E+03  0.41800000000E+01 0. -1.
         -5    1    3    3    0  502  0.62113440852E+02  0.40853276716E+02 -0.19908301534E+02  0.77077121267E+02  0.41800000000E+01 0. -1.
        -11    1    1    2    0    0  0.25562621034E+02 -0.45493983775E+02 -0.78713764179E+02  0.94440493566E+02  0.00000000000E+00 0. -1.
         11    1    1    2    0    0 -0.40203219799E+02 -0.95661017779E+02 -0.39391587574E+03  0.40735371161E+03  0.00000000000E+00 0.  1.
</event>
<event>
 7    1  0.2842702E-009  0.1082098E+03  0.7561462E-02  0.1263921E+00
         -2   -1    0    0    0  501 -0.00000000000E+00  0.00000000000E+00  0.71671155241E+02  0.71671155241E+02  0.00000000000E+00 0.  1.
          2   -1    0    0  501    0  0.00000000000E+00 -0.00000000000E+00 -0.22347105199E+03  0.22347105199E+03  0.00000000000E+00 0. -1.
         25    2    1    2    0    0  0.59890540402E+02  0.32849762010E+01 -0.96783590523E+02  0.16915030277E+03  0.12508834332E+03 0.  0.
          5    1    3    3  502    0  0.62797682557E+02 -0.49564487767E+02 -0.34270622892E+02  0.87132860480E+02  0.41800000000E+01 0. -1.
         -5    1    3    3    0  502 -0.29071421550E+01  0.52849463968E+02 -0.62512967631E+02  0.82017442287E+02  0.41800000000E+01 0. -1.
        -11    1    1    2    0    0 -0.48783001579E+02 -0.27908655771E+02 -0.74038301120E+02  0.92953452559E+02  0.00000000000E+00 0. -1.
         11    1    1    2    0    0 -0.11107538823E+02  0.24623679570E+02  0.19021994896E+02  0.33038451902E+02  0.00000000000E+00 0.  1.
</event>
<event>
 7    1  0.2842702E-009  0.9652752E+02  0.7561462E-02  0.1287772E+00
         -1   -1    0    0    0  501 -0.00000000000E+00  0.00000000000E+00  0.11078416119E+02  0.11078416119E+02  0.00000000000E+00 0.  1.
          1   -1    0    0  501    0  0.00000000000E+00 -0.00000000000E+00 -0.12291801593E+04  0.12291801593E+04  0.00000000000E+00 0. -1.
         25    2    1    2    0    0  0.10225434335E+02  0.10834278645E+01 -0.91522874186E+03  0.92379496909E+03  0.12509101358E+03 0.  0.
          5    1    3    3  502    0  0.29628590466E+02  0.50550923701E+02 -0.26735530851E+03  0.27373268466E+03  0.41800000000E+01 0. -1.
         -5    1    3    3    0  502 -0.19403156131E+02 -0.49467495837E+02 -0.64787343334E+03  0.65006228443E+03  0.41800000000E+01 0. -1.
        -11    1    1    2    0    0 -0.35596457351E+02  0.25863340954E+02 -0.87570565925E+02  0.98003184630E+02  0.00000000000E+00 0.  1.
         11    1    1    2    0    0  0.25371023016E+02 -0.26946768819E+02 -0.21530243541E+03  0.21846042171E+03  0.00000000000E+00 0. -1.
</event>
<event>
 7    1  0.2842702E-009  0.1053968E+03  0.7561462E-02  0.1269340E+00
          2   -1    0    0  501    0  0.00000000000E+00  0.00000000000E+00  0.21120498497E+03  0.21120498497E+03  0.00000000000E+00 0. -1.
         -2   -1    0    0    0  501 -0.00000000000E+00 -0.00000000000E+00 -0.74040054597E+02  0.74040054597E+02  0.00000000000E+00 0.  1.
         25    2    1    2    0    0 -0.50564314704E+02 -0.20768571829E+02  0.11304591960E+03  0.17724290617E+03  0.12509030479E+03 0.  0.
          5    1    3    3  502    0 -0.76988670890E+02  0.15134328661E+02  0.10595598093E+03  0.13191074878E+03  0.41800000000E+01 0.  1.
         -5    1    3    3    0  502  0.26424356185E+02 -0.35902900490E+02  0.70899386739E+01  0.45332157392E+02  0.41800000000E+01 0.  1.
        -11    1    1    2    0    0  0.44743461486E+02 -0.18010557025E+02 -0.17039641781E+02  0.51153757458E+02  0.00000000000E+00 0.  1.
         11    1    1    2    0    0  0.58208532188E+01  0.38779128853E+02  0.41158652555E+02  0.56848375939E+02  0.00000000000E+00 0. -1.
</event>
<event>
 7    1  0.2842702E-009  0.9192536E+02  0.7561462E-02  0.1298255E+00
         -3   -1    0    0    0  501 -0.00000000000E+00  0.00000000000E+00  0.45538855303E+02  0.45538855303E+02  0.00000000000E+00 0.  1.
          3   -1    0    0  501    0  0.00000000000E+00 -0.00000000000E+00 -0.27288478055E+03  0.27288478055E+03  0.00000000000E+00 0. -1.
         25    2    1    2    0    0  0.38297644721E+01 -0.12963034819E+02 -0.10297178144E+03  0.16258535180E+03  0.12509237179E+03 0.  0.
          5    1    3    3  502    0 -0.23491085946E+02  0.48692982588E+02 -0.25910037877E+02  0.60096922842E+02  0.41800000000E+01 0. -1.
         -5    1    3    3    0  502  0.27320850418E+02 -0.61656017408E+02 -0.77061743563E+02  0.10248842896E+03  0.41800000000E+01 0. -1.
        -11    1    1    2    0    0 -0.24337184146E+02 -0.14082018056E+02 -0.11800026848E+03  0.12130401942E+03  0.00000000000E+00 0. -1.
         11    1    1    2    0    0  0.20507419674E+02  0.27045052875E+02 -0.63738753180E+01  0.34534264626E+02  0.00000000000E+00 0.  1.
</event>
<event>
 7    1  0.2842702E-009  0.1007237E+03  0.7561462E-02  0.1278781E+00
         -2   -1    0    0    0  501 -0.00000000000E+00  0.00000000000E+00  0.22655505658E+02  0.22655505658E+02  0.00000000000E+00 0.  1.
          2   -1    0    0  501    0  0.00000000000E+00 -0.00000000000E+00 -0.54684408681E+03  0.54684408681E+03  0.00000000000E+00 0. -1.
         25    2    1    2    0    0  0.20551898463E+02  0.21026221830E+02 -0.30271264712E+03  0.32885707315E+03  0.12509014869E+03 0.  0.
          5    1    3    3  502    0  0.18367796813E+02 -0.49590686547E+02 -0.17477443216E+03  0.18264771197E+03  0.41800000000E+01 0.  1.
         -5    1    3    3    0  502  0.21841016496E+01  0.70616908377E+02 -0.12793821496E+03  0.14620936118E+03  0.41800000000E+01 0.  1.
        -11    1    1    2    0    0 -0.44213279656E+02 -0.28745809811E+02 -0.72780167897E+02  0.89878187113E+02  0.00000000000E+00 0.  1.
         11    1    1    2    0    0  0.23661381193E+02  0.77195879816E+01 -0.14869576613E+03  0.15076433220E+03  0.00000000000E+00 0. -1.
</event>
<event>
 7    1  0.2842702E-009  0.9819171E+02  0.7561462E-02  0.1284145E+00
          1   -1    0    0  501    0  0.00000000000E+00  0.00000000000E+00  0.76551043610E+03  0.76551043610E+03  0.00000000000E+00 0. -1.
         -1   -1    0    0    0  501 -0.00000000000E+00 -0.00000000000E+00 -0.22000143338E+02  0.22000143338E+02  0.00000000000E+00 0.  1.
         25    2    1    2    0    0 -0.34624665932E+02 -0.60870910356E+02  0.44113547348E+03  0.46384473548E+03  0.12508915801E+03 0.  0.
          5    1    3    3  502    0  0.10691146652E+02 -0.34169940799E+02  0.23817616694E+02  0.43204591607E+02  0.41800000000E+01 0. -1.
         -5    1    3    3    0  502 -0.45315812584E+02 -0.26700969557E+02  0.41731785678E+03  0.42064014387E+03  0.41800000000E+01 0. -1.
        -11    1    1    2    0    0  0.25600320098E+02 -0.15990781042E+02  0.39969161748E+02  0.50086079486E+02  0.00000000000E+00 0.  1.
         11    1    1    2    0    0  0.90243458339E+01  0.76861691398E+02  0.26240565753E+03  0.27357976447E+03  0.00000000000E+00 0. -1.
</event>
<event>
 7    1  0.2842702E-009  0.1678369E+03  0.7561462E-02  0.1180123E+00
          2   -1    0    0  501    0  0.00000000000E+00  0.00000000000E+00  0.50253197538E+03  0.50253197538E+03  0.00000000000E+00 0. -1.
         -2   -1    0    0    0  501 -0.00000000000E+00 -0.00000000000E+00 -0.13736395429E+03  0.13736395429E+03  0.00000000000E+00 0.  1.
         25    2    1    2    0    0  0.13766779559E+03 -0.18286622074E+02  0.42437323254E+03  0.46370913575E+03  0.12508676825E+03 0.  0.
          5    1    3    3  502    0 -0.21769062466E+02  0.87605462573E+01  0.75115852632E+02  0.78806744432E+02  0.41800000000E+01 0.  1.
         -5    1    3    3    0  502  0.15943685806E+03 -0.27047168332E+02  0.34925737991E+03  0.38490239132E+03  0.41800000000E+01 0.  1.
        -11    1    1    2    0    0 -0.58536996645E+02 -0.20398281809E+02 -0.62522163586E+02  0.88043686977E+02  0.00000000000E+00 0.  1.
         11    1    1    2    0    0 -0.79130798944E+02  0.38684903883E+02  0.33169521344E+01  0.88143106943E+02  0.00000000000E+00 0. -1.
</event>
<event>
 7    1  0.2842702E-009  0.8090716E+02  0.7561462E-02  0.1326497E+00
          1   -1    0    0  501    0  0.00000000000E+00  0.00000000000E+00  0.41680364955E+02  0.41680364955E+02  0.00000000000E+00 0. -1.
         -1   -1    0    0    0  501 -0.00000000000E+00 -0.00000000000E+00 -0.41640349378E+03  0.41640349378E+03  0.00000000000E+00 0.  1.
         25    2    1    2    0    0 -0.30704635280E+02  0.92799553579E+01 -0.32404269310E+03  0.34882625649E+03  0.12508876075E+03 0.  0.
          5    1    3    3  502    0 -0.49145884798E+02  0.48992856666E+01 -0.38858626272E+02  0.62982427933E+02  0.41800000000E+01 0.  1.
         -5    1    3    3    0  502  0.18441249518E+02  0.43806696913E+01 -0.28518406683E+03  0.28584382856E+03  0.41800000000E+01 0.  1.
        -11    1    1    2    0    0 -0.18729841180E+01 -0.44685930734E+02 -0.90449939314E+01  0.45630608042E+02  0.00000000000E+00 0. -1.
         11    1    1    2    0    0  0.32577619398E+02  0.35405975376E+02 -0.41635441790E+02  0.63626994201E+02  0.00000000000E+00 0.  1.
</event>
<event>
 7    1  0.2842702E-009  0.1177840E+03  0.7561462E-02  0.1246798E+00
          2   -1    0    0  501    0  0.00000000000E+00  0.00000000000E+00  0.20801298684E+03  0.20801298684E+03  0.00000000000E+00 0. -1.
         -2   -1    0    0    0  501 -0.00000000000E+00 -0.00000000000E+00 -0.16205885946E+03  0.16205885946E+03  0.00000000000E+00 0.  1.
         25    2    1    2    0    0 -0.47492280836E+02  0.15489794646E+02  0.16439282018E+03  0.21252779421E+03  0.12509042133E+03 0.  0.
          5    1    3    3  502    0  0.37301091840E+02  0.26910956951E+02  0.79405962271E+02  0.91860493689E+02  0.41800000000E+01 0. -1.
         -5    1    3    3    0  502 -0.84793372676E+02 -0.11421162305E+02  0.84986857907E+02  0.12066730052E+03  0.41800000000E+01 0. -1.
        -11    1    1    2    0    0  0.87638905704E+01 -0.50656843706E+02 -0.63136685467E+02  0.81419669883E+02  0.00000000000E+00 0. -1.
         11    1    1    2    0    0  0.38728390266E+02  0.35167049060E+02 -0.55302007326E+02  0.76124382207E+02  0.00000000000E+00 0.  1.
</event>
<event>
 6    1  0.2842702E-009  0.1149233E+03  0.7561462E-02  0.1251715E+00
         -3   -1    0    0    0  501 -0.00000000000E+00  0.00000000000E+00  0.32158778882E+02  0.32158778882E+02  0.00000000000E+00 0.  1.
          3   -1    0    0  501    0  0.00000000000E+00 -0.00000000000E+00 -0.47967847838E+03  0.47967847838E+03  0.00000000000E+00 0. -1.
          5    1    1    2  502    0  0.72533043405E+02 -0.48416549488E+01 -0.12302393031E+03  0.14295748962E+03  0.41800000000E+01 0.  1.
         -5    1    1    2    0  502 -0.44815958926E+02 -0.33065091817E+02 -0.45290535315E+02  0.71906018249E+02  0.41800000000E+01 0.  1.
        -11    1    1    2    0    0  0.26339003316E+02  0.39063236479E+02 -0.12964304627E+03  0.13793838837E+03  0.00000000000E+00 0.  1.
         11    1    1    2    0    0 -0.54056087796E+02 -0.11564897134E+01 -0.14956218760E+03  0.15903536102E+03  0.00000000000E+00 0. -1.
</event>
<event>
 7    1  0.2842702E-009  0.1106172E+03  0.7561462E-02  0.1259431E+00
          1   -1    0    0  501    0  0.00000000000E+00  0.00000000000E+00  0.15221589716E+03  0.15221589716E+03  0.00000000000E+00 0. -1.
         -1   -1    0    0    0  501 -0.00000000000E+00 -0.00000000000E+00 -0.92771673890E+02  0.92771673890E+02  0.00000000000E+00 0.  1.
         25    2    1    2    0    0  0.24235886320E+02 -0.20373807665E+02 -0.52978146938E+01  0.12914358673E+03  0.12509008325E+03 0.  0.
          5    1    3    3  502    0  0.44700393698E+02 -0.63204572627E+02 -0.18485215071E+02  0.79700180514E+02  0.41800000000E+01 0.  1.
         -5    1    3    3    0  502 -0.20464507379E+02  0.42830764961E+02  0.13187400377E+02  0.49443406215E+02  0.41800000000E+01 0.  1.
        -11    1    1    2    0    0  0.11213937580E+02 -0.31380506533E+02  0.23211712933E+02  0.40611232481E+02  0.00000000000E+00 0.  1.
         11    1    1    2    0    0 -0.35449823900E+02  0.51754314199E+02  0.41530325035E+02  0.75232751845E+02  0.00000000000E+00 0. -1.
</event>
<event>
 7    1  0.6396012E-009  0.1161603E+03  0.7561462E-02  0.1249569E+00
         -2   -1    0    0    0  501 -0.00000000000E+00  0.00000000000E+00  0.34307430508E+02  0.34307430508E+02  0.00000000000E+00 0.  1.
          2   -1    0    0  501    0  0.00000000000E+00 -0.00000000000E+00 -0.46754035574E+03  0.46754035574E+03  0.00000000000E+00 0. -1.
         25    2    1    2    0    0 -0.47676425610E+01  0.58823358339E+02 -0.29401861193E+03  0.32492681298E+03  0.12509025435E+03 0.  0.
          5    1    3    3  502    0 -0.41443362513E+02 -0.23601933683E+02 -0.95397995952E+02  0.10673731120E+03  0.41800000000E+01 0. -1.
         -5    1    3    3    0  502  0.36675719952E+02  0.82425292022E+02 -0.19862061598E+03  0.21818950179E+03  0.41800000000E+01 0. -1.
        -11    1    1    2    0    0  0.38248147736E+02 -0.41491165325E+02 -0.35750149266E+02  0.66802026750E+02  0.00000000000E+00 0.  1.
         11    1    1    2    0    0 -0.33480505175E+02 -0.17332193014E+02 -0.10346416404E+03  0.11011894651E+03  0.00000000000E+00 0. -1.
</event>
<event>
 7    1  0.2842702E-009  0.1083894E+03  0.7561462E-02  0.1263582E+00
          1   -1    0    0  501    0  0.00000000000E+00  0.00000000000E+00  0.24492562159E+03  0.24492562159E+03  0.00000000000E+00 0. -1.
         -1   -1    0    0    0  501 -0.00000000000E+00 -0.00000000000E+00 -0.83633258856E+02  0.83633258856E+02  0.00000000000E+00 0.  1.
         25    2    1    2    0    0 -0.62977485567E+02  0.54555079717E+01  0.96937785844E+01  0.14048820688E+03  0.12508813162E+03 0.  0.
          5    1    3    3  502    0  0.20557625168E+02 -0.72310301764E+01  0.43938424927E+02  0.49223585151E+02  0.41800000000E+01 0. -1.
         -5    1    3    3    0  502 -0.83535110735E+02  0.12686538148E+02 -0.34244646343E+02  0.91264621727E+02  0.41800000000E+01 0. -1.
        -11    1    1    2    0    0  0.76018606288E+02  0.22387968117E+02  0.12138943420E+03  0.14496704575E+03  0.00000000000E+00 0. -1.
         11    1    1    2    0    0 -0.13041120721E+02 -0.27843476088E+02  0.30209149943E+02  0.43103627812E+02  0.00000000000E+00 0.  1.
</event>
<event>
 7    1  0.2842702E-009  0.1150589E+03  0.7561462E-02  0.1251478E+00
          1   -1    0    0  501    0  0.00000000000E+00  0.00000000000E+00  0.18069682345E+03  0.18069682345E+03  0.00000000000E+00 0. -1.
         -1   -1    0    0    0  501 -0.00000000000E+00 -0.00000000000E+00 -0.73468513581E+02  0.73468513581E+02  0.00000000000E+00 0.  1.
         25    2    1    2    0    0 -0.35989823216E+02  0.16476815572E+02  0.64244731067E+02  0.14608828125E+03  0.12509055769E+03 0.  0.
          5    1    3    3  502    0 -0.81945944739E+02  0.28847606038E+00  0.35882353349E+02  0.89555774574E+02  0.41800000000E+01 0.  1.
         -5    1    3    3    0  502  0.45956121523E+02  0.16188339512E+02  0.28362377718E+02  0.56532506679E+02  0.41800000000E+01 0.  1.
        -11    1    1    2    0    0 -0.24570350639E+02  0.17082142658E+02  0.13012626114E+02  0.32631735576E+02  0.00000000000E+00 0.  1.
         11    1    1    2    0    0  0.60560173856E+02 -0.33558958230E+02  0.29970952684E+02  0.75445320198E+02  0.00000000000E+00 0. -1.
</event>
<event>
 7    1  0.2842702E-009  0.2158590E+03  0.7561462E-02  0.1137009E+00
          1   -1    0    0  501    0  0.00000000000E+00  0.00000000000E+00  0.24302469562E+03  0.24302469562E+03  0.00000000000E+00 0.  1.
         -1   -1    0    0    0  501 -0.00000000000E+00 -0.00000000000E+00 -0.19735364746E+03  0.19735364746E+03  0.00000000000E+00 0. -1.
         25    2    1    2    0    0 -0.24039965051E+02 -0.18586861429E+03  0.52307286412E+02  0.23131801466E+03  0.12508760929E+03 0.  0.
          5    1    3    3  502    0  0.33627936951E+02 -0.15375141380E+03  0.49800590473E+02  0.16512996881E+03  0.41800000000E+01 0. -1.
         -5    1    3    3    0  502 -0.57667902002E+02 -0.32117200494E+02  0.25066959396E+01  0.66188045850E+02  0.41800000000E+01 0. -1.
        -11    1    1    2    0    0 -0.29745416944E+02  0.26154583153E+02  0.59972726220E+01  0.40060196305E+02  0.00000000000E+00 0.  1.
         11    1    1    2    0    0  0.53785381994E+02  0.15971403114E+03 -0.12633510873E+02  0.16900013212E+03  0.00000000000E+00 0. -1.
</event>
<event>
 7    1  0.2842702E-009  0.8092518E+02  0.7561462E-02  0.1326446E+00
         -1   -1    0    0    0  501 -0.00000000000E+00  0.00000000000E+00  0.31594425012E+02  0.31594425012E+02  0.00000000000E+00 0.  1.
          1   -1    0    0  501    0  0.00000000000E+00 -0.00000000000E+00 -0.53450410040E+03  0.53450410040E+03  0.00000000000E+00 0. -1.
         25    2    1    2    0    0 -0.26753776099E+01  0.20070319691E+02 -0.12783055433E+03  0.17999457263E+03  0.12508964856E+03 0.  0.
          5    1    3    3  502    0 -0.29777621409E+02 -0.94174798916E+01 -0.13540254484E+03  0.13902056399E+03  0.41800000000E+01 0. -1.
         -5    1    3    3    0  502  0.27102243799E+02  0.29487799583E+02  0.75719905105E+01  0.40974008634E+02  0.41800000000E+01 0. -1.
        -11    1    1    2    0    0  0.36639429781E+02 -0.37044176064E+02 -0.25076181654E+03  0.25611756564E+03  0.00000000000E+00 0. -1.
         11    1    1    2    0    0 -0.33964052171E+02  0.16973856373E+02 -0.12431730452E+03  0.12998638715E+03  0.00000000000E+00 0.  1.
</event>
<event>
 7    1  0.2842702E-009  0.1103475E+03  0.7561462E-02  0.1259928E+00
          1   -1    0    0  501    0  0.00000000000E+00  0.00000000000E+00  0.45932212789E+03  0.45932212789E+03  0.00000000000E+00 0. -1.
         -1   -1    0    0    0  501 -0.00000000000E+00 -0.00000000000E+00 -0.35228729694E+02  0.35228729694E+02  0.00000000000E+00 0.  1.
         25    2    1    2    0    0 -0.40272435436E+02  0.41486049239E+02  0.22948029656E+03  0.26767910976E+03  0.12509171816E+03 0.  0.
          5    1    3    3  502    0  0.44488971014E+02  0.13062401016E+02  0.59211211908E+02  0.75321543251E+02  0.41800000000E+01 0. -1.
         -5    1    3    3    0  502 -0.84761406450E+02  0.28423648224E+02  0.17026908466E+03  0.19235756650E+03  0.41800000000E+01 0. -1.
        -11    1    1    2    0    0  0.20105144910E+02  0.14726372595E+02  0.17601467611E+01  0.24983614996E+02  0.00000000000E+00 0.  1.
         11    1    1    2    0    0  0.20167290526E+02 -0.56212421834E+02  0.19285295487E+03  0.20188813283E+03  0.00000000000E+00 0. -1.
</event>
<event>
 7    1  0.2842702E-009  0.1277220E+03  0.7561462E-02  0.1230876E+00
          2   -1    0    0  501    0  0.00000000000E+00  0.00000000000E+00  0.88152779149E+03  0.88152779149E+03  0.00000000000E+00 0. -1.
         -2   -1    0    0    0  501 -0.00000000000E+00 -0.00000000000E+00 -0.25518129403E+02  0.25518129403E+02  0.00000000000E+00 0.  1.
         25    2    1    2    0    0 -0.58716564684E+02 -0.70428985093E+02  0.49414416714E+03  0.51791233968E+03  0.12508739649E+03 0.  0.
          5    1    3    3  502    0 -0.83762517925E+01  0.33703107703E+02  0.17422180683E+03  0.17769854090E+03  0.41800000000E+01 0.  1.
         -5    1    3    3    0  502 -0.50340312892E+02 -0.10413209280E+03  0.31992236031E+03  0.34021379877E+03  0.41800000000E+01 0.  1.
        -11    1    1    2    0    0  0.44325246665E+02  0.13986851691E+02  0.37899251225E+02  0.59972600040E+02  0.00000000000E+00 0.  1.
         11    1    1    2    0    0  0.14391318020E+02  0.56442133401E+02  0.32396624372E+03  0.32916098117E+03  0.00000000000E+00 0. -1.
</event>
<event>
 7    1  0.2842702E-009  0.2159544E+03  0.7561462E-02  0.1136936E+00
         -2   -1    0    0    0  501 -0.00000000000E+00  0.00000000000E+00  0.54009581108E+02  0.54009581108E+02  0.00000000000E+00 0.  1.
          2   -1    0    0  501    0  0.00000000000E+00 -0.00000000000E+00 -0.13215096597E+04  0.13215096597E+04  0.00000000000E+00 0. -1.
         25    2    1    2    0    0 -0.19909011542E+03  0.26598495159E+02 -0.29288627184E+03  0.37653042532E+03  0.12509372069E+03 0.  0.
          5    1    3    3  502    0 -0.15612026484E+03 -0.23322744182E+02 -0.14415187244E+03  0.21381001431E+03  0.41800000000E+01 0. -1.
         -5    1    3    3    0  502 -0.42969850582E+02  0.49921239342E+02 -0.14873439940E+03  0.16272041101E+03  0.41800000000E+01 0. -1.
        -11    1    1    2    0    0  0.14955908396E+03  0.43023105231E+01 -0.82366166746E+03  0.83714095104E+03  0.00000000000E+00 0. -1.
         11    1    1    2    0    0  0.49531031458E+02 -0.30900805682E+02 -0.15095213930E+03  0.16184786445E+03  0.00000000000E+00 0.  1.
</event>
<event>
 7    1  0.2842702E-009  0.1466687E+03  0.7561462E-02  0.1204627E+00
         -2   -1    0    0    0  501 -0.00000000000E+00  0.00000000000E+00  0.74684296754E+02  0.74684296754E+02  0.00000000000E+00 0. -1.
          2   -1    0    0  501    0  0.00000000000E+00 -0.00000000000E+00 -0.35335847749E+03  0.35335847749E+03  0.00000000000E+00 0.  1.
         25    2    1    2    0    0 -0.25682766742E+02  0.11215145555E+03 -0.19062359856E+03  0.25539184856E+03  0.12510030574E+03 0.  0.
          5    1    3    3  502    0 -0.64767028595E+02  0.79651377968E+02 -0.17340894601E+03  0.20156201270E+03  0.41800000000E+01 0.  1.
         -5    1    3    3    0  502  0.39084261853E+02  0.32500077580E+02 -0.17214652545E+02  0.53829835868E+02  0.41800000000E+01 0.  1.
        -11    1    1    2    0    0  0.47207874458E+02 -0.33090492385E+02 -0.66330394955E+02  0.87882224551E+02  0.00000000000E+00 0.  1.
         11    1    1    2    0    0 -0.21525107716E+02 -0.79060963164E+02 -0.21720187228E+02  0.84768701133E+02  0.00000000000E+00 0. -1.
</event>
<event>
 7    1  0.2842702E-009  0.1967805E+03  0.7561462E-02  0.1152484E+00
          2   -1    0    0  501    0  0.00000000000E+00  0.00000000000E+00  0.46903089552E+02  0.46903089552E+02  0.00000000000E+00 0.  1.
         -2   -1    0    0    0  501 -0.00000000000E+00 -0.00000000000E+00 -0.11037511829E+04  0.11037511829E+04  0.00000000000E+00 0. -1.
         25    2    1    2    0    0  0.17738806243E+03 -0.61970551851E+02 -0.71884448995E+03  0.75345325617E+03  0.12509010556E+03 0.  0.
          5    1    3    3  502    0  0.15767684935E+02 -0.23131639878E+01 -0.30122089245E+03  0.30167112733E+03  0.41800000000E+01 0.  1.
         -5    1    3    3    0  502  0.16162037749E+03 -0.59657387863E+02 -0.41762359750E+03  0.45178212884E+03  0.41800000000E+01 0.  1.
        -11    1    1    2    0    0 -0.98504235904E+02 -0.86438730677E+01 -0.12541792419E+03  0.15971054048E+03  0.00000000000E+00 0.  1.
         11    1    1    2    0    0 -0.78883826524E+02  0.70614424919E+02 -0.21258567922E+03  0.23749047581E+03  0.00000000000E+00 0. -1.
</event>
<event>
 7    1  0.2842702E-009  0.1471904E+03  0.7561462E-02  0.1203968E+00
          1   -1    0    0  501    0  0.00000000000E+00  0.00000000000E+00  0.26395773163E+03  0.26395773163E+03  0.00000000000E+00 0. -1.
         -1   -1    0    0    0  501 -0.00000000000E+00 -0.00000000000E+00 -0.11328786218E+03  0.11328786218E+03  0.00000000000E+00 0.  1.
         25    2    1    2    0    0 -0.57582223673E+02  0.10591055972E+03  0.13554476442E+02  0.17425323046E+03  0.12509078843E+03 0.  0.
          5    1    3    3  502    0 -0.69172671103E+02  0.23874107685E+02  0.44460513305E+02  0.85726548330E+02  0.41800000000E+01 0.  1.
         -5    1    3    3    0  502  0.11590447430E+02  0.82036452034E+02 -0.30906036863E+02  0.88526682128E+02  0.41800000000E+01 0.  1.
        -11    1    1    2    0    0 -0.60500848365E+01 -0.58408634141E+02  0.21085479247E+02  0.62392062827E+02  0.00000000000E+00 0.  1.
         11    1    1    2    0    0  0.63632308510E+02 -0.47501925578E+02  0.11602991376E+03  0.14060030052E+03  0.00000000000E+00 0. -1.
</event>
<event>
 7    1  0.2842702E-009  0.6258290E+02  0.7561462E-02  0.1387301E+00
          3   -1    0    0  501    0  0.00000000000E+00  0.00000000000E+00  0.10013373335E+04  0.10013373335E+04  0.00000000000E+00 0. -1.
         -3   -1    0    0    0  501 -0.00000000000E+00 -0.00000000000E+00 -0.38427564484E+02  0.38427564484E+02  0.00000000000E+00 0.  1.
         25    2    1    2    0    0 -0.49361002575E+02 -0.14402020899E+02  0.90384269644E+03  0.91390561305E+03  0.12509165794E+03 0.  0.
          5    1    3    3  502    0 -0.22267215915E+02 -0.72438338746E+01  0.86748717791E+03  0.86781321624E+03  0.41800000000E+01 0.  1.
         -5    1    3    3    0  502 -0.27093786659E+02 -0.71581870241E+01  0.36355518527E+02  0.46092396817E+02  0.41800000000E+01 0.  1.
        -11    1    1    2    0    0  0.28317993776E+02  0.34029221129E+02 -0.14724782876E+02  0.46655287941E+02  0.00000000000E+00 0.  1.
         11    1    1    2    0    0  0.21043008799E+02 -0.19627200230E+02  0.73791855490E+02  0.79203997026E+02  0.00000000000E+00 0. -1.
</event>
<event>
 7    1  0.2842702E-009  0.7400469E+02  0.7561462E-02  0.1346981E+00
          1   -1    0    0  501    0  0.00000000000E+00  0.00000000000E+00  0.62260425341E+02  0.62260425341E+02  0.00000000000E+00 0. -1.
         -1   -1    0    0    0  501 -0.00000000000E+00 -0.00000000000E+00 -0.27183040551E+03  0.27183040551E+03  0.00000000000E+00 0.  1.
         25    2    1    2    0    0 -0.12513818635E+02  0.48080385870E+02 -0.18413365656E+03  0.22808499491E+03  0.12509693146E+03 0.  0.
          5    1    3    3  502    0  0.35541171547E+02  0.13295610691E+02 -0.15900463300E+03  0.16352337403E+03  0.41800000000E+01 0.  1.
         -5    1    3    3    0  502 -0.48054990182E+02  0.34784775180E+02 -0.25129023567E+02  0.64561620884E+02  0.41800000000E+01 0.  1.
        -11    1    1    2    0    0  0.41947660445E+00 -0.17102375056E+02 -0.57390872774E+02  0.59886388027E+02  0.00000000000E+00 0.  1.
         11    1    1    2    0    0  0.12094342031E+02 -0.30978010814E+02  0.31954549169E+02  0.46119447912E+02  0.00000000000E+00 0. -1.
</event>
<event>
 7    1  0.2842702E-009  0.1198674E+03  0.7561462E-02  0.1243316E+00
         -1   -1    0    0    0  501 -0.00000000000E+00  0.00000000000E+00  0.34592788130E+02  0.34592788130E+02  0.00000000000E+00 0.  1.
          1   -1    0    0  501    0  0.00000000000E+00 -0.00000000000E+00 -0.48312142398E+03  0.48312142398E+03  0.00000000000E+00 0. -1.
         25    2    1    2    0    0 -0.67321784056E+02 -0.14667652691E+02 -0.22306446015E+03  0.26486156648E+03  0.12508610383E+03 0.  0.
          5    1    3    3  502    0 -0.99299712698E+02 -0.32760615525E+02 -0.17891063462E+03  0.20726837302E+03  0.41800000000E+01 0.  1.
         -5    1    3    3    0  502  0.31977928642E+02  0.18092962835E+02 -0.44153825526E+02  0.57593193461E+02  0.41800000000E+01 0.  1.
        -11    1    1    2    0    0  0.78963036704E+02  0.24704998107E+02 -0.22224765586E+03  0.23714872682E+03  0.00000000000E+00 0. -1.
         11    1    1    2    0    0 -0.11641252648E+02 -0.10037345416E+02 -0.32165198420E+01  0.15703918814E+02  0.00000000000E+00 0.  1.
</event>
<event>
 7    1  0.2842702E-009  0.6676945E+02  0.7561462E-02  0.1371437E+00
         -2   -1    0    0    0  501 -0.00000000000E+00  0.00000000000E+00  0.12240049297E+03  0.12240049297E+03  0.00000000000E+00 0.  1.
          2   -1    0    0  501    0  0.00000000000E+00 -0.00000000000E+00 -0.12131243047E+03  0.12131243047E+03  0.00000000000E+00 0. -1.
         25    2    1    2    0    0  0.34615329586E+02 -0.19175444113E+02 -0.40021114859E+02  0.13718273361E+03  0.12510593139E+03 0.  0.
          5    1    3    3  502    0  0.55153067345E+02 -0.36632304331E+02  0.21620207452E+02  0.69776015424E+02  0.41800000000E+01 0. -1.
         -5    1    3    3    0  502 -0.20537737758E+02  0.17456860218E+02 -0.61641322312E+02  0.67406718191E+02  0.41800000000E+01 0. -1.
        -11    1    1    2    0    0 -0.23722674281E+02  0.10268773722E+02  0.69877347074E+02  0.74505413380E+02  0.00000000000E+00 0.  1.
         11    1    1    2    0    0 -0.10892655306E+02  0.89066703911E+01 -0.28768169718E+02  0.32024776439E+02  0.00000000000E+00 0. -1.
</event>
<event>
 7    1  0.2842702E-009  0.1087311E+03  0.7561462E-02  0.1262938E+00
         -1   -1    0    0    0  501 -0.00000000000E+00  0.00000000000E+00  0.51129762139E+03  0.51129762139E+03  0.00000000000E+00 0.  1.
          1   -1    0    0  501    0  0.00000000000E+00 -0.00000000000E+00 -0.36749817822E+02  0.36749817822E+02  0.00000000000E+00 0. -1.
         25    2    1    2    0    0 -0.52559084971E+02 -0.52114912300E+02  0.33870862486E+03  0.36857508554E+03  0.12508253128E+03 0.  0.
          5    1    3    3  502    0 -0.59284150743E+02 -0.44593737713E+01  0.30220422221E+03  0.30802493546E+03  0.41800000000E+01 0. -1.
         -5    1    3    3    0  502  0.67250657726E+01 -0.47655538529E+02  0.36504402647E+02  0.60550150080E+02  0.41800000000E+01 0. -1.
        -11    1    1    2    0    0  0.20384733566E+02 -0.21249011554E+02  0.11606358532E+02  0.31650677922E+02  0.00000000000E+00 0.  1.
         11    1    1    2    0    0  0.32174351405E+02  0.73363923854E+02  0.12423282018E+03  0.14782167575E+03  0.00000000000E+00 0. -1.
</event>
<event>
 7    1  0.2842702E-009  0.1275169E+03  0.7561462E-02  0.1231187E+00
         -2   -1    0    0    0  501 -0.00000000000E+00  0.00000000000E+00  0.74060059460E+02  0.74060059460E+02  0.00000000000E+00 0.  1.
          2   -1    0    0  501    0  0.00000000000E+00 -0.00000000000E+00 -0.28667830810E+03  0.28667830810E+03  0.00000000000E+00 0. -1.
         25    2    1    2    0    0 -0.54227344702E+02  0.72100639085E+02 -0.16805450538E+03  0.22809641495E+03  0.12508617295E+03 0.  0.
          5    1    3    3  502    0  0.36963342794E+02  0.45341623769E+02 -0.55750409227E+02  0.80918057845E+02  0.41800000000E+01 0.  1.
         -5    1    3    3    0  502 -0.91190687495E+02  0.26759015316E+02 -0.11230409615E+03  0.14717835710E+03  0.41800000000E+01 0.  1.
        -11    1    1    2    0    0 -0.40569983579E+01 -0.27680534770E+02  0.20469188751E+02  0.34664952459E+02  0.00000000000E+00 0.  1.
         11    1    1    2    0    0  0.58284343059E+02 -0.44420104315E+02 -0.65032932008E+02  0.97977000152E+02  0.00000000000E+00 0. -1.
</event>
<event>
 7    1  0.2842702E-009  0.2494926E+03  0.7561462E-02  0.1113626E+00
         -1   -1    0    0    0  501 -0.00000000000E+00  0.00000000000E+00  0.99492818222E+02  0.99492818222E+02  0.00000000000E+00 0.  1.
          1   -1    0    0  501    0  0.00000000000E+00 -0.00000000000E+00 -0.64397257630E+03  0.64397257630E+03  0.00000000000E+00 0. -1.
         25    2    1    2    0    0 -0.58264442799E+02 -0.21880748357E+03 -0.29289442293E+03  0.39077623441E+03  0.12508981668E+03 0.  0.
          5    1    3    3  502    0 -0.91966531457E+02 -0.18805105644E+03 -0.21299917793E+03  0.29867568521E+03  0.41800000000E+01 0.  1.
         -5    1    3    3    0  502  0.33702088658E+02 -0.30756427127E+02 -0.79895244993E+02  0.92100549195E+02  0.41800000000E+01 0.  1.
        -11    1    1    2    0    0 -0.26420102690E+01  0.15698108443E+03 -0.13316430169E+03  0.20587076609E+03  0.00000000000E+00 0.  1.
         11    1    1    2    0    0  0.60906453068E+02  0.61826399137E+02 -0.11842103347E+03  0.14681839402E+03  0.00000000000E+00 0. -1.
</event>
<event>
 7    1  0.2842702E-009  0.1942430E+03  0.7561462E-02  0.1154689E+00
          2   -1    0    0  501    0  0.00000000000E+00  0.00000000000E+00  0.63224502193E+03  0.63224502193E+03  0.00000000000E+00 0.  1.
         -2   -1    0    0    0  501 -0.00000000000E+00 -0.00000000000E+00 -0.95801149640E+02  0.95801149640E+02  0.00000000000E+00 0. -1.
         25    2    1    2    0    0  0.68654444240E+02  0.16868536429E+03  0.92218614296E+02  0.23941530102E+03  0.12508888320E+03 0.  0.
          5    1    3    3  502    0  0.28604919729E+02  0.16249387086E+03  0.34248780167E+02  0.16856141564E+03  0.41800000000E+01 0.  1.
         -5    1    3    3    0  502  0.40049524511E+02  0.61914934321E+01  0.57969834128E+02  0.70853885379E+02  0.41800000000E+01 0.  1.
        -11    1    1    2    0    0 -0.45723501337E+02 -0.93249849140E+02  0.35346544919E+03  0.36840737874E+03  0.00000000000E+00 0.  1.
         11    1    1    2    0    0 -0.22930942902E+02 -0.75435515153E+02  0.90759808803E+02  0.12022349181E+03  0.00000000000E+00 0. -1.
</event>
<event>
 7    1  0.2842702E-009  0.1130715E+03  0.7561462E-02  0.1254985E+00
         -1   -1    0    0    0  501 -0.00000000000E+00  0.00000000000E+00  0.38981643020E+02  0.38981643020E+02  0.00000000000E+00 0.  1.
          1   -1    0    0  501    0  0.00000000000E+00 -0.00000000000E+00 -0.51641128452E+03  0.51641128452E+03  0.00000000000E+00 0. -1.
         25    2    1    2    0    0  0.68008170043E+02  0.28013629118E+02 -0.15447278260E+03  0.21193640375E+03  0.12508126983E+03 0.  0.
          5    1    3    3  502    0  0.89904631858E+02  0.13279299871E+02 -0.49408016629E+02  0.10352684261E+03  0.41800000000E+01 0.  1.
         -5    1    3    3    0  502 -0.21896461814E+02  0.14734329246E+02 -0.10506476597E+03  0.10840956114E+03  0.41800000000E+01 0.  1.
        -11    1    1    2    0    0 -0.71220130768E+00  0.23615553532E+02 -0.28462296959E+02  0.36990592690E+02  0.00000000000E+00 0.  1.
         11    1    1    2    0    0 -0.67295968736E+02 -0.51629182650E+02 -0.29449456194E+03  0.30646593110E+03  0.00000000000E+00 0. -1.
</event>
<event>
 7    1  0.2842702E-009  0.1925002E+03  0.7561462E-02  0.1156225E+00
          2   -1    0    0  501    0  0.00000000000E+00  0.00000000000E+00  0.38751576560E+03  0.38751576560E+03  0.00000000000E+00 0.  1.
         -2   -1    0    0    0  501 -0.00000000000E+00 -0.00000000000E+00 -0.10528181345E+03  0.10528181345E+03  0.00000000000E+00 0. -1.
         25    2    1    2    0    0 -0.16314337105E+03  0.13770763104E+02  0.20035684226E+03  0.28739426204E+03  0.12508878520E+03 0.  0.
          5    1    3    3  502    0 -0.73706628700E+02  0.64081964829E+02  0.64631964750E+02  0.11719184527E+03  0.41800000000E+01 0.  1.
         -5    1    3    3    0  502 -0.89436742348E+02 -0.50311201726E+02  0.13572487751E+03  0.17020241677E+03  0.41800000000E+01 0.  1.
        -11    1    1    2    0    0  0.92418289375E+02 -0.49999505857E+02  0.25956586528E+02  0.10823509219E+03  0.00000000000E+00 0. -1.
         11    1    1    2    0    0  0.70725081673E+02  0.36228742753E+02  0.55920523367E+02  0.97168224810E+02  0.00000000000E+00 0.  1.
</event>
<event>
 7    1  0.2842702E-009  0.1114758E+03  0.7561462E-02  0.1257861E+00
         -2   -1    0    0    0  501 -0.00000000000E+00  0.00000000000E+00  0.28361549752E+02  0.28361549752E+02  0.00000000000E+00 0. -1.
          2   -1    0    0  501    0  0.00000000000E+00 -0.00000000000E+00 -0.61522894864E+03  0.61522894864E+03  0.00000000000E+00 0.  1.
         25    2    1    2    0    0 -0.51314041282E+02 -0.30336386908E+01 -0.38581676340E+03  0.40883326011E+03  0.12509087040E+03 0.  0.
          5    1    3    3  502    0  0.24492910790E+02 -0.13417084311E+02 -0.25992045415E+03  0.26144987228E+03  0.41800000000E+01 0.  1.
         -5    1    3    3    0  502 -0.75806952072E+02  0.10383445620E+02 -0.12589630925E+03  0.14738338783E+03  0.41800000000E+01 0.  1.
        -11    1    1    2    0    0  0.79885442269E+02  0.23114459812E+02 -0.16376792200E+03  0.18367333615E+03  0.00000000000E+00 0.  1.
         11    1    1    2    0    0 -0.28571400987E+02 -0.20080821121E+02 -0.37282713494E+02  0.51083902129E+02  0.00000000000E+00 0. -1.
</event>
<event>
 7    1  0.2842702E-009  0.8744927E+02  0.7561462E-02  0.1309149E+00
         -1   -1    0    0    0  501 -0.00000000000E+00  0.00000000000E+00  0.46556099606E+02  0.46556099606E+02  0.00000000000E+00 0.  1.
          1   -1    0    0  501    0  0.00000000000E+00 -0.00000000000E+00 -0.29561207455E+03  0.29561207455E+03  0.00000000000E+00 0. -1.
         25    2    1    2    0    0  0.24007835448E+02 -0.27437268053E+02 -0.19714428014E+03  0.23630923311E+03  0.12508799550E+03 0.  0.
          5    1    3    3  502    0  0.34267876702E+02 -0.74209641654E+02 -0.13275957759E+03  0.15596132896E+03  0.41800000000E+01 0.  1.
         -5    1    3    3    0  502 -0.10260041255E+02  0.46772373601E+02 -0.64384702549E+02  0.80347904149E+02  0.41800000000E+01 0.  1.
        -11    1    1    2    0    0 -0.21211486481E+01  0.22434324524E+02 -0.72177825781E+02  0.75613733692E+02  0.00000000000E+00 0. -1.
         11    1    1    2    0    0 -0.21886686800E+02  0.50029435298E+01  0.20266130979E+02  0.30245207354E+02  0.00000000000E+00 0.  1.
</event>
<event>
 7    1  0.2842702E-009  0.1854005E+03  0.7561462E-02  0.1162676E+00
         -1   -1    0    0    0  501 -0.00000000000E+00  0.00000000000E+00  0.23805285162E+03  0.23805285162E+03  0.00000000000E+00 0.  1.
          1   -1    0    0  501    0  0.00000000000E+00 -0.00000000000E+00 -0.22420128694E+03  0.22420128694E+03  0.00000000000E+00 0. -1.
         25    2    1    2    0    0 -0.86546732075E+02  0.14705240209E+03  0.11764167854E+03  0.24207916670E+03  0.12509201665E+03 0.  0.
          5    1    3    3  502    0  0.89904126833E+01  0.76933340388E+01  0.63317588548E+02  0.64549239565E+02  0.41800000000E+01 0. -1.
         -5    1    3    3    0  502 -0.95537144759E+02  0.13935906805E+03  0.54324089990E+02  0.17752992714E+03  0.41800000000E+01 0. -1.
        -11    1    1    2    0    0  0.86141755443E+02 -0.66860585215E+02 -0.35011471588E+02  0.11452747718E+03  0.00000000000E+00 0. -1.
         11    1    1    2    0    0  0.40497663225E+00 -0.80191816871E+02 -0.68778642274E+02  0.10564749468E+03  0.00000000000E+00 0.  1.
</event>
<event>
 7    1  0.2842702E-009  0.1160123E+03  0.7561462E-02  0.1249824E+00
          2   -1    0    0  501    0  0.00000000000E+00  0.00000000000E+00  0.40216560149E+03  0.40216560149E+03  0.00000000000E+00 0.  1.
         -2   -1    0    0    0  501 -0.00000000000E+00 -0.00000000000E+00 -0.35102822034E+02  0.35102822034E+02  0.00000000000E+00 0. -1.
         25    2    1    2    0    0  0.43656129163E+02 -0.36129342695E+01  0.16562188602E+03  0.21212707204E+03  0.12509346369E+03 0.  0.
          5    1    3    3  502    0 -0.33143571062E+02 -0.35184093665E+02  0.73126327271E+02  0.87757329551E+02  0.41800000000E+01 0. -1.
         -5    1    3    3    0  502  0.76799700225E+02  0.31571159395E+02  0.92495558745E+02  0.12436974249E+03  0.41800000000E+01 0. -1.
        -11    1    1    2    0    0  0.18156745093E+02 -0.26091267424E+02  0.57620315927E+02  0.65806705097E+02  0.00000000000E+00 0.  1.
         11    1    1    2    0    0 -0.61812874256E+02  0.29704201693E+02  0.14382057751E+03  0.15933464638E+03  0.00000000000E+00 0. -1.
</event>
<event>
 7    1  0.2842702E-009  0.1007164E+03  0.7561462E-02  0.1278797E+00
          2   -1    0    0  501    0  0.00000000000E+00  0.00000000000E+00  0.15601473657E+03  0.15601473657E+03  0.00000000000E+00 0. -1.
         -2   -1    0    0    0  501 -0.00000000000E+00 -0.00000000000E+00 -0.13121111555E+03  0.13121111555E+03  0.00000000000E+00 0.  1.
         25    2    1    2    0    0  0.58771470832E+02  0.52360647256E+02  0.63515711446E+02  0.16086278076E+03  0.12508743130E+03 0.  0.
          5    1    3    3  502    0 -0.90861382499E+01  0.44920350618E+02 -0.22290909681E+02  0.51134654222E+02  0.41800000000E+01 0. -1.
         -5    1    3    3    0  502  0.67857609081E+02  0.74402966378E+01  0.85806621127E+02  0.10972812654E+03  0.41800000000E+01 0. -1.
        -11    1    1    2    0    0 -0.17521804250E+02 -0.40455546120E+02 -0.63108210737E+02  0.76982537620E+02  0.00000000000E+00 0.  1.
         11    1    1    2    0    0 -0.41249666582E+02 -0.11905101137E+02  0.24396120315E+02  0.49380533741E+02  0.00000000000E+00 0. -1.
</event>
<event>
 7    1  0.2842702E-009  0.7508936E+02  0.7561462E-02  0.1343595E+00
         -2   -1    0    0    0  501 -0.00000000000E+00  0.00000000000E+00  0.12214027920E+02  0.12214027920E+02  0.00000000000E+00 0.  1.
          2   -1    0    0  501    0  0.00000000000E+00 -0.00000000000E+00 -0.11182425352E+04  0.11182425352E+04  0.00000000000E+00 0. -1.
         25    2    1    2    0    0 -0.27807072682E+02  0.20615131743E+02 -0.74678469551E+03  0.75798009533E+03  0.12509287155E+03 0.  0.
          5    1    3    3  502    0 -0.36173768849E+02 -0.96501434933E+00 -0.56063095352E+02  0.66858177255E+02  0.41800000000E+01 0.  1.
         -5    1    3    3    0  502  0.83666961676E+01  0.21580146092E+02 -0.69072160016E+03  0.69112191807E+03  0.41800000000E+01 0.  1.
        -11    1    1    2    0    0  0.57812236245E+02 -0.14646751642E+02 -0.29922434581E+03  0.30510980174E+03  0.00000000000E+00 0.  1.
         11    1    1    2    0    0 -0.30005163564E+02 -0.59683801009E+01 -0.60019465979E+02  0.67366666074E+02  0.00000000000E+00 0. -1.
</event>
<event>
 7    1  0.2842702E-009  0.2526992E+03  0.7561462E-02  0.1111611E+00
         -2   -1    0    0    0  501 -0.00000000000E+00  0.00000000000E+00  0.31290675670E+02  0.31290675670E+02  0.00000000000E+00 0. -1.
          2   -1    0    0  501    0  0.00000000000E+00 -0.00000000000E+00 -0.27479629057E+04  0.27479629057E+04  0.00000000000E+00 0.  1.
         25    2    1    2    0    0  0.19558825246E+03  0.15385744585E+03 -0.19152583995E+04  0.19354062792E+04  0.12512334257E+03 0.  0.
          5    1    3    3  502    0  0.17555012146E+03  0.15053813017E+03 -0.18823656986E+04  0.18965225201E+04  0.41800000000E+01 0.  1.
         -5    1    3    3    0  502  0.20038131003E+02  0.33193156801E+01 -0.32892700872E+02  0.38883759095E+02  0.41800000000E+01 0.  1.
        -11    1    1    2    0    0 -0.10632201439E+03 -0.11312487005E+03 -0.60065213980E+03  0.62039068337E+03  0.00000000000E+00 0.  1.
         11    1    1    2    0    0 -0.89266238066E+02 -0.40732575796E+02 -0.20076169080E+03  0.22345661879E+03  0.00000000000E+00 0. -1.
</event>
<event>
 7    1  0.2842702E-009  0.9847283E+02  0.7561462E-02  0.1283541E+00
         -2   -1    0    0    0  501 -0.00000000000E+00  0.00000000000E+00  0.10094875931E+03  0.10094875931E+03  0.00000000000E+00 0.  1.
          2   -1    0    0  501    0  0.00000000000E+00 -0.00000000000E+00 -0.18808801272E+03  0.18808801272E+03  0.00000000000E+00 0. -1.
         25    2    1    2    0    0  0.39578840305E+02 -0.74598349813E+02 -0.35854091252E+02  0.15512830823E+03  0.12509147756E+03 0.  0.
          5    1    3    3  502    0  0.51917992890E+02 -0.32459413026E+02  0.35753132324E+02  0.71027109970E+02  0.41800000000E+01 0.  1.
         -5    1    3    3    0  502 -0.12339152585E+02 -0.42138936787E+02 -0.71607223576E+02  0.84101198257E+02  0.41800000000E+01 0.  1.
        -11    1    1    2    0    0  0.59358646022E+01  0.17304169471E+02  0.23166355511E+02  0.29518617809E+02  0.00000000000E+00 0.  1.
         11    1    1    2    0    0 -0.45514704907E+02  0.57294180342E+02 -0.74451517672E+02  0.10438984600E+03  0.00000000000E+00 0. -1.
</event>
<event>
 7    1  0.2842702E-009  0.7971373E+02  0.7561462E-02  0.1329866E+00
         -2   -1    0    0    0  501 -0.00000000000E+00  0.00000000000E+00  0.79370039525E+03  0.79370039525E+03  0.00000000000E+00 0.  1.
          2   -1    0    0  501    0  0.00000000000E+00 -0.00000000000E+00 -0.17565533233E+02  0.17565533233E+02  0.00000000000E+00 0. -1.
         25    2    1    2    0    0  0.32690728191E+02 -0.13474989370E+02  0.55185142392E+03  0.56695513229E+03  0.12509144217E+03 0.  0.
          5    1    3    3  502    0  0.13405014794E+02  0.41020653967E+02  0.42825391282E+03  0.43044311439E+03  0.41800000000E+01 0.  1.
         -5    1    3    3    0  502  0.19285713397E+02 -0.54495643337E+02  0.12359751109E+03  0.13651201791E+03  0.41800000000E+01 0.  1.
        -11    1    1    2    0    0 -0.44440714036E+02  0.80260765790E+01  0.22668375413E+03  0.23113831218E+03  0.00000000000E+00 0.  1.
         11    1    1    2    0    0  0.11749985845E+02  0.54489127913E+01 -0.24003160342E+01  0.13172484011E+02  0.00000000000E+00 0. -1.
</event>
<event>
 7    1  0.2842702E-009  0.1161011E+03  0.7561462E-02  0.1249671E+00
         -2   -1    0    0    0  501 -0.00000000000E+00  0.00000000000E+00  0.16333033565E+03  0.16333033565E+03  0.00000000000E+00 0.  1.
          2   -1    0    0  501    0  0.00000000000E+00 -0.00000000000E+00 -0.11456360442E+03  0.11456360442E+03  0.00000000000E+00 0. -1.
         25    2    1    2    0    0 -0.59634224921E+02 -0.35963324098E+02 -0.31148939000E+02  0.14651818306E+03  0.12509084741E+03 0.  0.
          5    1    3    3  502    0 -0.34310264507E+02 -0.77011619076E+02 -0.45670154689E+02  0.95975096523E+02  0.41800000000E+01 0.  1.
         -5    1    3    3    0  502 -0.25323960414E+02  0.41048294978E+02  0.14521215689E+02  0.50543086538E+02  0.41800000000E+01 0.  1.
        -11    1    1    2    0    0  0.69180820347E+02  0.77746089358E+01  0.72895208265E+02  0.10079752892E+03  0.00000000000E+00 0.  1.
         11    1    1    2    0    0 -0.95465954266E+01  0.28188715162E+02  0.70204619653E+01  0.30578228087E+02  0.00000000000E+00 0. -1.
</event>
<event>
 7    1  0.2842702E-009  0.9589276E+02  0.7561462E-02  0.1289178E+00
          1   -1    0    0  501    0  0.00000000000E+00  0.00000000000E+00  0.42084501081E+03  0.42084501081E+03  0.00000000000E+00 0. -1.
         -1   -1    0    0    0  501 -0.00000000000E+00 -0.00000000000E+00 -0.35486871352E+02  0.35486871352E+02  0.00000000000E+00 0.  1.
         25    2    1    2    0    0 -0.31626925953E+01 -0.62862925158E+01  0.29132040696E+03  0.31711884181E+03  0.12508900919E+03 0.  0.
          5    1    3    3  502    0 -0.94358857371E+01  0.43724441890E+02  0.38127422491E+02  0.58923980721E+02  0.41800000000E+01 0.  1.
         -5    1    3    3    0  502  0.62731931418E+01 -0.50010734405E+02  0.25319298447E+03  0.25819486109E+03  0.41800000000E+01 0.  1.
        -11    1    1    2    0    0  0.30093579520E+02 -0.35520067388E+02  0.69775553732E+02  0.83880430460E+02  0.00000000000E+00 0. -1.
         11    1    1    2    0    0 -0.26930886925E+02  0.41806359904E+02  0.24262178766E+02  0.55332609892E+02  0.00000000000E+00 0.  1.
</event>
<event>
 7    1  0.2842702E-009  0.1071529E+03  0.7561462E-02  0.1265935E+00
         -2   -1    0    0    0  501 -0.00000000000E+00  0.00000000000E+00  0.33545591510E+02  0.33545591510E+02  0.00000000000E+00 0.  1.
          2   -1    0    0  501    0  0.00000000000E+00 -0.00000000000E+00 -0.72177499579E+03  0.72177499579E+03  0.00000000000E+00 0. -1.
         25    2    1    2    0    0 -0.11531726582E+02  0.67951829374E+02 -0.58609677759E+03  0.60324680004E+03  0.12508731841E+03 0.  0.
          5    1    3    3  502    0 -0.86462242205E+01 -0.15626481180E+02 -0.96021663371E+01  0.20703094110E+02  0.41800000000E+01 0.  1.
         -5    1    3    3    0  502 -0.28855023617E+01  0.83578310554E+02 -0.57649461125E+03  0.58254370593E+03  0.41800000000E+01 0.  1.
        -11    1    1    2    0    0 -0.36886014288E+02 -0.46290200776E+02 -0.60559898012E+02  0.84680942278E+02  0.00000000000E+00 0.  1.
         11    1    1    2    0    0  0.48417740870E+02 -0.21661628598E+02 -0.41572728674E+02  0.67392844975E+02  0.00000000000E+00 0. -1.
</event>
<event>
 7    1  0.2842702E-009  0.1330578E+03  0.7561462E-02  0.1222988E+00
         -1   -1    0    0    0  501 -0.00000000000E+00  0.00000000000E+00  0.65388070895E+02  0.65388070895E+02  0.00000000000E+00 0.  1.
          1   -1    0    0  501    0  0.00000000000E+00 -0.00000000000E+00 -0.28113962477E+03  0.28113962477E+03  0.00000000000E+00 0. -1.
         25    2    1    2    0    0  0.42613236868E+02  0.67821200697E+02 -0.93539450176E+02  0.17553494583E+03  0.12508910923E+03 0.  0.
          5    1    3    3  502    0  0.59771337786E+02  0.97078851859E+02 -0.67334524230E+02  0.13247009796E+03  0.41800000000E+01 0.  1.
         -5    1    3    3    0  502 -0.17158100918E+02 -0.29257651162E+02 -0.26204925946E+02  0.43064847874E+02  0.41800000000E+01 0.  1.
        -11    1    1    2    0    0  0.25478932680E+02 -0.66638804284E+01 -0.40440438167E+02  0.48259842022E+02  0.00000000000E+00 0.  1.
         11    1    1    2    0    0 -0.68092169548E+02 -0.61157320269E+02 -0.81771665529E+02  0.12273290781E+03  0.00000000000E+00 0. -1.
</event>
<event>
 7    1  0.2842702E-009  0.6812115E+02  0.7561462E-02  0.1366601E+00
         -3   -1    0    0    0  501 -0.00000000000E+00  0.00000000000E+00  0.29498339587E+03  0.29498339587E+03  0.00000000000E+00 0.  1.
          3   -1    0    0  501    0  0.00000000000E+00 -0.00000000000E+00 -0.41022992336E+02  0.41022992336E+02  0.00000000000E+00 0. -1.
         25    2    1    2    0    0  0.15339220625E+02  0.43488006079E+02  0.15749155415E+03  0.20634604270E+03  0.12509436977E+03 0.  0.
          5    1    3    3  502    0 -0.17826080452E+01 -0.36755402841E+01 -0.20527765117E+02  0.21343589870E+02  0.41800000000E+01 0. -1.
         -5    1    3    3    0  502  0.17121828670E+02  0.47163546363E+02  0.17801931927E+03  0.18500245283E+03  0.41800000000E+01 0. -1.
        -11    1    1    2    0    0 -0.66095471355E+01  0.17360987192E+02  0.47709087364E+02  0.51198115265E+02  0.00000000000E+00 0.  1.
         11    1    1    2    0    0 -0.87296734893E+01 -0.60848993271E+02  0.48759762019E+02  0.78462230235E+02  0.00000000000E+00 0. -1.
</event>
<event>
 7    1  0.2842702E-009  0.1087225E+03  0.7561462E-02  0.1262954E+00
         -1   -1    0    0    0  501 -0.00000000000E+00  0.00000000000E+00  0.41016997968E+02  0.41016997968E+02  0.00000000000E+00 0.  1.
          1   -1    0    0  501    0  0.00000000000E+00 -0.00000000000E+00 -0.38575141490E+03  0.38575141490E+03  0.00000000000E+00 0. -1.
         25    2    1    2    0    0  0.37134120999E+02 -0.67311041206E+02 -0.21539783104E+03  0.26067890413E+03  0.12509015242E+03 0.  0.
          5    1    3    3  502    0  0.72607681079E+02 -0.10553516762E+02 -0.14986676150E+03  0.16691545965E+03  0.41800000000E+01 0.  1.
         -5    1    3    3    0  502 -0.35473560080E+02 -0.56757524444E+02 -0.65531069534E+02  0.93763444476E+02  0.41800000000E+01 0.  1.
        -11    1    1    2    0    0 -0.22276844155E+02  0.42098836446E+02 -0.17912278463E+02  0.50886339378E+02  0.00000000000E+00 0.  1.
         11    1    1    2    0    0 -0.14857276844E+02  0.25212204761E+02 -0.11142430743E+03  0.11520316936E+03  0.00000000000E+00 0. -1.
</event>
<event>
 7    1  0.2842702E-009  0.1438875E+03  0.7561462E-02  0.1208192E+00
         -2   -1    0    0    0  501 -0.00000000000E+00  0.00000000000E+00  0.21369551435E+03  0.21369551435E+03  0.00000000000E+00 0.  1.
          2   -1    0    0  501    0  0.00000000000E+00 -0.00000000000E+00 -0.10661150840E+03  0.10661150840E+03  0.00000000000E+00 0. -1.
         25    2    1    2    0    0  0.38428710076E+02 -0.92686620376E+02  0.20183381635E+02  0.16162489734E+03  0.12509061991E+03 0.  0.
          5    1    3    3  502    0 -0.43455665823E+02 -0.54704480044E+02  0.96820411064E+01  0.70655426890E+02  0.41800000000E+01 0.  1.
         -5    1    3    3    0  502  0.81884375899E+02 -0.37982140332E+02  0.10501340528E+02  0.90969470447E+02  0.41800000000E+01 0.  1.
        -11    1    1    2    0    0 -0.58941923899E+02  0.88746210226E+02  0.87381839846E+02  0.13778833825E+03  0.00000000000E+00 0.  1.
         11    1    1    2    0    0  0.20513213823E+02  0.39404101499E+01 -0.48121552719E+00  0.20893787160E+02  0.00000000000E+00 0. -1.
</event>
<event>
 7    1  0.2842702E-009  0.9736004E+02  0.7561462E-02  0.1285947E+00
         -2   -1    0    0    0  501 -0.00000000000E+00  0.00000000000E+00  0.11250086092E+03  0.11250086092E+03  0.00000000000E+00 0.  1.
          2   -1    0    0  501    0  0.00000000000E+00 -0.00000000000E+00 -0.14035190757E+03  0.14035190757E+03  0.00000000000E+00 0. -1.
         25    2    1    2    0    0  0.56364759173E+02 -0.84279836494E+01  0.17132199640E+02  0.13852802561E+03  0.12509390325E+03 0.  0.
          5    1    3    3  502    0  0.56917462428E+02  0.51579921776E+02  0.14736615726E+02  0.78324492355E+02  0.41800000000E+01 0.  1.
         -5    1    3    3    0  502 -0.55270325526E+00 -0.60007905426E+02  0.23955839140E+01  0.60203533258E+02  0.41800000000E+01 0.  1.
        -11    1    1    2    0    0 -0.41100100712E+02  0.22205720854E+01  0.21075269383E+02  0.46241931172E+02  0.00000000000E+00 0.  1.
         11    1    1    2    0    0 -0.15264658460E+02  0.62074115639E+01 -0.66058515672E+02  0.68082811701E+02  0.00000000000E+00 0. -1.
</event>
<event>
 7    1  0.2842702E-009  0.3595872E+03  0.7561462E-02  0.1058747E+00
          2   -1    0    0  501    0  0.00000000000E+00  0.00000000000E+00  0.12041999025E+03  0.12041999025E+03  0.00000000000E+00 0. -1.
         -2   -1    0    0    0  501 -0.00000000000E+00 -0.00000000000E+00 -0.11560271495E+04  0.11560271495E+04  0.00000000000E+00 0.  1.
         25    2    1    2    0    0 -0.25284341101E+03 -0.24727721478E+03 -0.44513110181E+03  0.58212263216E+03  0.12509696093E+03 0.  0.
          5    1    3    3  502    0 -0.36881094340E+02 -0.15216727272E+02 -0.12621842349E+03  0.13243989858E+03  0.41800000000E+01 0. -1.
         -5    1    3    3    0  502 -0.21596231667E+03 -0.23206048751E+03 -0.31891267832E+03  0.44968273357E+03  0.41800000000E+01 0. -1.
        -11    1    1    2    0    0  0.15607065478E+03  0.20177526538E+03 -0.37171150740E+03  0.45082230616E+03  0.00000000000E+00 0. -1.
         11    1    1    2    0    0  0.96772756222E+02  0.45501949405E+02 -0.21876455004E+03  0.24350220143E+03  0.00000000000E+00 0.  1.
</event>
<event>
 7    1  0.2842702E-009  0.1077579E+03  0.7561462E-02  0.1264779E+00
          2   -1    0    0  501    0  0.00000000000E+00  0.00000000000E+00  0.51163178386E+03  0.51163178386E+03  0.00000000000E+00 0.  1.
         -2   -1    0    0    0  501 -0.00000000000E+00 -0.00000000000E+00 -0.44591259544E+02  0.44591259544E+02  0.00000000000E+00 0. -1.
         25    2    1    2    0    0  0.25153861475E+02  0.99466800727E+02  0.28974949471E+03  0.33185700723E+03  0.12509173582E+03 0.  0.
          5    1    3    3  502    0 -0.12159915536E+02  0.40193451175E+02  0.99003518011E+01  0.43345892873E+02  0.41800000000E+01 0.  1.
         -5    1    3    3    0  502  0.37313777011E+02  0.59273349553E+02  0.27984914291E+03  0.28851111436E+03  0.41800000000E+01 0.  1.
        -11    1    1    2    0    0 -0.35977366121E+01 -0.34807860054E+02  0.61464478409E+00  0.34998694525E+02  0.00000000000E+00 0. -1.
         11    1    1    2    0    0 -0.21556124863E+02 -0.64658940673E+02  0.17667638483E+03  0.18936734165E+03  0.00000000000E+00 0.  1.
</event>
<event>
 7    1  0.2842702E-009  0.1001332E+03  0.7561462E-02  0.1280016E+00
          1   -1    0    0  501    0  0.00000000000E+00  0.00000000000E+00  0.59746992943E+02  0.59746992943E+02  0.00000000000E+00 0. -1.
         -1   -1    0    0    0  501 -0.00000000000E+00 -0.00000000000E+00 -0.23566236849E+03  0.23566236849E+03  0.00000000000E+00 0.  1.
         25    2    1    2    0    0  0.12113599325E+02  0.34485725463E+02 -0.13350009426E+03  0.18656675334E+03  0.12509545849E+03 0.  0.
          5    1    3    3  502    0 -0.24551887618E+02  0.72165130171E+02 -0.66079022261E+02  0.10096787004E+03  0.41800000000E+01 0. -1.
         -5    1    3    3    0  502  0.36665486943E+02 -0.37679404708E+02 -0.67421071999E+02  0.85598883295E+02  0.41800000000E+01 0. -1.
        -11    1    1    2    0    0 -0.27151556351E+02  0.61634627810E+01 -0.56733462026E+02  0.63197159740E+02  0.00000000000E+00 0.  1.
         11    1    1    2    0    0  0.15037957026E+02 -0.40649188244E+02  0.14318180733E+02  0.45645448360E+02  0.00000000000E+00 0. -1.
</event>
<event>
 7    1  0.2842702E-009  0.7800423E+02  0.7561462E-02  0.1334812E+00
          1   -1    0    0  501    0  0.00000000000E+00  0.00000000000E+00  0.31082852273E+02  0.31082852273E+02  0.00000000000E+00 0. -1.
         -1   -1    0    0    0  501 -0.00000000000E+00 -0.00000000000E+00 -0.40000594184E+03  0.40000594184E+03  0.00000000000E+00 0.  1.
         25    2    1    2    0    0 -0.32174010438E+01  0.26425663957E+02 -0.22488722855E+03  0.25870883509E+03  0.12508928173E+03 0.  0.
          5    1    3    3  502    0 -0.47689660849E+02  0.57566630238E+01 -0.19555728219E+03  0.20141391694E+03  0.41800000000E+01 0.  1.
         -5    1    3    3    0  502  0.44472259805E+02  0.20669000934E+02 -0.29329946357E+02  0.57294918143E+02  0.41800000000E+01 0.  1.
        -11    1    1    2    0    0 -0.23480390561E+02 -0.20623630768E+02 -0.14153564392E+03  0.14494482187E+03  0.00000000000E+00 0.  1.
         11    1    1    2    0    0  0.26697791605E+02 -0.58020331891E+01 -0.25002171087E+01  0.27435137166E+02  0.00000000000E+00 0. -1.
</event>
<event>
 6    1  0.2842702E-009  0.1563291E+03  0.7561462E-02  0.1192905E+00
         -2   -1    0    0    0  501 -0.00000000000E+00  0.00000000000E+00  0.11452536979E+03  0.11452536979E+03  0.00000000000E+00 0.  1.
          2   -1    0    0  501    0  0.00000000000E+00 -0.00000000000E+00 -0.31403513184E+03  0.31403513184E+03  0.00000000000E+00 0. -1.
          5    1    1    2  502    0  0.55268339313E+02 -0.25249366821E+02 -0.92954372786E+02  0.11113103831E+03  0.41800000000E+01 0. -1.
         -5    1    1    2    0  502  0.52528628605E+02 -0.83113631441E+02  0.18353571829E+02  0.10010723527E+03  0.41800000000E+01 0. -1.
        -11    1    1    2    0    0 -0.20515367488E+02  0.27894282613E+02 -0.85485915844E+02  0.92232386467E+02  0.00000000000E+00 0. -1.
         11    1    1    2    0    0 -0.87281600430E+02  0.80468715649E+02 -0.39423045245E+02  0.12508984159E+03  0.00000000000E+00 0.  1.
</event>
<event>
 7    1  0.2842702E-009  0.2638221E+03  0.7561462E-02  0.1104868E+00
          2   -1    0    0  501    0  0.00000000000E+00  0.00000000000E+00  0.18048323792E+04  0.18048323792E+04  0.00000000000E+00 0. -1.
         -2   -1    0    0    0  501 -0.00000000000E+00 -0.00000000000E+00 -0.45397635466E+02  0.45397635466E+02  0.00000000000E+00 0.  1.
         25    2    1    2    0    0 -0.10996923126E+03 -0.22343770543E+03  0.11899073937E+04  0.12221065491E+04  0.12508865540E+03 0.  0.
          5    1    3    3  502    0  0.81463219833E+01  0.10422506221E+01  0.52835638229E+01  0.10622490051E+02  0.41800000000E+01 0.  1.
         -5    1    3    3    0  502 -0.11811555324E+03 -0.22447995606E+03  0.11846238298E+04  0.12114840590E+04  0.41800000000E+01 0.  1.
        -11    1    1    2    0    0  0.12231034573E+01  0.10088345572E+03  0.22820995894E+03  0.24951703945E+03  0.00000000000E+00 0.  1.
         11    1    1    2    0    0  0.10874612780E+03  0.12255424972E+03  0.34131739109E+03  0.37860642612E+03  0.00000000000E+00 0. -1.
</event>
<event>
 7    1  0.2842702E-009  0.1381640E+03  0.7561462E-02  0.1215821E+00
          1   -1    0    0  501    0  0.00000000000E+00  0.00000000000E+00  0.17920231090E+03  0.17920231090E+03  0.00000000000E+00 0. -1.
         -1   -1    0    0    0  501 -0.00000000000E+00 -0.00000000000E+00 -0.11310544123E+03  0.11310544123E+03  0.00000000000E+00 0.  1.
         25    2    1    2    0    0 -0.85342179650E+02  0.28777658359E+02  0.57002613202E+02  0.16434042272E+03  0.12508811047E+03 0.  0.
          5    1    3    3  502    0  0.83867865455E+01 -0.37879247754E+02  0.15765924387E+02  0.42085773971E+02  0.41800000000E+01 0.  1.
         -5    1    3    3    0  502 -0.93728966196E+02  0.66656906113E+02  0.41236688815E+02  0.12225464875E+03  0.41800000000E+01 0.  1.
        -11    1    1    2    0    0 -0.16667466835E+02 -0.22879167026E+01  0.14818076160E+02  0.22419063196E+02  0.00000000000E+00 0.  1.
         11    1    1    2    0    0  0.10200964649E+03 -0.26489741657E+02 -0.57238196972E+01  0.10554826621E+03  0.00000000000E+00 0. -1.
</event>
<event>
 7    1  0.2842702E-009  0.6066241E+02  0.7561462E-02  0.1395073E+00
         -1   -1    0    0    0  501 -0.00000000000E+00  0.00000000000E+00  0.66221701361E+03  0.66221701361E+03  0.00000000000E+00 0.  1.
          1   -1    0    0  501    0  0.00000000000E+00 -0.00000000000E+00 -0.19192323125E+02  0.19192323125E+02  0.00000000000E+00 0. -1.
         25    2    1    2    0    0 -0.26365459996E+02  0.16655136524E+02  0.33840593762E+03  0.36213050480E+03  0.12508953928E+03 0.  0.
          5    1    3    3  502    0 -0.77460543214E+01  0.57344077205E+00  0.33702123853E+03  0.33713664561E+03  0.41800000000E+01 0.  1.
         -5    1    3    3    0  502 -0.18619405675E+02  0.16081695752E+02  0.13846990962E+01  0.24993859197E+02  0.41800000000E+01 0.  1.
        -11    1    1    2    0    0  0.56149578456E+02 -0.11691741858E+02  0.13029860101E+03  0.14236290744E+03  0.00000000000E+00 0. -1.
         11    1    1    2    0    0 -0.29784118459E+02 -0.49633946664E+01  0.17432015185E+03  0.17691592449E+03  0.00000000000E+00 0.  1.
</event>
<event>
 7    1  0.2842702E-009  0.1336667E+03  0.7561462E-02  0.1222114E+00
         -2   -1    0    0    0  501 -0.00000000000E+00  0.00000000000E+00  0.77083513623E+02  0.77083513623E+02  0.00000000000E+00 0. -1.
          2   -1    0    0  501    0  0.00000000000E+00 -0.00000000000E+00 -0.25999010001E+03  0.25999010001E+03  0.00000000000E+00 0.  1.
         25    2    1    2    0    0 -0.43416684778E+02  0.78132807095E+02 -0.11931838371E+03  0.19461438872E+03  0.12509252393E+03 0.  0.
          5    1    3    3  502    0 -0.50747020495E+02 -0.17382435414E+02 -0.65112558827E+02  0.84466128520E+02  0.41800000000E+01 0. -1.
         -5    1    3    3    0  502  0.73303357174E+01  0.95515242509E+02 -0.54205824879E+02  0.11014826020E+03  0.41800000000E+01 0. -1.
        -11    1    1    2    0    0 -0.21378686933E+02 -0.30392788443E+02 -0.47628319160E+02  0.60408829076E+02  0.00000000000E+00 0.  1.
         11    1    1    2    0    0  0.64795371711E+02 -0.47740018652E+02 -0.15959883524E+02  0.82050395844E+02  0.00000000000E+00 0. -1.
</event>
<event>
 7    1  0.2842702E-009  0.1553689E+03  0.7561462E-02  0.1194027E+00
          1   -1    0    0  501    0  0.00000000000E+00  0.00000000000E+00  0.25542646211E+03  0.25542646211E+03  0.00000000000E+00 0. -1.
         -1   -1    0    0    0  501 -0.00000000000E+00 -0.00000000000E+00 -0.12249271877E+03  0.12249271877E+03  0.00000000000E+00 0.  1.
         25    2    1    2    0    0 -0.13071625848E+03  0.44758112311E+02  0.52368703194E+02  0.19361177607E+03  0.12511198947E+03 0.  0.
          5    1    3    3  502    0 -0.10686064280E+03  0.72709639232E+02 -0.22128922648E+00  0.12931902407E+03  0.41800000000E+01 0.  1.
         -5    1    3    3    0  502 -0.23855615673E+02 -0.27951526921E+02  0.52589992421E+02  0.64292751996E+02  0.41800000000E+01 0.  1.
        -11    1    1    2    0    0  0.45479996952E+02  0.49729873099E+01 -0.13779993115E+02  0.47781261346E+02  0.00000000000E+00 0.  1.
         11    1    1    2    0    0  0.85236261524E+02 -0.49731099621E+02  0.94345033261E+02  0.13652614346E+03  0.00000000000E+00 0. -1.
</event>
<event>
 7    1  0.2842702E-009  0.1622222E+03  0.7561462E-02  0.1186210E+00
         -1   -1    0    0    0  501 -0.00000000000E+00  0.00000000000E+00  0.82495389649E+02  0.82495389649E+02  0.00000000000E+00 0.  1.
          1   -1    0    0  501    0  0.00000000000E+00 -0.00000000000E+00 -0.35820413692E+03  0.35820413692E+03  0.00000000000E+00 0. -1.
         25    2    1    2    0    0 -0.11666322316E+03 -0.56494775213E+02 -0.11698475195E+03  0.21476157955E+03  0.12504053980E+03 0.  0.
          5    1    3    3  502    0 -0.84015745942E+02 -0.86434220194E+02 -0.42273202921E+02  0.12780460114E+03  0.41800000000E+01 0.  1.
         -5    1    3    3    0  502 -0.32647477222E+02  0.29939444981E+02 -0.74711549033E+02  0.86956978407E+02  0.41800000000E+01 0.  1.
        -11    1    1    2    0    0  0.68757809292E+02  0.80408127560E+02 -0.11925537447E+03  0.15942066257E+03  0.00000000000E+00 0.  1.
         11    1    1    2    0    0  0.47905413872E+02 -0.23913352346E+02 -0.39468620846E+02  0.66517284447E+02  0.00000000000E+00 0. -1.
</event>
<event>
 7    1  0.2842702E-009  0.1128676E+03  0.7561462E-02  0.1255350E+00
         -4   -1    0    0    0  501 -0.00000000000E+00  0.00000000000E+00  0.77659243520E+03  0.77659243520E+03  0.00000000000E+00 0.  1.
          4   -1    0    0  501    0  0.00000000000E+00 -0.00000000000E+00 -0.24226545571E+02  0.24226545571E+02  0.00000000000E+00 0. -1.
         25    2    1    2    0    0 -0.35397569240E+02 -0.74118428115E+02  0.43132229418E+03  0.45654451458E+03  0.12508973995E+03 0.  0.
          5    1    3    3  502    0 -0.83977984960E+01 -0.81326637001E+02  0.41682102340E+03  0.42478439572E+03  0.41800000000E+01 0.  1.
         -5    1    3    3    0  502 -0.26999770744E+02  0.72082088868E+01  0.14501270790E+02  0.31760118861E+02  0.41800000000E+01 0.  1.
        -11    1    1    2    0    0 -0.14802861474E+02  0.62307759650E+02  0.23846925335E+03  0.24691894705E+03  0.00000000000E+00 0.  1.
         11    1    1    2    0    0  0.50200430714E+02  0.11810668465E+02  0.82574342095E+02  0.97355519134E+02  0.00000000000E+00 0. -1.
</event>
<event>
 7    1  0.2842702E-009  0.1026226E+03  0.7561462E-02  0.1274876E+00
         -1   -1    0    0    0  501 -0.00000000000E+00  0.00000000000E+00  0.79124800944E+02  0.79124800944E+02  0.00000000000E+00 0.  1.
          1   -1    0    0  501    0  0.00000000000E+00 -0.00000000000E+00 -0.22179869680E+03  0.22179869680E+03  0.00000000000E+00 0. -1.
         25    2    1    2    0    0 -0.45836412789E+02 -0.59265705444E+02 -0.10097008036E+03  0.17735225591E+03  0.12508183309E+03 0.  0.
          5    1    3    3  502    0 -0.46108130946E+02 -0.78771288278E+02 -0.19436992482E+02  0.93413835554E+02  0.41800000000E+01 0.  1.
         -5    1    3    3    0  502  0.27171815698E+00  0.19505582834E+02 -0.81533087878E+02  0.83938420353E+02  0.41800000000E+01 0.  1.
        -11    1    1    2    0    0  0.64618429512E+01  0.53784664503E+02  0.13228271030E+02  0.55763184132E+02  0.00000000000E+00 0.  1.
         11    1    1    2    0    0  0.39374569837E+02  0.54810409408E+01 -0.54932086528E+02  0.67808057707E+02  0.00000000000E+00 0. -1.
</event>
<event>
 7    1  0.2842702E-009  0.1225474E+03  0.7561462E-02  0.1238953E+00
          1   -1    0    0  501    0  0.00000000000E+00  0.00000000000E+00  0.16459987685E+03  0.16459987685E+03  0.00000000000E+00 0. -1.
         -1   -1    0    0    0  501 -0.00000000000E+00 -0.00000000000E+00 -0.15829415436E+03  0.15829415436E+03  0.00000000000E+00 0.  1.
         25    2    1    2    0    0 -0.45087119017E+02 -0.91503450600E+02 -0.57255478733E+02  0.17126392721E+03  0.12508962045E+03 0.  0.
          5    1    3    3  502    0  0.57353516081E+01 -0.80985416162E+02  0.14529661453E+02  0.82583989676E+02  0.41800000000E+01 0. -1.
         -5    1    3    3    0  502 -0.50822470625E+02 -0.10518034438E+02 -0.71785140186E+02  0.88679937531E+02  0.41800000000E+01 0. -1.
        -11    1    1    2    0    0  0.31214612869E+02  0.16213820883E+02 -0.18214895306E+02  0.39610888089E+02  0.00000000000E+00 0.  1.
         11    1    1    2    0    0  0.13872506148E+02  0.75289629717E+02  0.81776096537E+02  0.11201921592E+03  0.00000000000E+00 0. -1.
</event>
<event>
 7    1  0.2842702E-009  0.1133512E+03  0.7561462E-02  0.1254487E+00
         -1   -1    0    0    0  501 -0.00000000000E+00  0.00000000000E+00  0.11715479020E+03  0.11715479020E+03  0.00000000000E+00 0.  1.
          1   -1    0    0  501    0  0.00000000000E+00 -0.00000000000E+00 -0.13007712151E+03  0.13007712151E+03  0.00000000000E+00 0. -1.
         25    2    1    2    0    0 -0.34385554269E+02  0.35449171498E+02  0.26684544893E+02  0.13711090914E+03  0.12509327067E+03 0.  0.
          5    1    3    3  502    0  0.41917245679E+02  0.17227051964E+02 -0.15327257099E+02  0.48023161233E+02  0.41800000000E+01 0.  1.
         -5    1    3    3    0  502 -0.76302799948E+02  0.18222119534E+02  0.42011801992E+02  0.89087747905E+02  0.41800000000E+01 0.  1.
        -11    1    1    2    0    0  0.26148713904E+02  0.28196170030E+02 -0.12268212980E+02  0.40364443424E+02  0.00000000000E+00 0. -1.
         11    1    1    2    0    0  0.82368403649E+01 -0.63645341528E+02 -0.27338663219E+02  0.69756559147E+02  0.00000000000E+00 0.  1.
</event>
<event>
 6    1  0.2842702E-009  0.1029251E+03  0.7561462E-02  0.1274262E+00
         -2   -1    0    0    0  501 -0.00000000000E+00  0.00000000000E+00  0.54720883403E+02  0.54720883403E+02  0.00000000000E+00 0.  1.
          2   -1    0    0  501    0  0.00000000000E+00 -0.00000000000E+00 -0.38578722156E+03  0.38578722156E+03  0.00000000000E+00 0. -1.
          5    1    1    2  502    0  0.68131718591E+02  0.58273929820E+02 -0.24991968584E+03  0.26554680142E+03  0.41800000000E+01 0. -1.
         -5    1    1    2    0  502 -0.39154711147E+02  0.92939400289E+00 -0.34911175889E+02  0.52632858370E+02  0.41800000000E+01 0. -1.
        -11    1    1    2    0    0  0.48271649879E+01 -0.34515926649E+02 -0.67059710072E+02  0.75575494899E+02  0.00000000000E+00 0. -1.
         11    1    1    2    0    0 -0.33804172432E+02 -0.24687397174E+02  0.20824233639E+02  0.46752950278E+02  0.00000000000E+00 0.  1.
</event>
<event>
 7    1  0.2842702E-009  0.1102586E+03  0.7561462E-02  0.1260092E+00
          2   -1    0    0  501    0  0.00000000000E+00  0.00000000000E+00  0.33473433629E+03  0.33473433629E+03  0.00000000000E+00 0. -1.
         -2   -1    0    0    0  501 -0.00000000000E+00 -0.00000000000E+00 -0.60191068885E+02  0.60191068885E+02  0.00000000000E+00 0.  1.
         25    2    1    2    0    0  0.84361224232E+02  0.33438552170E+02  0.16447635007E+03  0.22568805269E+03  0.12509066501E+03 0.  0.
          5    1    3    3  502    0  0.77800680246E+02  0.29379253445E+02  0.26428256911E+02  0.87361384737E+02  0.41800000000E+01 0.  1.
         -5    1    3    3    0  502  0.65605439857E+01  0.40592987244E+01  0.13804809316E+03  0.13832666796E+03  0.41800000000E+01 0.  1.
        -11    1    1    2    0    0 -0.11620138518E+01  0.26125804209E+02  0.24863516254E+02  0.36084655496E+02  0.00000000000E+00 0.  1.
         11    1    1    2    0    0 -0.83199210380E+02 -0.59564356378E+02  0.85203401084E+02  0.13315269699E+03  0.00000000000E+00 0. -1.
</event>
<event>
 7    1  0.2842702E-009  0.1122890E+03  0.7561462E-02  0.1256389E+00
          2   -1    0    0  501    0  0.00000000000E+00  0.00000000000E+00  0.30404535154E+03  0.30404535154E+03  0.00000000000E+00 0. -1.
         -2   -1    0    0    0  501 -0.00000000000E+00 -0.00000000000E+00 -0.13488608015E+03  0.13488608015E+03  0.00000000000E+00 0.  1.
         25    2    1    2    0    0  0.17100501799E+02 -0.97926084283E+02  0.23940254146E+03  0.28782477269E+03  0.12509027849E+03 0.  0.
          5    1    3    3  502    0 -0.69324948312E+01 -0.31376227461E+02  0.20764080901E+03  0.21015400330E+03  0.41800000000E+01 0.  1.
         -5    1    3    3    0  502  0.24032996630E+02 -0.66549856822E+02  0.31761732447E+02  0.77670769393E+02  0.41800000000E+01 0.  1.
        -11    1    1    2    0    0 -0.28061216428E+02  0.59721473720E+01 -0.47915739811E+02  0.55848156042E+02  0.00000000000E+00 0.  1.
         11    1    1    2    0    0  0.10960714629E+02  0.91953936911E+02 -0.22327530254E+02  0.95258502958E+02  0.00000000000E+00 0. -1.
</event>
<event>
 7    1  0.2842702E-009  0.1543970E+03  0.7561462E-02  0.1195172E+00
          1   -1    0    0  501    0  0.00000000000E+00  0.00000000000E+00  0.15453449835E+04  0.15453449835E+04  0.00000000000E+00 0. -1.
         -1   -1    0    0    0  501 -0.00000000000E+00 -0.00000000000E+00 -0.20340258883E+02  0.20340258883E+02  0.00000000000E+00 0.  1.
         25    2    1    2    0    0  0.87139539169E+02  0.94165988266E+02  0.10755822992E+04  0.10904063742E+04  0.12509294946E+03 0.  0.
          5    1    3    3  502    0  0.11545958163E+03  0.48563058308E+02  0.74500687837E+03  0.75547468974E+03  0.41800000000E+01 0. -1.
         -5    1    3    3    0  502 -0.28320042462E+02  0.45602929957E+02  0.33057542083E+03  0.33493168450E+03  0.41800000000E+01 0. -1.
        -11    1    1    2    0    0 -0.46214512617E+02 -0.63245917382E+02  0.38521844132E+03  0.39310186310E+03  0.00000000000E+00 0.  1.
         11    1    1    2    0    0 -0.40925026551E+02 -0.30920070884E+02  0.64203984067E+02  0.82177005006E+02  0.00000000000E+00 0. -1.
</event>
<event>
 7    1  0.2842702E-009  0.1121911E+03  0.7561462E-02  0.1256565E+00
          1   -1    0    0  501    0  0.00000000000E+00  0.00000000000E+00  0.63990298274E+03  0.63990298274E+03  0.00000000000E+00 0. -1.
         -1   -1    0    0    0  501 -0.00000000000E+00 -0.00000000000E+00 -0.27030465419E+02  0.27030465419E+02  0.00000000000E+00 0.  1.
         25    2    1    2    0    0  0.29918565130E+02 -0.61682998585E+02  0.27028921300E+03  0.30562127124E+03  0.12509272528E+03 0.  0.
          5    1    3    3  502    0  0.60099763263E+02 -0.45758401387E+02  0.25839517922E+03  0.26924218444E+03  0.41800000000E+01 0. -1.
         -5    1    3    3    0  502 -0.30181198133E+02 -0.15924597198E+02  0.11894033785E+02  0.36379086799E+02  0.41800000000E+01 0. -1.
        -11    1    1    2    0    0  0.32015313838E+02  0.33393186803E+02  0.15485543090E+03  0.16161772713E+03  0.00000000000E+00 0.  1.
         11    1    1    2    0    0 -0.61933878968E+02  0.28289811782E+02  0.18772787343E+03  0.19969444979E+03  0.00000000000E+00 0. -1.
</event>
<event>
 7    1  0.2842702E-009  0.7992496E+02  0.7561462E-02  0.1329265E+00
          1   -1    0    0  501    0  0.00000000000E+00  0.00000000000E+00  0.34717764598E+03  0.34717764598E+03  0.00000000000E+00 0. -1.
         -1   -1    0    0    0  501 -0.00000000000E+00 -0.00000000000E+00 -0.45154392595E+02  0.45154392595E+02  0.00000000000E+00 0.  1.
         25    2    1    2    0    0 -0.21228722821E+02 -0.57593819968E+02  0.16531359030E+03  0.21620058150E+03  0.12508557683E+03 0.  0.
          5    1    3    3  502    0  0.20047292727E+01  0.31598628809E+01 -0.19468118613E+02  0.20260397706E+02  0.41800000000E+01 0. -1.
         -5    1    3    3    0  502 -0.23233452094E+02 -0.60753682849E+02  0.18478170891E+03  0.19594018379E+03  0.41800000000E+01 0. -1.
        -11    1    1    2    0    0  0.42331879633E+02  0.52334966367E+02  0.13882204424E+03  0.15428057786E+03  0.00000000000E+00 0. -1.
         11    1    1    2    0    0 -0.21103156812E+02  0.52588536010E+01 -0.21123811486E+01  0.21850879221E+02  0.00000000000E+00 0.  1.
</event>
<event>
 7    1  0.2842702E-009  0.6488139E+02  0.7561462E-02  0.1378418E+00
         -2   -1    0    0    0  501 -0.00000000000E+00  0.00000000000E+00  0.24969087676E+02  0.24969087676E+02  0.00000000000E+00 0.  1.
          2   -1    0    0  501    0  0.00000000000E+00 -0.00000000000E+00 -0.59246400081E+03  0.59246400081E+03  0.00000000000E+00 0. -1.
         25    2    1    2    0    0 -0.99220412218E+01 -0.10724121551E+02 -0.45883525370E+03  0.47580465041E+03  0.12508725606E+03 0.  0.
          5    1    3    3  502    0 -0.14407815343E+02 -0.23225320735E+02 -0.46089993749E+03  0.46172851921E+03  0.41800000000E+01 0.  1.
         -5    1    3    3    0  502  0.44857741209E+01  0.12501199184E+02  0.20646837928E+01  0.14076131204E+02  0.41800000000E+01 0.  1.
        -11    1    1    2    0    0  0.43008117246E+01 -0.38452831621E+02 -0.64912419256E+02  0.75569434395E+02  0.00000000000E+00 0. -1.
         11    1    1    2    0    0  0.56212294972E+01  0.49176953172E+02 -0.43747240179E+02  0.66059003683E+02  0.00000000000E+00 0.  1.
</event>
<event>
 7    1  0.2842702E-009  0.9591069E+02  0.7561462E-02  0.1289138E+00
         -2   -1    0    0    0  501 -0.00000000000E+00  0.00000000000E+00  0.31429960601E+03  0.31429960601E+03  0.00000000000E+00 0. -1.
          2   -1    0    0  501    0  0.00000000000E+00 -0.00000000000E+00 -0.41482231317E+02  0.41482231317E+02  0.00000000000E+00 0.  1.
         25    2    1    2    0    0  0.13249035890E+02  0.20168005224E+02  0.17974361184E+03  0.22031304756E+03  0.12509111695E+03 0.  0.
          5    1    3    3  502    0  0.49931962674E+02  0.55713990040E+02  0.12133219816E+03  0.14260513418E+03  0.41800000000E+01 0. -1.
         -5    1    3    3    0  502 -0.36682926783E+02 -0.35545984816E+02  0.58411413678E+02  0.77707913380E+02  0.41800000000E+01 0. -1.
        -11    1    1    2    0    0  0.15229341129E+02 -0.31500654774E+02  0.98331226963E+02  0.10437075394E+03  0.00000000000E+00 0. -1.
         11    1    1    2    0    0 -0.28478377019E+02  0.11332649550E+02 -0.52574641105E+01  0.31098035828E+02  0.00000000000E+00 0.  1.
</event>
<event>
 7    1  0.2842702E-009  0.1532191E+03  0.7561462E-02  0.1196572E+00
          1   -1    0    0  501    0  0.00000000000E+00  0.00000000000E+00  0.71088400140E+03  0.71088400140E+03  0.00000000000E+00 0. -1.
         -1   -1    0    0    0  501 -0.00000000000E+00 -0.00000000000E+00 -0.42962379182E+02  0.42962379182E+02  0.00000000000E+00 0.  1.
         25    2    1    2    0    0 -0.17793163523E+02 -0.11787877684E+03  0.21255459677E+03  0.27393289378E+03  0.12509105078E+03 0.  0.
          5    1    3    3  502    0 -0.57284475447E+01  0.25729847587E+02  0.19838435646E+02  0.33254715410E+02  0.41800000000E+01 0.  1.
         -5    1    3    3    0  502 -0.12064715978E+02 -0.14360862443E+03  0.19271616113E+03  0.24067817837E+03  0.41800000000E+01 0.  1.
        -11    1    1    2    0    0  0.42330201857E+02  0.78182681776E+02  0.18157610991E+03  0.20217383958E+03  0.00000000000E+00 0.  1.
         11    1    1    2    0    0 -0.24537038335E+02  0.39696095065E+02  0.27379091554E+03  0.27773964723E+03  0.00000000000E+00 0. -1.
</event>
<event>
 7    1  0.2842702E-009  0.1125645E+03  0.7561462E-02  0.1255893E+00
         -1   -1    0    0    0  501 -0.00000000000E+00  0.00000000000E+00  0.24411650701E+02  0.24411650701E+02  0.00000000000E+00 0.  1.
          1   -1    0    0  501    0  0.00000000000E+00 -0.00000000000E+00 -0.65847110864E+03  0.65847110864E+03  0.00000000000E+00 0. -1.
         25    2    1    2    0    0  0.48403065708E+02  0.21806122666E+02 -0.24767443041E+03  0.28250398734E+03  0.12509003009E+03 0.  0.
          5    1    3    3  502    0  0.79120260086E+02  0.36548504499E+02 -0.10888352205E+03  0.13953100914E+03  0.41800000000E+01 0.  1.
         -5    1    3    3    0  502 -0.30717194379E+02 -0.14742381833E+02 -0.13879090836E+03  0.14297297820E+03  0.41800000000E+01 0.  1.
        -11    1    1    2    0    0  0.10613219312E+02 -0.40321629268E+02 -0.18832241126E+03  0.19288287844E+03  0.00000000000E+00 0.  1.
         11    1    1    2    0    0 -0.59016285019E+02  0.18515506602E+02 -0.19806261627E+03  0.20749589356E+03  0.00000000000E+00 0. -1.
</event>
<event>
 7    1  0.2842702E-009  0.9643934E+02  0.7561462E-02  0.1287967E+00
          2   -1    0    0  501    0  0.00000000000E+00  0.00000000000E+00  0.51867919725E+03  0.51867919725E+03  0.00000000000E+00 0. -1.
         -2   -1    0    0    0  501 -0.00000000000E+00 -0.00000000000E+00 -0.36457441237E+02  0.36457441237E+02  0.00000000000E+00 0.  1.
         25    2    1    2    0    0 -0.12402719168E+02 -0.78457823260E+02  0.32349622120E+03  0.35581900246E+03  0.12509156610E+03 0.  0.
          5    1    3    3  502    0 -0.73281568738E+01 -0.44292712420E+02  0.18324452373E+02  0.48670362763E+02  0.41800000000E+01 0. -1.
         -5    1    3    3    0  502 -0.50745622938E+01 -0.34165110840E+02  0.30517176882E+03  0.30714863970E+03  0.41800000000E+01 0. -1.
        -11    1    1    2    0    0 -0.15947933522E+02 -0.10856027883E+02  0.61212980664E+01  0.20240064601E+02  0.00000000000E+00 0.  1.
         11    1    1    2    0    0  0.28350652690E+02  0.89313851142E+02  0.15260423676E+03  0.17907757143E+03  0.00000000000E+00 0. -1.
</event>
<event>
 7    1  0.2842702E-009  0.2052951E+03  0.7561462E-02  0.1145347E+00
          4   -1    0    0  501    0  0.00000000000E+00  0.00000000000E+00  0.42036405962E+02  0.42036405962E+02  0.00000000000E+00 0.  1.
         -4   -1    0    0    0  501 -0.00000000000E+00 -0.00000000000E+00 -0.11825473520E+04  0.11825473520E+04  0.00000000000E+00 0. -1.
         25    2    1    2    0    0  0.91417092025E+02 -0.17116988238E+03 -0.62888020383E+03  0.66991997829E+03  0.12508498391E+03 0.  0.
          5    1    3    3  502    0  0.14105262953E+02 -0.10619611128E+03 -0.17752956818E+03  0.20739043486E+03  0.41800000000E+01 0.  1.
         -5    1    3    3    0  502  0.77311829072E+02 -0.64973771097E+02 -0.45135063565E+03  0.46252954343E+03  0.41800000000E+01 0.  1.
        -11    1    1    2    0    0 -0.99377759389E+02  0.15267063225E+03 -0.49819235586E+03  0.53045252799E+03  0.00000000000E+00 0. -1.
         11    1    1    2    0    0  0.79606673645E+01  0.18499250128E+02 -0.13438386344E+02  0.24211251676E+02  0.00000000000E+00 0.  1.
</event>
<event>
 7    1  0.2842702E-009  0.1044311E+03  0.7561462E-02  0.1271245E+00
          2   -1    0    0  501    0  0.00000000000E+00  0.00000000000E+00  0.87353706581E+03  0.87353706581E+03  0.00000000000E+00 0. -1.
         -2   -1    0    0    0  501 -0.00000000000E+00 -0.00000000000E+00 -0.22116445266E+02  0.22116445266E+02  0.00000000000E+00 0.  1.
         25    2    1    2    0    0 -0.53155718159E+02 -0.51234546585E+02  0.66074178106E+03  0.67651873293E+03  0.12508951048E+03 0.  0.
          5    1    3    3  502    0 -0.59107275761E+01  0.26627698927E+02  0.38723061178E+03  0.38821255795E+03  0.41800000000E+01 0.  1.
         -5    1    3    3    0  502 -0.47244990583E+02 -0.77862245513E+02  0.27351116928E+03  0.28830617498E+03  0.41800000000E+01 0.  1.
        -11    1    1    2    0    0 -0.82665568485E+01  0.19022053212E+02  0.55941299489E+01  0.21481823954E+02  0.00000000000E+00 0.  1.
         11    1    1    2    0    0  0.61422275008E+02  0.32212493374E+02  0.18508470954E+03  0.19765295419E+03  0.00000000000E+00 0. -1.
</event>
<event>
 7    1  0.2842702E-009  0.1493490E+03  0.7561462E-02  0.1201275E+00
          2   -1    0    0  501    0  0.00000000000E+00  0.00000000000E+00  0.12309446535E+04  0.12309446535E+04  0.00000000000E+00 0.  1.
         -2   -1    0    0    0  501 -0.00000000000E+00 -0.00000000000E+00 -0.27547794306E+02  0.27547794306E+02  0.00000000000E+00 0. -1.
         25    2    1    2    0    0  0.72744146141E+02  0.91506599374E+02  0.95007186363E+03  0.96537521534E+03  0.12509033459E+03 0.  0.
          5    1    3    3  502    0 -0.32630206424E+01  0.78753832811E+02  0.28130142238E+03  0.29216566554E+03  0.41800000000E+01 0.  1.
         -5    1    3    3    0  502  0.76007166783E+02  0.12752766562E+02  0.66877044125E+03  0.67320954981E+03  0.41800000000E+01 0.  1.
        -11    1    1    2    0    0 -0.81017898959E+02 -0.39886630012E+02  0.12213224909E+03  0.15189183478E+03  0.00000000000E+00 0. -1.
         11    1    1    2    0    0  0.82737528180E+01 -0.51619969362E+02  0.13119274645E+03  0.14122539766E+03  0.00000000000E+00 0.  1.
</event>
<event>
 7    1  0.2842702E-009  0.2080187E+03  0.7561462E-02  0.1143145E+00
          1   -1    0    0  501    0  0.00000000000E+00  0.00000000000E+00  0.58621404763E+03  0.58621404763E+03  0.00000000000E+00 0. -1.
         -1   -1    0    0    0  501 -0.00000000000E+00 -0.00000000000E+00 -0.82200414853E+02  0.82200414853E+02  0.00000000000E+00 0.  1.
         25    2    1    2    0    0 -0.25350055014E+02  0.18789719213E+03  0.25098632119E+03  0.33851097349E+03  0.12509023005E+03 0.  0.
          5    1    3    3  502    0 -0.67920669159E+02  0.15768520918E+03  0.21402612561E+03  0.27441300505E+03  0.41800000000E+01 0. -1.
         -5    1    3    3    0  502  0.42570614145E+02  0.30211982945E+02  0.36960195573E+02  0.64097968446E+02  0.41800000000E+01 0. -1.
        -11    1    1    2    0    0  0.25772066131E+02 -0.80422572185E+02  0.18322257308E+03  0.20174860791E+03  0.00000000000E+00 0.  1.
         11    1    1    2    0    0 -0.42201111692E+00 -0.10747461994E+03  0.69804738510E+02  0.12815488108E+03  0.00000000000E+00 0. -1.
</event>
<event>
 7    1  0.2842702E-009  0.5943033E+02  0.7561462E-02  0.1400238E+00
          1   -1    0    0  501    0  0.00000000000E+00  0.00000000000E+00  0.55517170951E+02  0.55517170951E+02  0.00000000000E+00 0. -1.
         -1   -1    0    0    0  501 -0.00000000000E+00 -0.00000000000E+00 -0.28182124867E+03  0.28182124867E+03  0.00000000000E+00 0.  1.
         25    2    1    2    0    0  0.12232791851E+02 -0.10101517858E+01 -0.52136380841E+02  0.13607651515E+03  0.12509178297E+03 0.  0.
          5    1    3    3  502    0 -0.73210310561E+01  0.24854291437E+02  0.34574486201E+02  0.43407381799E+02  0.41800000000E+01 0.  1.
         -5    1    3    3    0  502  0.19553822907E+02 -0.25864443223E+02 -0.86710867042E+02  0.92669133355E+02  0.41800000000E+01 0.  1.
        -11    1    1    2    0    0  0.45847105797E+01  0.27863561672E+02 -0.16621171594E+03  0.16859339298E+03  0.00000000000E+00 0.  1.
         11    1    1    2    0    0 -0.16817502431E+02 -0.26853409886E+02 -0.79559809424E+01  0.32668511494E+02  0.00000000000E+00 0. -1.
</event>
<event>
 7    1  0.2842702E-009  0.8034863E+02  0.7561462E-02  0.1328065E+00
          2   -1    0    0  501    0  0.00000000000E+00  0.00000000000E+00  0.68816330162E+03  0.68816330162E+03  0.00000000000E+00 0.  1.
         -2   -1    0    0    0  501 -0.00000000000E+00 -0.00000000000E+00 -0.16495982479E+02  0.16495982479E+02  0.00000000000E+00 0. -1.
         25    2    1    2    0    0  0.76246145365E+01 -0.15759593271E+02  0.38306870088E+03  0.40335543886E+03  0.12508989141E+03 0.  0.
          5    1    3    3  502    0  0.45156688835E+02 -0.33019996479E+01  0.48688013959E+02  0.66618502321E+02  0.41800000000E+01 0.  1.
         -5    1    3    3    0  502 -0.37532074299E+02 -0.12457593623E+02  0.33438068692E+03  0.33673693654E+03  0.41800000000E+01 0.  1.
        -11    1    1    2    0    0 -0.39866416078E+02  0.69109989841E+00  0.76775278547E+02  0.86511572324E+02  0.00000000000E+00 0. -1.
         11    1    1    2    0    0  0.32241801542E+02  0.15068493372E+02  0.21182333971E+03  0.21479227291E+03  0.00000000000E+00 0.  1.
</event>
<event>
 7    1  0.2842702E-009  0.1036711E+03  0.7561462E-02  0.1272760E+00
          2   -1    0    0  501    0  0.00000000000E+00  0.00000000000E+00  0.32618629544E+03  0.32618629544E+03  0.00000000000E+00 0. -1.
         -2   -1    0    0    0  501 -0.00000000000E+00 -0.00000000000E+00 -0.56178922312E+02  0.56178922312E+02  0.00000000000E+00 0.  1.
         25    2    1    2    0    0 -0.11033247295E+02  0.31234750640E+02  0.44208294599E+02  0.13673704546E+03  0.12508119002E+03 0.  0.
          5    1    3    3  502    0  0.18658167559E+02 -0.33917945242E+02 -0.16964360596E+02  0.42471356895E+02  0.41800000000E+01 0.  1.
         -5    1    3    3    0  502 -0.29691414853E+02  0.65152695883E+02  0.61172655195E+02  0.94265688564E+02  0.41800000000E+01 0.  1.
        -11    1    1    2    0    0  0.39377165649E+02 -0.49283194708E+02  0.14721122869E+03  0.16015786058E+03  0.00000000000E+00 0. -1.
         11    1    1    2    0    0 -0.28343918354E+02  0.18048444068E+02  0.78587849845E+02  0.85470311712E+02  0.00000000000E+00 0.  1.
</event>
<event>
 7    1  0.2842702E-009  0.1464418E+03  0.7561462E-02  0.1204915E+00
          2   -1    0    0  501    0  0.00000000000E+00  0.00000000000E+00  0.28370551883E+03  0.28370551883E+03  0.00000000000E+00 0. -1.
         -2   -1    0    0    0  501 -0.00000000000E+00 -0.00000000000E+00 -0.10530749364E+03  0.10530749364E+03  0.00000000000E+00 0.  1.
         25    2    1    2    0    0 -0.63396867880E+02 -0.11640122927E+03  0.11786637432E+03  0.21703980487E+03  0.12508151610E+03 0.  0.
          5    1    3    3  502    0 -0.30013603214E+02 -0.30274377560E+02  0.11697444053E+03  0.12457064844E+03  0.41800000000E+01 0.  1.
         -5    1    3    3    0  502 -0.33383264666E+02 -0.86126851712E+02  0.89193378879E+00  0.92469156433E+02  0.41800000000E+01 0.  1.
        -11    1    1    2    0    0  0.19857802053E+02 -0.11172602121E+02  0.22243110558E+02  0.31842036804E+02  0.00000000000E+00 0. -1.
         11    1    1    2    0    0  0.43539065827E+02  0.12757383139E+03  0.38288540318E+02  0.14013117080E+03  0.00000000000E+00 0.  1.
</event>
<event>
 7    1  0.2842702E-009  0.1935098E+03  0.7561462E-02  0.1155333E+00
         -1   -1    0    0    0  501 -0.00000000000E+00  0.00000000000E+00  0.25128520212E+03  0.25128520212E+03  0.00000000000E+00 0.  1.
          1   -1    0    0  501    0  0.00000000000E+00 -0.00000000000E+00 -0.16193846846E+03  0.16193846846E+03  0.00000000000E+00 0. -1.
         25    2    1    2    0    0 -0.15990297761E+03  0.37995868892E+02  0.43234242075E+01  0.20660423501E+03  0.12511582484E+03 0.  0.
          5    1    3    3  502    0 -0.34103687427E+02 -0.39126677509E+02  0.24619810568E+02  0.57598314744E+02  0.41800000000E+01 0.  1.
         -5    1    3    3    0  502 -0.12579929018E+03  0.77122546401E+02 -0.20296386360E+02  0.14900592026E+03  0.41800000000E+01 0.  1.
        -11    1    1    2    0    0  0.43251327150E+02 -0.54435879168E+02  0.41866192357E+02  0.81158612011E+02  0.00000000000E+00 0.  1.
         11    1    1    2    0    0  0.11665165046E+03  0.16440010276E+02  0.43157117101E+02  0.12546082356E+03  0.00000000000E+00 0. -1.
</event>
<event>
 7    1  0.2842702E-009  0.8421928E+02  0.7561462E-02  0.1317487E+00
         -2   -1    0    0    0  501 -0.00000000000E+00  0.00000000000E+00  0.26852121059E+03  0.26852121059E+03  0.00000000000E+00 0.  1.
          2   -1    0    0  501    0  0.00000000000E+00 -0.00000000000E+00 -0.10345469388E+03  0.10345469388E+03  0.00000000000E+00 0. -1.
         25    2    1    2    0    0 -0.58140848491E+02  0.20902841546E+01 -0.37977500064E+02  0.14308618413E+03  0.12508652216E+03 0.  0.
          5    1    3    3  502    0 -0.21953205085E+02 -0.14163570879E+02  0.44328021782E+02  0.51623597983E+02  0.41800000000E+01 0. -1.
         -5    1    3    3    0  502 -0.36187643406E+02  0.16253855034E+02 -0.82305521846E+02  0.91462586149E+02  0.41800000000E+01 0. -1.
        -11    1    1    2    0    0 -0.21174073132E+02  0.68950718211E+01  0.72817118517E+02  0.76146018527E+02  0.00000000000E+00 0.  1.
         11    1    1    2    0    0  0.79314921623E+02 -0.89853559757E+01  0.13022689826E+03  0.15274370181E+03  0.00000000000E+00 0. -1.
</event>
<event>
 7    1  0.2842702E-009  0.1221066E+03  0.7561462E-02  0.1239662E+00
         -1   -1    0    0    0  501 -0.00000000000E+00  0.00000000000E+00  0.33687346932E+03  0.33687346932E+03  0.00000000000E+00 0.  1.
          1   -1    0    0  501    0  0.00000000000E+00 -0.00000000000E+00 -0.62439692780E+02  0.62439692780E+02  0.00000000000E+00 0. -1.
         25    2    1    2    0    0  0.75642598194E+02 -0.42130917161E+02  0.20314459011E+03  0.25379609382E+03  0.12509163004E+03 0.  0.
          5    1    3    3  502    0  0.82828353236E+02 -0.64167098307E+02  0.89878019985E+02  0.13810678289E+03  0.41800000000E+01 0.  1.
         -5    1    3    3    0  502 -0.71857550419E+01  0.22036181145E+02  0.11326657013E+03  0.11568931093E+03  0.41800000000E+01 0.  1.
        -11    1    1    2    0    0 -0.28733746348E+02 -0.22111271087E+02 -0.33832335366E+01  0.36414046156E+02  0.00000000000E+00 0.  1.
         11    1    1    2    0    0 -0.46908851846E+02  0.64242188248E+02  0.74672419961E+02  0.10910302212E+03  0.00000000000E+00 0. -1.
</event>
<event>
 7    1  0.2842702E-009  0.2702110E+03  0.7561462E-02  0.1101159E+00
         -1   -1    0    0    0  501 -0.00000000000E+00  0.00000000000E+00  0.21668478608E+03  0.21668478608E+03  0.00000000000E+00 0.  1.
          1   -1    0    0  501    0  0.00000000000E+00 -0.00000000000E+00 -0.44731105451E+03  0.44731105451E+03  0.00000000000E+00 0. -1.
         25    2    1    2    0    0 -0.11623945891E+02 -0.25609973752E+03  0.30813085082E+02  0.28691236358E+03  0.12508823481E+03 0.  0.
          5    1    3    3  502    0 -0.33444790659E+02 -0.23779501720E+03 -0.59181727226E+01  0.24024471148E+03  0.41800000000E+01 0. -1.
         -5    1    3    3    0  502  0.21820844767E+02 -0.18304720319E+02  0.36731257805E+02  0.46667652097E+02  0.41800000000E+01 0. -1.
        -11    1    1    2    0    0 -0.35917448667E+02  0.16319932662E+03 -0.15263179119E+03  0.22631956833E+03  0.00000000000E+00 0.  1.
         11    1    1    2    0    0  0.47541394558E+02  0.92900410897E+02 -0.10880756232E+03  0.15076390868E+03  0.00000000000E+00 0. -1.
</event>
<event>
 7    1  0.2842702E-009  0.1230188E+03  0.7561462E-02  0.1238198E+00
         -2   -1    0    0    0  501 -0.00000000000E+00  0.00000000000E+00  0.39631777408E+02  0.39631777408E+02  0.00000000000E+00 0.  1.
          2   -1    0    0  501    0  0.00000000000E+00 -0.00000000000E+00 -0.42177620511E+03  0.42177620511E+03  0.00000000000E+00 0. -1.
         25    2    1    2    0    0  0.30205916762E+02  0.59669324862E+02 -0.26080623093E+03  0.29688145952E+03  0.12508351281E+03 0.  0.
          5    1    3    3  502    0  0.75171919148E+02  0.58946535965E+02 -0.15954690195E+03  0.18600590811E+03  0.41800000000E+01 0.  1.
         -5    1    3    3    0  502 -0.44966002386E+02  0.72278889734E+00 -0.10125932898E+03  0.11087555140E+03  0.41800000000E+01 0.  1.
        -11    1    1    2    0    0 -0.29392556990E+02  0.13312414061E+02 -0.64135751309E+02  0.71795106871E+02  0.00000000000E+00 0.  1.
         11    1    1    2    0    0 -0.81335977182E+00 -0.72981738924E+02 -0.57202445466E+02  0.92731416131E+02  0.00000000000E+00 0. -1.
</event>
<event>
 7    1  0.2842702E-009  0.1543787E+03  0.7561462E-02  0.1195193E+00
          2   -1    0    0  501    0  0.00000000000E+00  0.00000000000E+00  0.60078873905E+03  0.60078873905E+03  0.00000000000E+00 0. -1.
         -2   -1    0    0    0  501 -0.00000000000E+00 -0.00000000000E+00 -0.46552228994E+02  0.46552228994E+02  0.00000000000E+00 0.  1.
         25    2    1    2    0    0 -0.16626984408E+01  0.10621151520E+03  0.33169059910E+03  0.37006820886E+03  0.12509266625E+03 0.  0.
          5    1    3    3  502    0  0.31046723217E+02 -0.34314945831E+01  0.18356117590E+02  0.36470448730E+02  0.41800000000E+01 0. -1.
         -5    1    3    3    0  502 -0.32709421658E+02  0.10964300979E+03  0.31333448151E+03  0.33359776013E+03  0.41800000000E+01 0. -1.
        -11    1    1    2    0    0 -0.36943462292E+02  0.11640867803E+02  0.75952568628E+02  0.85259145495E+02  0.00000000000E+00 0.  1.
         11    1    1    2    0    0  0.38606160733E+02 -0.11785238301E+03  0.14659334232E+03  0.19201361369E+03  0.00000000000E+00 0. -1.
</event>
<event>
 7    1  0.2842702E-009  0.1160064E+03  0.7561462E-02  0.1249834E+00
          2   -1    0    0  501    0  0.00000000000E+00  0.00000000000E+00  0.46135250911E+03  0.46135250911E+03  0.00000000000E+00 0.  1.
         -2   -1    0    0    0  501 -0.00000000000E+00 -0.00000000000E+00 -0.38479806073E+02  0.38479806073E+02  0.00000000000E+00 0. -1.
         25    2    1    2    0    0 -0.18458187775E+02  0.55149761358E+02  0.33535845007E+03  0.36262025261E+03  0.12508379870E+03 0.  0.
          5    1    3    3  502    0  0.47365783737E+02  0.37722957092E+02  0.22354568474E+03  0.23163912564E+03  0.41800000000E+01 0. -1.
         -5    1    3    3    0  502 -0.65823971512E+02  0.17426804267E+02  0.11181276533E+03  0.13098112698E+03  0.41800000000E+01 0. -1.
        -11    1    1    2    0    0  0.24807971135E+02  0.17379624891E+02  0.12779632394E+02  0.32875610980E+02  0.00000000000E+00 0. -1.
         11    1    1    2    0    0 -0.63497833599E+01 -0.72529386249E+02  0.74734620569E+02  0.10433645159E+03  0.00000000000E+00 0.  1.
</event>
<event>
 7    1  0.2842702E-009  0.1353316E+03  0.7561462E-02  0.1219752E+00
         -1   -1    0    0    0  501 -0.00000000000E+00  0.00000000000E+00  0.45789936056E+02  0.45789936056E+02  0.00000000000E+00 0.  1.
          1   -1    0    0  501    0  0.00000000000E+00 -0.00000000000E+00 -0.40835234105E+03  0.40835234105E+03  0.00000000000E+00 0. -1.
         25    2    1    2    0    0 -0.18344332177E+02  0.81511510122E+02 -0.21504621702E+03  0.26242672786E+03  0.12506906585E+03 0.  0.
          5    1    3    3  502    0  0.50579758310E+02  0.14155786843E+02 -0.60288987192E+02  0.80068299773E+02  0.41800000000E+01 0.  1.
         -5    1    3    3    0  502 -0.68924090487E+02  0.67355723278E+02 -0.15475722983E+03  0.18235842808E+03  0.41800000000E+01 0.  1.
        -11    1    1    2    0    0  0.54054631710E+02 -0.43763905896E+02 -0.72558499387E+02  0.10050830066E+03  0.00000000000E+00 0. -1.
         11    1    1    2    0    0 -0.35710299533E+02 -0.37747604225E+02 -0.74957688581E+02  0.91207248588E+02  0.00000000000E+00 0.  1.
</event>
<event>
 7    1  0.2842702E-009  0.1061623E+03  0.7561462E-02  0.1267846E+00
          1   -1    0    0  501    0  0.00000000000E+00  0.00000000000E+00  0.12877971732E+02  0.12877971732E+02  0.00000000000E+00 0. -1.
         -1   -1    0    0    0  501 -0.00000000000E+00 -0.00000000000E+00 -0.14625756129E+04  0.14625756129E+04  0.00000000000E+00 0.  1.
         25    2    1    2    0    0 -0.48801299844E+02  0.19303377260E+02 -0.11209291291E+04  0.11291077108E+04  0.12509165777E+03 0.  0.
          5    1    3    3  502    0 -0.40923088294E+02  0.67420490973E+02 -0.86079320501E+03  0.86440883611E+03  0.41800000000E+01 0.  1.
         -5    1    3    3    0  502 -0.78782115507E+01 -0.48117113713E+02 -0.26013592413E+03  0.26469887471E+03  0.41800000000E+01 0.  1.
        -11    1    1    2    0    0  0.75533978108E+01  0.23668155113E+02 -0.20027066031E+02  0.31911107138E+02  0.00000000000E+00 0. -1.
         11    1    1    2    0    0  0.41247902034E+02 -0.42971532372E+02 -0.30874144603E+03  0.31443476670E+03  0.00000000000E+00 0.  1.
</event>
<event>
 7    1  0.2842702E-009  0.3641199E+03  0.7561462E-02  0.1056964E+00
          1   -1    0    0  501    0  0.00000000000E+00  0.00000000000E+00  0.59228092343E+03  0.59228092343E+03  0.00000000000E+00 0. -1.
         -1   -1    0    0    0  501 -0.00000000000E+00 -0.00000000000E+00 -0.34041046679E+03  0.34041046679E+03  0.00000000000E+00 0.  1.
         25    2    1    2    0    0 -0.27192592557E+03 -0.23461399438E+03 -0.12880336915E+03  0.40152644243E+03  0.12508293530E+03 0.  0.
          5    1    3    3  502    0 -0.19169772776E+03 -0.12856671619E+03 -0.13662348848E+03  0.26825523172E+03  0.41800000000E+01 0.  1.
         -5    1    3    3    0  502 -0.80228197811E+02 -0.10604727819E+03  0.78201193300E+01  0.13327121070E+03  0.41800000000E+01 0.  1.
        -11    1    1    2    0    0  0.17264723299E+03  0.10878095613E+03  0.16481520244E+03  0.26230595577E+03  0.00000000000E+00 0.  1.
         11    1    1    2    0    0  0.99278692582E+02  0.12583303825E+03  0.21585862335E+03  0.26885899202E+03  0.00000000000E+00 0. -1.
</event>
<event>
 7    1  0.2842702E-009  0.8463027E+02  0.7561462E-02  0.1316402E+00
         -1   -1    0    0    0  501 -0.00000000000E+00  0.00000000000E+00  0.11377965578E+03  0.11377965578E+03  0.00000000000E+00 0.  1.
          1   -1    0    0  501    0  0.00000000000E+00 -0.00000000000E+00 -0.20870313082E+03  0.20870313082E+03  0.00000000000E+00 0. -1.
         25    2    1    2    0    0  0.37491995150E+02  0.23363128526E+02 -0.15569758317E+03  0.20453217091E+03  0.12506072948E+03 0.  0.
          5    1    3    3  502    0  0.55666664691E+02 -0.68425262288E+01 -0.15921789699E+03  0.16885913906E+03  0.41800000000E+01 0.  1.
         -5    1    3    3    0  502 -0.18174669541E+02  0.30205654755E+02  0.35203138208E+01  0.35673031852E+02  0.41800000000E+01 0.  1.
        -11    1    1    2    0    0  0.17777567428E+02 -0.71915706238E+00 -0.13720531899E+02  0.22468023636E+02  0.00000000000E+00 0. -1.
         11    1    1    2    0    0 -0.55269562578E+02 -0.22643971464E+02  0.74494640033E+02  0.95482592051E+02  0.00000000000E+00 0.  1.
</event>
<event>
 7    1  0.2842702E-009  0.1480818E+03  0.7561462E-02  0.1202850E+00
          2   -1    0    0  501    0  0.00000000000E+00  0.00000000000E+00  0.11946861530E+03  0.11946861530E+03  0.00000000000E+00 0.  1.
         -2   -1    0    0    0  501 -0.00000000000E+00 -0.00000000000E+00 -0.22852380291E+03  0.22852380291E+03  0.00000000000E+00 0. -1.
         25    2    1    2    0    0  0.12288099333E+03  0.57696709848E+01 -0.39586633860E+02  0.17985455136E+03  0.12509008929E+03 0.  0.
          5    1    3    3  502    0  0.29752754274E+02  0.58703082078E+02 -0.29296306677E+02  0.72159713257E+02  0.41800000000E+01 0. -1.
         -5    1    3    3    0  502  0.93128239058E+02 -0.52933411094E+02 -0.10290327183E+02  0.10769483810E+03  0.41800000000E+01 0. -1.
        -11    1    1    2    0    0 -0.75398409716E+02 -0.34722756787E+01  0.93886564550E+01  0.76060001026E+02  0.00000000000E+00 0.  1.
         11    1    1    2    0    0 -0.47482583616E+02 -0.22973953061E+01 -0.78857210212E+02  0.92077865823E+02  0.00000000000E+00 0. -1.
</event>
<event>
 7    1  0.2842702E-009  0.1105181E+03  0.7561462E-02  0.1259614E+00
          4   -1    0    0  501    0  0.00000000000E+00  0.00000000000E+00  0.28619532502E+02  0.28619532502E+02  0.00000000000E+00 0. -1.
         -4   -1    0    0    0  501 -0.00000000000E+00 -0.00000000000E+00 -0.56332258330E+03  0.56332258330E+03  0.00000000000E+00 0.  1.
         25    2    1    2    0    0  0.34870654442E+02 -0.32769340418E+02 -0.40595190800E+03  0.42747385544E+03  0.12508858168E+03 0.  0.
          5    1    3    3  502    0  0.53016405082E+02 -0.67963459928E+02 -0.33678054225E+03  0.34766129657E+03  0.41800000000E+01 0.  1.
         -5    1    3    3    0  502 -0.18145750641E+02  0.35194119510E+02 -0.69171365749E+02  0.79812558874E+02  0.41800000000E+01 0.  1.
        -11    1    1    2    0    0  0.24417424547E+02 -0.45898133203E+01 -0.65552153727E+02  0.70102509699E+02  0.00000000000E+00 0.  1.
         11    1    1    2    0    0 -0.59288078989E+02  0.37359153738E+02 -0.63198989072E+02  0.94365750661E+02  0.00000000000E+00 0. -1.
</event>
<event>
 7    1  0.2842702E-009  0.1191510E+03  0.7561462E-02  0.1244504E+00
          1   -1    0    0  501    0  0.00000000000E+00  0.00000000000E+00  0.11551621629E+03  0.11551621629E+03  0.00000000000E+00 0. -1.
         -1   -1    0    0    0  501 -0.00000000000E+00 -0.00000000000E+00 -0.24533653772E+03  0.24533653772E+03  0.00000000000E+00 0.  1.
         25    2    1    2    0    0  0.82129241768E+02  0.35036328130E+01 -0.17628103140E+03  0.23125761390E+03  0.12509034399E+03 0.  0.
          5    1    3    3  502    0  0.66070600074E+02  0.60269266909E+02 -0.11907152055E+03  0.14897385051E+03  0.41800000000E+01 0.  1.
         -5    1    3    3    0  502  0.16058641694E+02 -0.56765634096E+02 -0.57209510848E+02  0.82283763397E+02  0.41800000000E+01 0.  1.
        -11    1    1    2    0    0 -0.62311450535E+02 -0.18252186756E+02 -0.12090626442E+02  0.66045760173E+02  0.00000000000E+00 0.  1.
         11    1    1    2    0    0 -0.19817791233E+02  0.14748553943E+02  0.58551336421E+02  0.63549379930E+02  0.00000000000E+00 0. -1.
</event>
<event>
 7    1  0.2842702E-009  0.1714817E+03  0.7561462E-02  0.1176311E+00
          2   -1    0    0  501    0  0.00000000000E+00  0.00000000000E+00  0.79054676787E+03  0.79054676787E+03  0.00000000000E+00 0. -1.
         -2   -1    0    0    0  501 -0.00000000000E+00 -0.00000000000E+00 -0.64116094697E+02  0.64116094697E+02  0.00000000000E+00 0.  1.
         25    2    1    2    0    0 -0.14524476386E+03 -0.33834547635E+02  0.62071600957E+03  0.65051886337E+03  0.12508240891E+03 0.  0.
          5    1    3    3  502    0 -0.31999810474E+02  0.25468130670E+02  0.45786539641E+02  0.61534487586E+02  0.41800000000E+01 0.  1.
         -5    1    3    3    0  502 -0.11324495339E+03 -0.59302678305E+02  0.57492946993E+03  0.58898437579E+03  0.41800000000E+01 0.  1.
        -11    1    1    2    0    0  0.42932035212E+02  0.54697026496E+02  0.51212489058E+02  0.86357648129E+02  0.00000000000E+00 0. -1.
         11    1    1    2    0    0  0.10231272865E+03 -0.20862478861E+02  0.54502174538E+02  0.11778635106E+03  0.00000000000E+00 0.  1.
</event>
<event>
 7    1  0.2842702E-009  0.1228326E+03  0.7561462E-02  0.1238496E+00
          2   -1    0    0  501    0  0.00000000000E+00  0.00000000000E+00  0.15543171722E+04  0.15543171722E+04  0.00000000000E+00 0. -1.
         -2   -1    0    0    0  501 -0.00000000000E+00 -0.00000000000E+00 -0.12287907921E+02  0.12287907921E+02  0.00000000000E+00 0.  1.
         25    2    1    2    0    0  0.56764864177E+02 -0.20125923635E+02  0.10555096994E+04  0.10646011754E+04  0.12509050520E+03 0.  0.
          5    1    3    3  502    0 -0.32253277123E+02 -0.10959849154E+02  0.11998648754E+03  0.12479832439E+03  0.41800000000E+01 0. -1.
         -5    1    3    3    0  502  0.89018141301E+02 -0.91660744804E+01  0.93552321185E+03  0.93980285098E+03  0.41800000000E+01 0. -1.
        -11    1    1    2    0    0 -0.60387252545E+02 -0.32792504013E+02  0.31774575218E+03  0.32509126660E+03  0.00000000000E+00 0. -1.
         11    1    1    2    0    0  0.36223883674E+01  0.52918427647E+02  0.16877381275E+03  0.17691263819E+03  0.00000000000E+00 0.  1.
</event>
<event>
 7    1  0.2842702E-009  0.1282416E+03  0.7561462E-02  0.1230089E+00
         -3   -1    0    0    0  501 -0.00000000000E+00  0.00000000000E+00  0.29003832452E+03  0.29003832452E+03  0.00000000000E+00 0.  1.
          3   -1    0    0  501    0  0.00000000000E+00 -0.00000000000E+00 -0.64229802998E+02  0.64229802998E+02  0.00000000000E+00 0. -1.
         25    2    1    2    0    0 -0.74335177285E+02  0.35873558652E+02  0.11026085754E+03  0.18605876217E+03  0.12509106876E+03 0.  0.
          5    1    3    3  502    0 -0.84087689348E+02 -0.24884449332E+02  0.58036745515E+02  0.10524120651E+03  0.41800000000E+01 0.  1.
         -5    1    3    3    0  502  0.97525120628E+01  0.60758007984E+02  0.52224112021E+02  0.80817555655E+02  0.41800000000E+01 0.  1.
        -11    1    1    2    0    0  0.74768025176E+02 -0.37236719060E+01  0.37352890836E+02  0.83662188442E+02  0.00000000000E+00 0. -1.
         11    1    1    2    0    0 -0.43284789081E+00 -0.32149886746E+02  0.78194773147E+02  0.84547176905E+02  0.00000000000E+00 0.  1.
</event>
<event>
 7    1  0.2842702E-009  0.1263134E+03  0.7561462E-02  0.1233031E+00
          2   -1    0    0  501    0  0.00000000000E+00  0.00000000000E+00  0.11787544300E+04  0.11787544300E+04  0.00000000000E+00 0. -1.
         -2   -1    0    0    0  501 -0.00000000000E+00 -0.00000000000E+00 -0.16511243769E+02  0.16511243769E+02  0.00000000000E+00 0.  1.
         25    2    1    2    0    0  0.25382796052E+02  0.60710849359E+02  0.55556877671E+03  0.57326617636E+03  0.12508936699E+03 0.  0.
          5    1    3    3  502    0  0.13238469520E+02 -0.25206309136E+02  0.34138622006E+02  0.44648997839E+02  0.41800000000E+01 0. -1.
         -5    1    3    3    0  502  0.12144326532E+02  0.85917158495E+02  0.52143015471E+03  0.52861717852E+03  0.41800000000E+01 0. -1.
        -11    1    1    2    0    0 -0.20048398595E+02 -0.97634395868E+02  0.42449901998E+03  0.43604338260E+03  0.00000000000E+00 0.  1.
         11    1    1    2    0    0 -0.53343974570E+01  0.36923546509E+02  0.18217538958E+03  0.18595611486E+03  0.00000000000E+00 0. -1.
</event>
<event>
 7    1  0.2842702E-009  0.1306318E+03  0.7561462E-02  0.1226521E+00
         -4   -1    0    0    0  501 -0.00000000000E+00  0.00000000000E+00  0.12615440931E+03  0.12615440931E+03  0.00000000000E+00 0.  1.
          4   -1    0    0  501    0  0.00000000000E+00 -0.00000000000E+00 -0.31085669447E+03  0.31085669447E+03  0.00000000000E+00 0. -1.
         25    2    1    2    0    0  0.23866725539E+02 -0.99131996494E+02  0.47061480641E+02  0.16810641888E+03  0.12509281271E+03 0.  0.
          5    1    3    3  502    0 -0.46719433690E+02 -0.15874287442E+02  0.91893082593E+00  0.49527924648E+02  0.41800000000E+01 0. -1.
         -5    1    3    3    0  502  0.70586159229E+02 -0.83257709052E+02  0.46142549815E+02  0.11857849423E+03  0.41800000000E+01 0. -1.
        -11    1    1    2    0    0 -0.19774673596E+02  0.60185544892E+02 -0.44076781781E+02  0.77175774839E+02  0.00000000000E+00 0. -1.
         11    1    1    2    0    0 -0.40920519424E+01  0.38946451601E+02 -0.18768698402E+03  0.19172891006E+03  0.00000000000E+00 0.  1.
</event>
<event>
 7    1  0.2842702E-009  0.1979486E+03  0.7561462E-02  0.1151481E+00
         -2   -1    0    0    0  501 -0.00000000000E+00  0.00000000000E+00  0.31717175820E+02  0.31717175820E+02  0.00000000000E+00 0.  1.
          2   -1    0    0  501    0  0.00000000000E+00 -0.00000000000E+00 -0.19346865402E+04  0.19346865402E+04  0.00000000000E+00 0. -1.
         25    2    1    2    0    0 -0.93325021151E+02 -0.14778537774E+03 -0.15272578573E+04  0.15423088752E+04  0.12510006560E+03 0.  0.
          5    1    3    3  502    0 -0.11860821916E+03 -0.14532138049E+03 -0.13957710445E+04  0.14083254221E+04  0.41800000000E+01 0. -1.
         -5    1    3    3    0  502  0.25283198011E+02 -0.24639972452E+01 -0.13148681278E+03  0.13398345315E+03  0.41800000000E+01 0. -1.
        -11    1    1    2    0    0  0.73849758457E+01  0.57147018488E+02 -0.20254612312E+03  0.21058312273E+03  0.00000000000E+00 0. -1.
         11    1    1    2    0    0  0.85940045305E+02  0.90638359251E+02 -0.17316538397E+03  0.21351171808E+03  0.00000000000E+00 0.  1.
</event>
<event>
 7    1  0.2842702E-009  0.1287213E+03  0.7561462E-02  0.1229365E+00
         -1   -1    0    0    0  501 -0.00000000000E+00  0.00000000000E+00  0.36052418239E+02  0.36052418239E+02  0.00000000000E+00 0.  1.
          1   -1    0    0  501    0  0.00000000000E+00 -0.00000000000E+00 -0.78896401505E+03  0.78896401505E+03  0.00000000000E+00 0. -1.
         25    2    1    2    0    0  0.62141673954E+02  0.99968900511E+02 -0.53128908891E+03  0.55836691469E+03  0.12510054645E+03 0.  0.
          5    1    3    3  502    0  0.93618370204E+01  0.83600127779E+02 -0.46213404346E+03  0.46974671035E+03  0.41800000000E+01 0.  1.
         -5    1    3    3    0  502  0.52779836934E+02  0.16368772732E+02 -0.69155045442E+02  0.88620204342E+02  0.41800000000E+01 0.  1.
        -11    1    1    2    0    0 -0.47499374774E+02 -0.72579280140E+02 -0.68827990185E+02  0.11073045987E+03  0.00000000000E+00 0.  1.
         11    1    1    2    0    0 -0.14642299180E+02 -0.27389620371E+02 -0.15279451772E+03  0.15591905872E+03  0.00000000000E+00 0. -1.
</event>
<event>
 7    1  0.2842702E-009  0.1556266E+03  0.7561462E-02  0.1193725E+00
         -1   -1    0    0    0  501 -0.00000000000E+00  0.00000000000E+00  0.36942527245E+03  0.36942527245E+03  0.00000000000E+00 0.  1.
          1   -1    0    0  501    0  0.00000000000E+00 -0.00000000000E+00 -0.93224784667E+02  0.93224784667E+02  0.00000000000E+00 0. -1.
         25    2    1    2    0    0 -0.16344972733E+02  0.14817393906E+03  0.16971681192E+03  0.25821642286E+03  0.12509696413E+03 0.  0.
          5    1    3    3  502    0 -0.13452578220E+02  0.40186441603E+02  0.13966129627E+03  0.14600915048E+03  0.41800000000E+01 0. -1.
         -5    1    3    3    0  502 -0.28923945132E+01  0.10798749746E+03  0.30055515656E+02  0.11220727238E+03  0.41800000000E+01 0. -1.
        -11    1    1    2    0    0  0.38943840413E+02 -0.85935804136E+02  0.10066028455E+03  0.13796404613E+03  0.00000000000E+00 0.  1.
         11    1    1    2    0    0 -0.22598867680E+02 -0.62238134928E+02  0.58233913138E+01  0.66469588129E+02  0.00000000000E+00 0. -1.
</event>
<event>
 7    1  0.2842702E-009  0.9303201E+02  0.7561462E-02  0.1295671E+00
          4   -1    0    0  501    0  0.00000000000E+00  0.00000000000E+00  0.26998189479E+02  0.26998189479E+02  0.00000000000E+00 0. -1.
         -4   -1    0    0    0  501 -0.00000000000E+00 -0.00000000000E+00 -0.68167246869E+03  0.68167246869E+03  0.00000000000E+00 0.  1.
         25    2    1    2    0    0  0.53954663321E+02  0.34987125445E+02 -0.46575734322E+03  0.48653192936E+03  0.12509280910E+03 0.  0.
          5    1    3    3  502    0  0.73110839998E+02  0.44112013932E+02 -0.45387546955E+03  0.46185655669E+03  0.41800000000E+01 0.  1.
         -5    1    3    3    0  502 -0.19156176677E+02 -0.91248884861E+01 -0.11881873670E+02  0.24675372675E+02  0.41800000000E+01 0.  1.
        -11    1    1    2    0    0 -0.44370521725E+02 -0.18027745461E+01 -0.18144371923E+03  0.18679886627E+03  0.00000000000E+00 0.  1.
         11    1    1    2    0    0 -0.95841415963E+01 -0.33184350899E+02 -0.74732167621E+01  0.35339862528E+02  0.00000000000E+00 0. -1.
</event>
<event>
 7    1  0.2903195E-009  0.1557968E+03  0.7561462E-02  0.1193526E+00
         -2   -1    0    0    0  501 -0.00000000000E+00  0.00000000000E+00  0.18129234567E+02  0.18129234567E+02  0.00000000000E+00 0. -1.
          2   -1    0    0  501    0  0.00000000000E+00 -0.00000000000E+00 -0.16432106703E+04  0.16432106703E+04  0.00000000000E+00 0.  1.
         25    2    1    2    0    0 -0.60186730307E+02  0.11599426653E+03 -0.10016234054E+04  0.10178276171E+04  0.12508596821E+03 0.  0.
          5    1    3    3  502    0  0.75220228272E+01 -0.10125130163E+02 -0.36728008341E+03  0.36752038196E+03  0.41800000000E+01 0.  1.
         -5    1    3    3    0  502 -0.67708753134E+02  0.12611939669E+03 -0.63434332198E+03  0.65030723509E+03  0.41800000000E+01 0.  1.
        -11    1    1    2    0    0  0.27724769481E+02  0.64163431932E+01 -0.66417833878E+02  0.72257601398E+02  0.00000000000E+00 0. -1.
         11    1    1    2    0    0  0.32461960826E+02 -0.12241060972E+03 -0.55704019647E+03  0.57125468642E+03  0.00000000000E+00 0.  1.
</event>
<event>
 7    1  0.2842702E-009  0.6387648E+02  0.7561462E-02  0.1382248E+00
          2   -1    0    0  501    0  0.00000000000E+00  0.00000000000E+00  0.16492605694E+03  0.16492605694E+03  0.00000000000E+00 0.  1.
         -2   -1    0    0    0  501 -0.00000000000E+00 -0.00000000000E+00 -0.96676241870E+02  0.96676241870E+02  0.00000000000E+00 0. -1.
         25    2    1    2    0    0 -0.22578107231E+02  0.27337171130E+02  0.93690252345E+02  0.16025581907E+03  0.12508785837E+03 0.  0.
          5    1    3    3  502    0 -0.91451206386E+01 -0.18757681985E+02  0.10792514345E+03  0.11000360383E+03  0.41800000000E+01 0.  1.
         -5    1    3    3    0  502 -0.13432986592E+02  0.46094853116E+02 -0.14234891109E+02  0.50252215249E+02  0.41800000000E+01 0.  1.
        -11    1    1    2    0    0  0.25389368028E+02 -0.38858068489E+02  0.22768188228E+02  0.51700675921E+02  0.00000000000E+00 0.  1.
         11    1    1    2    0    0 -0.28112607972E+01  0.11520897359E+02 -0.48208625504E+02  0.49645803812E+02  0.00000000000E+00 0. -1.
</event>
<event>
 7    1  0.2842702E-009  0.9246936E+02  0.7561462E-02  0.1296980E+00
         -1   -1    0    0    0  501 -0.00000000000E+00  0.00000000000E+00  0.29140559826E+03  0.29140559826E+03  0.00000000000E+00 0.  1.
          1   -1    0    0  501    0  0.00000000000E+00 -0.00000000000E+00 -0.53786570846E+02  0.53786570846E+02  0.00000000000E+00 0. -1.
         25    2    1    2    0    0 -0.18087491375E+02  0.59977066159E+02  0.13840900660E+03  0.19679636333E+03  0.12508936687E+03 0.  0.
          5    1    3    3  502    0  0.77917373053E-01 -0.82434322504E+01 -0.20704513527E+02  0.22673983478E+02  0.41800000000E+01 0.  1.
         -5    1    3    3    0  502 -0.18165408748E+02  0.68220498409E+02  0.15911352013E+03  0.17412237985E+03  0.41800000000E+01 0.  1.
        -11    1    1    2    0    0  0.49989769319E+02 -0.51912718656E+02  0.44950132455E+02  0.84937752516E+02  0.00000000000E+00 0. -1.
         11    1    1    2    0    0 -0.31902277944E+02 -0.80643475033E+01  0.54259888352E+02  0.63458053253E+02  0.00000000000E+00 0.  1.
</event>
<event>
 7    1  0.2842702E-009  0.1406288E+03  0.7561462E-02  0.1212485E+00
         -2   -1    0    0    0  501 -0.00000000000E+00  0.00000000000E+00  0.70227637115E+02  0.70227637115E+02  0.00000000000E+00 0. -1.
          2   -1    0    0  501    0  0.00000000000E+00 -0.00000000000E+00 -0.38696393375E+03  0.38696393375E+03  0.00000000000E+00 0.  1.
         25    2    1    2    0    0 -0.10732589099E+03  0.60855623088E+02 -0.18768785331E+03  0.25709073166E+03  0.12508661114E+03 0.  0.
          5    1    3    3  502    0 -0.10948432562E+03  0.14628670709E+02 -0.70699455268E+02  0.13121242677E+03  0.41800000000E+01 0.  1.
         -5    1    3    3    0  502  0.21584346294E+01  0.46226952379E+02 -0.11698839804E+03  0.12587830489E+03  0.41800000000E+01 0.  1.
        -11    1    1    2    0    0  0.89751141896E+02 -0.56814479118E+02 -0.14240634572E+03  0.17765899868E+03  0.00000000000E+00 0.  1.
         11    1    1    2    0    0  0.17574749095E+02 -0.40411439703E+01  0.13357902389E+02  0.22441840534E+02  0.00000000000E+00 0. -1.
</event>
<event>
 7    1  0.2842702E-009  0.1124454E+03  0.7561462E-02  0.1256107E+00
          2   -1    0    0  501    0  0.00000000000E+00  0.00000000000E+00  0.36184726949E+02  0.36184726949E+02  0.00000000000E+00 0. -1.
         -2   -1    0    0    0  501 -0.00000000000E+00 -0.00000000000E+00 -0.49765830793E+03  0.49765830793E+03  0.00000000000E+00 0.  1.
         25    2    1    2    0    0  0.22995618071E+02  0.51724263872E+02 -0.15827995046E+03  0.20953638106E+03  0.12509498129E+03 0.  0.
          5    1    3    3  502    0  0.53439777493E+02  0.48550445513E+01 -0.14094461909E+03  0.15087159881E+03  0.41800000000E+01 0. -1.
         -5    1    3    3    0  502 -0.30444159422E+02  0.46869219321E+02 -0.17335331371E+02  0.58664782249E+02  0.41800000000E+01 0. -1.
        -11    1    1    2    0    0 -0.45755622849E+02 -0.71490009909E+02 -0.22889997025E+03  0.24413028267E+03  0.00000000000E+00 0.  1.
         11    1    1    2    0    0  0.22760004779E+02  0.19765746037E+02 -0.74293660273E+02  0.80176371149E+02  0.00000000000E+00 0. -1.
</event>
<event>
 7    1  0.3466183E-009  0.1385730E+03  0.7561462E-02  0.1215262E+00
          1   -1    0    0  501    0  0.00000000000E+00  0.00000000000E+00  0.95901412454E+03  0.95901412454E+03  0.00000000000E+00 0. -1.
         -1   -1    0    0    0  501 -0.00000000000E+00 -0.00000000000E+00 -0.29287306632E+02  0.29287306632E+02  0.00000000000E+00 0.  1.
         25    2    1    2    0    0  0.11839910247E+03 -0.36299294028E+01  0.63220421729E+03  0.65525645275E+03  0.12508925873E+03 0.  0.
          5    1    3    3  502    0 -0.15560057038E+02  0.13225324182E+02  0.22107824942E+02  0.30385076903E+02  0.41800000000E+01 0. -1.
         -5    1    3    3    0  502  0.13395915951E+03 -0.16855253585E+02  0.61009639235E+03  0.62487137584E+03  0.41800000000E+01 0. -1.
        -11    1    1    2    0    0 -0.60955144676E+02  0.14741812625E+02  0.54520409042E+02  0.83098289417E+02  0.00000000000E+00 0.  1.
         11    1    1    2    0    0 -0.57443957796E+02 -0.11111883222E+02  0.24300219158E+03  0.24994668901E+03  0.00000000000E+00 0. -1.
</event>
<event>
 7    1  0.2842702E-009  0.1901137E+03  0.7561462E-02  0.1158359E+00
         -1   -1    0    0    0  501 -0.00000000000E+00  0.00000000000E+00  0.21910989573E+03  0.21910989573E+03  0.00000000000E+00 0.  1.
          1   -1    0    0  501    0  0.00000000000E+00 -0.00000000000E+00 -0.20165668361E+03  0.20165668361E+03  0.00000000000E+00 0. -1.
         25    2    1    2    0    0  0.17730022175E+03 -0.23693117906E+02  0.29736476134E+02  0.22029186979E+03  0.12509003722E+03 0.  0.
          5    1    3    3  502    0  0.88821239315E+02 -0.27533878358E+02 -0.45868152271E+02  0.10377228341E+03  0.41800000000E+01 0.  1.
         -5    1    3    3    0  502  0.88478982437E+02  0.38407604518E+01  0.75604628405E+02  0.11651958638E+03  0.41800000000E+01 0.  1.
        -11    1    1    2    0    0 -0.77964899163E+02 -0.32370011951E+02  0.73358817405E+01  0.84735814956E+02  0.00000000000E+00 0.  1.
         11    1    1    2    0    0 -0.99335322588E+02  0.56063129858E+02 -0.19619145746E+02  0.11573889460E+03  0.00000000000E+00 0. -1.
</event>
<event>
 7    1  0.2842702E-009  0.1222747E+03  0.7561462E-02  0.1239391E+00
          1   -1    0    0  501    0  0.00000000000E+00  0.00000000000E+00  0.12465194767E+03  0.12465194767E+03  0.00000000000E+00 0. -1.
         -1   -1    0    0    0  501 -0.00000000000E+00 -0.00000000000E+00 -0.29482184189E+03  0.29482184189E+03  0.00000000000E+00 0.  1.
         25    2    1    2    0    0 -0.85841265197E+02  0.58878191932E+02  0.40074483383E+02  0.16759731377E+03  0.12509009181E+03 0.  0.
          5    1    3    3  502    0 -0.47044630917E+02  0.53429235412E+02 -0.37514930213E+02  0.80577434085E+02  0.41800000000E+01 0. -1.
         -5    1    3    3    0  502 -0.38796634280E+02  0.54489565200E+01  0.77589413596E+02  0.87019879687E+02  0.41800000000E+01 0. -1.
        -11    1    1    2    0    0  0.66775206012E+02  0.52058022438E+01 -0.72139775356E+02  0.98438690073E+02  0.00000000000E+00 0.  1.
         11    1    1    2    0    0  0.19066059185E+02 -0.64083994176E+02 -0.13810460224E+03  0.15343778571E+03  0.00000000000E+00 0. -1.
</event>
<event>
 7    1  0.2842702E-009  0.9411670E+02  0.7561462E-02  0.1293178E+00
         -4   -1    0    0    0  501 -0.00000000000E+00  0.00000000000E+00  0.24358227722E+03  0.24358227722E+03  0.00000000000E+00 0.  1.
          4   -1    0    0  501    0  0.00000000000E+00 -0.00000000000E+00 -0.75876481627E+02  0.75876481627E+02  0.00000000000E+00 0. -1.
         25    2    1    2    0    0  0.59856061739E+02 -0.19156328198E+02  0.15261639385E+03  0.20709538248E+03  0.12508805193E+03 0.  0.
          5    1    3    3  502    0  0.47116202353E+01 -0.20735553551E+02 -0.17723769078E+02  0.27995837845E+02  0.41800000000E+01 0.  1.
         -5    1    3    3    0  502  0.55144441503E+02  0.15792253534E+01  0.17034016293E+03  0.17909954463E+03  0.41800000000E+01 0.  1.
        -11    1    1    2    0    0  0.24476797039E+02  0.98801963190E+01  0.56980325530E+01  0.27003693221E+02  0.00000000000E+00 0.  1.
         11    1    1    2    0    0 -0.84332858778E+02  0.92761318788E+01  0.93913691939E+01  0.85359683151E+02  0.00000000000E+00 0. -1.
</event>
<event>
 7    1  0.2842702E-009  0.6732474E+02  0.7561462E-02  0.1369434E+00
          1   -1    0    0  501    0  0.00000000000E+00  0.00000000000E+00  0.12151209644E+03  0.12151209644E+03  0.00000000000E+00 0. -1.
         -1   -1    0    0    0  501 -0.00000000000E+00 -0.00000000000E+00 -0.10849332713E+03  0.10849332713E+03  0.00000000000E+00 0.  1.
         25    2    1    2    0    0 -0.24250261801E+02  0.11536253973E+02 -0.18509198046E+02  0.12927041801E+03  0.12508832962E+03 0.  0.
          5    1    3    3  502    0  0.27061673489E+02  0.23385170448E+02  0.37698910933E+02  0.52133296984E+02  0.41800000000E+01 0. -1.
         -5    1    3    3    0  502 -0.51311935290E+02 -0.11848916474E+02 -0.56208108979E+02  0.77137121024E+02  0.41800000000E+01 0. -1.
        -11    1    1    2    0    0  0.34282650733E+02 -0.83324987765E+01  0.60429378026E+02  0.69974569708E+02  0.00000000000E+00 0. -1.
         11    1    1    2    0    0 -0.10032388933E+02 -0.32037551966E+01 -0.28901410671E+02  0.30760435852E+02  0.00000000000E+00 0.  1.
</event>
<event>
 7    1  0.2842702E-009  0.2737174E+03  0.7561462E-02  0.1099171E+00
         -1   -1    0    0    0  501 -0.00000000000E+00  0.00000000000E+00  0.16263360092E+03  0.16263360092E+03  0.00000000000E+00 0.  1.
          1   -1    0    0  501    0  0.00000000000E+00 -0.00000000000E+00 -0.58538758908E+03  0.58538758908E+03  0.00000000000E+00 0. -1.
         25    2    1    2    0    0  0.25295368015E+03  0.71430629645E+01 -0.38350839442E+03  0.47619639042E+03  0.12509087101E+03 0.  0.
          5    1    3    3  502    0 -0.13410435366E+02  0.52871014058E+01 -0.30015665975E+02  0.33558990180E+02  0.41800000000E+01 0.  1.
         -5    1    3    3    0  502  0.26636411552E+03  0.18559615586E+01 -0.35349272844E+03  0.44263740024E+03  0.41800000000E+01 0.  1.
        -11    1    1    2    0    0 -0.14262584392E+03  0.36749312450E+02 -0.17073797023E+01  0.14729412230E+03  0.00000000000E+00 0.  1.
         11    1    1    2    0    0 -0.11032783623E+03 -0.43892375415E+02 -0.37538214039E+02  0.12453067727E+03  0.00000000000E+00 0. -1.
</event>
<event>
 7    1  0.2842702E-009  0.1252893E+03  0.7561462E-02  0.1234618E+00
          2   -1    0    0  501    0  0.00000000000E+00  0.00000000000E+00  0.28512023278E+03  0.28512023278E+03  0.00000000000E+00 0. -1.
         -2   -1    0    0    0  501 -0.00000000000E+00 -0.00000000000E+00 -0.75019143289E+02  0.75019143289E+02  0.00000000000E+00 0.  1.
         25    2    1    2    0    0 -0.45507788909E+02 -0.51070421705E+02  0.28998572859E+02  0.14549274173E+03  0.12509226133E+03 0.  0.
          5    1    3    3  502    0 -0.56632866320E+02  0.22470252328E+02  0.35627697290E+02  0.70703599636E+02  0.41800000000E+01 0. -1.
         -5    1    3    3    0  502  0.11125077410E+02 -0.73540674033E+02 -0.66291244314E+01  0.74789142096E+02  0.41800000000E+01 0. -1.
        -11    1    1    2    0    0 -0.16588103818E+02  0.50244006583E+02  0.89713539580E+02  0.10415442655E+03  0.00000000000E+00 0. -1.
         11    1    1    2    0    0  0.62095892727E+02  0.82641512203E+00  0.91388977052E+02  0.11049220779E+03  0.00000000000E+00 0.  1.
</event>
<event>
 7    1  0.3015086E-009  0.9232423E+02  0.7561462E-02  0.1297319E+00
         -2   -1    0    0    0  501 -0.00000000000E+00  0.00000000000E+00  0.47193347003E+02  0.47193347003E+02  0.00000000000E+00 0.  1.
          2   -1    0    0  501    0  0.00000000000E+00 -0.00000000000E+00 -0.34024674734E+03  0.34024674734E+03  0.00000000000E+00 0. -1.
         25    2    1    2    0    0  0.51132860388E+02  0.32905357033E+02 -0.19815268977E+03  0.24209340608E+03  0.12508955542E+03 0.  0.
          5    1    3    3  502    0  0.51664866879E+02 -0.28146979044E+02 -0.15863540543E+03  0.16924590144E+03  0.41800000000E+01 0. -1.
         -5    1    3    3    0  502 -0.53200649139E+00  0.61052336077E+02 -0.39517284334E+02  0.72847504641E+02  0.41800000000E+01 0. -1.
        -11    1    1    2    0    0 -0.11794997559E+02 -0.19721685662E+02  0.15291782160E+02  0.27602634917E+02  0.00000000000E+00 0.  1.
         11    1    1    2    0    0 -0.39337862829E+02 -0.13183671371E+02 -0.11019249273E+03  0.11774405334E+03  0.00000000000E+00 0. -1.
</event>
<event>
 7    1  0.2842702E-009  0.1326008E+03  0.7561462E-02  0.1223647E+00
         -2   -1    0    0    0  501 -0.00000000000E+00  0.00000000000E+00  0.19255801754E+02  0.19255801754E+02  0.00000000000E+00 0.  1.
          2   -1    0    0  501    0  0.00000000000E+00 -0.00000000000E+00 -0.13785720751E+04  0.13785720751E+04  0.00000000000E+00 0. -1.
         25    2    1    2    0    0  0.65354165488E+02 -0.65946729091E+02 -0.10635477430E+04  0.10748958682E+04  0.12508871945E+03 0.  0.
          5    1    3    3  502    0  0.75360901930E+02 -0.24890783806E+01 -0.80175713352E+03  0.80530580192E+03  0.41800000000E+01 0. -1.
         -5    1    3    3    0  502 -0.10006736442E+02 -0.63457650711E+02 -0.26179060952E+03  0.26959006629E+03  0.41800000000E+01 0. -1.
        -11    1    1    2    0    0 -0.10379136819E+02 -0.20431950471E+02 -0.27554095906E+02  0.35838795771E+02  0.00000000000E+00 0.  1.
         11    1    1    2    0    0 -0.54975028669E+02  0.86378679562E+02 -0.26821443439E+03  0.28709321286E+03  0.00000000000E+00 0. -1.
</event>
<event>
 7    1  0.2842702E-009  0.1062102E+03  0.7561462E-02  0.1267753E+00
         -1   -1    0    0    0  501 -0.00000000000E+00  0.00000000000E+00  0.17008882858E+03  0.17008882858E+03  0.00000000000E+00 0.  1.
          1   -1    0    0  501    0  0.00000000000E+00 -0.00000000000E+00 -0.87774312426E+02  0.87774312426E+02  0.00000000000E+00 0. -1.
         25    2    1    2    0    0 -0.35048617125E+02  0.65574119904E+01  0.93323297130E+02  0.16010348441E+03  0.12510988257E+03 0.  0.
          5    1    3    3  502    0 -0.56162796341E+02 -0.43948235043E+02  0.71359882219E+02  0.10097233407E+03  0.41800000000E+01 0. -1.
         -5    1    3    3    0  502  0.21114179216E+02  0.50505647033E+02  0.21963414910E+02  0.59131150342E+02  0.41800000000E+01 0. -1.
        -11    1    1    2    0    0  0.55848016892E+02 -0.22158094342E+02 -0.28422758800E+02  0.66466798881E+02  0.00000000000E+00 0. -1.
         11    1    1    2    0    0 -0.20799399767E+02  0.15600682351E+02  0.17413977820E+02  0.31292857716E+02  0.00000000000E+00 0.  1.
</event>
<event>
 7    1  0.3067459E-009  0.1082747E+03  0.7561462E-02  0.1263799E+00
         -1   -1    0    0    0  501 -0.00000000000E+00  0.00000000000E+00  0.21103344619E+03  0.21103344619E+03  0.00000000000E+00 0.  1.
          1   -1    0    0  501    0  0.00000000000E+00 -0.00000000000E+00 -0.77431285363E+02  0.77431285363E+02  0.00000000000E+00 0. -1.
         25    2    1    2    0    0 -0.27682253970E+02  0.60185792405E+02  0.55747790161E+02  0.15210603072E+03  0.12505915273E+03 0.  0.
          5    1    3    3  502    0  0.45975381231E+02  0.13094487270E+00  0.22292223041E+02  0.51265665255E+02  0.41800000000E+01 0. -1.
         -5    1    3    3    0  502 -0.73657635201E+02  0.60054847533E+02  0.33455567120E+02  0.10084036546E+03  0.41800000000E+01 0. -1.
        -11    1    1    2    0    0  0.31823800829E+02 -0.26776121325E+02  0.91128810224E+02  0.10017072938E+03  0.00000000000E+00 0.  1.
         11    1    1    2    0    0 -0.41415468593E+01 -0.33409671081E+02 -0.13274439559E+02  0.36187971450E+02  0.00000000000E+00 0. -1.
</event>
<event>
 7    1  0.2842702E-009  0.1440829E+03  0.7561462E-02  0.1207938E+00
          2   -1    0    0  501    0  0.00000000000E+00  0.00000000000E+00  0.38695801355E+03  0.38695801355E+03  0.00000000000E+00 0. -1.
         -2   -1    0    0    0  501 -0.00000000000E+00 -0.00000000000E+00 -0.63770523617E+02  0.63770523617E+02  0.00000000000E+00 0.  1.
         25    2    1    2    0    0 -0.15283910474E+02 -0.11154474046E+03  0.16334252580E+03  0.23454569005E+03  0.12512023395E+03 0.  0.
          5    1    3    3  502    0 -0.64775632167E+02 -0.59217033565E+02  0.12515097373E+03  0.15291428388E+03  0.41800000000E+01 0. -1.
         -5    1    3    3    0  502  0.49491721693E+02 -0.52327706894E+02  0.38191552065E+02  0.81631406175E+02  0.41800000000E+01 0. -1.
        -11    1    1    2    0    0 -0.20024864457E+02  0.73808774800E+02  0.41420577897E+02  0.86973528774E+02  0.00000000000E+00 0.  1.
         11    1    1    2    0    0  0.35308774931E+02  0.37735965659E+02  0.11842438624E+03  0.12920931835E+03  0.00000000000E+00 0. -1.
</event>
<event>
 7    1  0.2842702E-009  0.1674440E+03  0.7561462E-02  0.1180540E+00
          1   -1    0    0  501    0  0.00000000000E+00  0.00000000000E+00  0.11351995385E+03  0.11351995385E+03  0.00000000000E+00 0. -1.
         -1   -1    0    0    0  501 -0.00000000000E+00 -0.00000000000E+00 -0.27208551149E+03  0.27208551149E+03  0.00000000000E+00 0.  1.
         25    2    1    2    0    0  0.32718045392E+02 -0.13323359057E+03 -0.81769569134E+02  0.20286964204E+03  0.12509264197E+03 0.  0.
          5    1    3    3  502    0 -0.52389383179E+01 -0.14092154735E+03 -0.41995911598E+02  0.14719870235E+03  0.41800000000E+01 0.  1.
         -5    1    3    3    0  502  0.37956983710E+02  0.76879567874E+01 -0.39773657536E+02  0.55670939688E+02  0.41800000000E+01 0.  1.
        -11    1    1    2    0    0  0.22826692379E+02  0.47502569717E+02 -0.58885395650E+02  0.79025577097E+02  0.00000000000E+00 0.  1.
         11    1    1    2    0    0 -0.55544737771E+02  0.85731020851E+02 -0.17910592860E+02  0.10371024620E+03  0.00000000000E+00 0. -1.
</event>
<event>
 7    1  0.2842702E-009  0.1144734E+03  0.7561462E-02  0.1252503E+00
         -2   -1    0    0    0  501 -0.00000000000E+00  0.00000000000E+00  0.48753355260E+02  0.48753355260E+02  0.00000000000E+00 0.  1.
          2   -1    0    0  501    0  0.00000000000E+00 -0.00000000000E+00 -0.29846532754E+03  0.29846532754E+03  0.00000000000E+00 0. -1.
         25    2    1    2    0    0  0.41325815199E+02  0.27687914629E+02 -0.13030789352E+03  0.18735386844E+03  0.12508749452E+03 0.  0.
          5    1    3    3  502    0 -0.18765573526E+02 -0.34306874729E+02 -0.12558909286E+02  0.41283253335E+02  0.41800000000E+01 0.  1.
         -5    1    3    3    0  502  0.60091388726E+02  0.61994789358E+02 -0.11774898424E+03  0.14607061510E+03  0.41800000000E+01 0.  1.
        -11    1    1    2    0    0  0.66312448787E+01 -0.49893329408E+02 -0.77543245968E+02  0.92446053043E+02  0.00000000000E+00 0.  1.
         11    1    1    2    0    0 -0.47957060078E+02  0.22205414779E+02 -0.41860832791E+02  0.67418761326E+02  0.00000000000E+00 0. -1.
</event>
<event>
 7    1  0.2842702E-009  0.1525006E+03  0.7561462E-02  0.1197434E+00
         -2   -1    0    0    0  501 -0.00000000000E+00  0.00000000000E+00  0.32430268683E+02  0.32430268683E+02  0.00000000000E+00 0. -1.
          2   -1    0    0  501    0  0.00000000000E+00 -0.00000000000E+00 -0.93168837305E+03  0.93168837305E+03  0.00000000000E+00 0.  1.
         25    2    1    2    0    0 -0.11063206182E+03 -0.21124698543E+02 -0.28062885021E+03  0.32723062555E+03  0.12506648127E+03 0.  0.
          5    1    3    3  502    0 -0.10310798153E+01  0.38817293895E+02 -0.10193706397E+03  0.10916264398E+03  0.41800000000E+01 0.  1.
         -5    1    3    3    0  502 -0.10960098201E+03 -0.59941992438E+02 -0.17869178624E+03  0.21806798157E+03  0.41800000000E+01 0.  1.
        -11    1    1    2    0    0  0.52634050553E+02  0.53066444536E+02 -0.44162338559E+03  0.44790356720E+03  0.00000000000E+00 0.  1.
         11    1    1    2    0    0  0.57998011272E+02 -0.31941745994E+02 -0.17700586858E+03  0.18898444899E+03  0.00000000000E+00 0. -1.
</event>
<event>
 7    1  0.2842702E-009  0.8734301E+02  0.7561462E-02  0.1309417E+00
          2   -1    0    0  501    0  0.00000000000E+00  0.00000000000E+00  0.39475227138E+03  0.39475227138E+03  0.00000000000E+00 0.  1.
         -2   -1    0    0    0  501 -0.00000000000E+00 -0.00000000000E+00 -0.31353689524E+02  0.31353689524E+02  0.00000000000E+00 0. -1.
         25    2    1    2    0    0  0.54980245447E+01  0.82344574164E+01  0.16531662883E+03  0.20754479791E+03  0.12508885167E+03 0.  0.
          5    1    3    3  502    0 -0.40271513348E+02  0.53866492533E+01  0.54840507067E+01  0.41211139146E+02  0.41800000000E+01 0.  1.
         -5    1    3    3    0  502  0.45769537893E+02  0.28478081631E+01  0.15983257812E+03  0.16633365877E+03  0.41800000000E+01 0.  1.
        -11    1    1    2    0    0  0.40890440012E+02 -0.14948983402E+01  0.59062550968E+02  0.71851567361E+02  0.00000000000E+00 0.  1.
         11    1    1    2    0    0 -0.46388464556E+02 -0.67395590762E+01  0.13901940206E+03  0.14670959563E+03  0.00000000000E+00 0. -1.
</event>
<event>
 7    1  0.2842702E-009  0.1659235E+03  0.7561462E-02  0.1182167E+00
          1   -1    0    0  501    0  0.00000000000E+00  0.00000000000E+00  0.22095726876E+02  0.22095726876E+02  0.00000000000E+00 0. -1.
         -1   -1    0    0    0  501 -0.00000000000E+00 -0.00000000000E+00 -0.16035075402E+04  0.16035075402E+04  0.00000000000E+00 0.  1.
         25    2    1    2    0    0 -0.10895126221E+03  0.10955859957E+03 -0.82140606306E+03  0.84512038207E+03  0.12508827080E+03 0.  0.
          5    1    3    3  502    0 -0.62746773196E+02  0.84039167891E+02 -0.24830471442E+03  0.26957826858E+03  0.41800000000E+01 0. -1.
         -5    1    3    3    0  502 -0.46204489014E+02  0.25519431684E+02 -0.57310134863E+03  0.57554211349E+03  0.41800000000E+01 0. -1.
        -11    1    1    2    0    0  0.22161196681E+02 -0.78798435089E+02 -0.43740432907E+03  0.44499759449E+03  0.00000000000E+00 0.  1.
         11    1    1    2    0    0  0.86790065529E+02 -0.30760164486E+02 -0.32260142124E+03  0.33548529056E+03  0.00000000000E+00 0. -1.
</event>
<event>
 7    1  0.2842702E-009  0.1464611E+03  0.7561462E-02  0.1204890E+00
         -2   -1    0    0    0  501 -0.00000000000E+00  0.00000000000E+00  0.49656737673E+02  0.49656737673E+02  0.00000000000E+00 0.  1.
          2   -1    0    0  501    0  0.00000000000E+00 -0.00000000000E+00 -0.57619313513E+03  0.57619313513E+03  0.00000000000E+00 0. -1.
         25    2    1    2    0    0  0.10874245470E+03  0.31874838015E+02 -0.39479890302E+03  0.42935968635E+03  0.12507053885E+03 0.  0.
          5    1    3    3  502    0  0.64490815763E+02  0.80102199173E+02 -0.22932418527E+03  0.25136125791E+03  0.41800000000E+01 0.  1.
         -5    1    3    3    0  502  0.44251638937E+02 -0.48227361158E+02 -0.16547471775E+03  0.17799842844E+03  0.41800000000E+01 0.  1.
        -11    1    1    2    0    0 -0.86272572758E+02 -0.10626705890E+01 -0.13276982154E+03  0.15834112413E+03  0.00000000000E+00 0. -1.
         11    1    1    2    0    0 -0.22469881942E+02 -0.30812167426E+02  0.10323271104E+01  0.38149062312E+02  0.00000000000E+00 0.  1.
</event>
<event>
 7    1  0.2842702E-009  0.8429375E+02  0.7561462E-02  0.1317290E+00
          1   -1    0    0  501    0  0.00000000000E+00  0.00000000000E+00  0.74641469913E+03  0.74641469913E+03  0.00000000000E+00 0. -1.
         -1   -1    0    0    0  501 -0.00000000000E+00 -0.00000000000E+00 -0.21568682217E+02  0.21568682217E+02  0.00000000000E+00 0.  1.
         25    2    1    2    0    0 -0.11387659931E+02 -0.72549973573E+01  0.57752389574E+03  0.59107378807E+03  0.12510818923E+03 0.  0.
          5    1    3    3  502    0  0.83564330267E+01  0.40850623285E+02  0.75527688715E+02  0.86374229712E+02  0.41800000000E+01 0. -1.
         -5    1    3    3    0  502 -0.19744092958E+02 -0.48105620643E+02  0.50199620702E+03  0.50469955836E+03  0.41800000000E+01 0. -1.
        -11    1    1    2    0    0 -0.55465247384E+01 -0.31624424667E+02  0.12485758543E+03  0.12891968357E+03  0.00000000000E+00 0. -1.
         11    1    1    2    0    0  0.16934184669E+02  0.38879422024E+02  0.22464535748E+02  0.47989909707E+02  0.00000000000E+00 0.  1.
</event>
<event>
 7    1  0.2842702E-009  0.9765042E+02  0.7561462E-02  0.1285316E+00
         -1   -1    0    0    0  501 -0.00000000000E+00  0.00000000000E+00  0.57848203280E+02  0.57848203280E+02  0.00000000000E+00 0.  1.
          1   -1    0    0  501    0  0.00000000000E+00 -0.00000000000E+00 -0.25766035009E+03  0.25766035009E+03  0.00000000000E+00 0. -1.
         25    2    1    2    0    0 -0.70756904508E+01 -0.56444192205E+02 -0.10010021679E+03  0.17000125266E+03  0.12507741714E+03 0.  0.
          5    1    3    3  502    0 -0.18897821415E+02 -0.81752451096E+02 -0.21846381210E+02  0.86806265249E+02  0.41800000000E+01 0. -1.
         -5    1    3    3    0  502  0.11822130964E+02  0.25308258891E+02 -0.78253835575E+02  0.83194987414E+02  0.41800000000E+01 0. -1.
        -11    1    1    2    0    0 -0.22488828376E+02  0.46839770269E+02 -0.10186104066E+03  0.11434764136E+03  0.00000000000E+00 0. -1.
         11    1    1    2    0    0  0.29564518827E+02  0.96044219359E+01  0.21491106325E+01  0.31159659348E+02  0.00000000000E+00 0.  1.
</event>
<event>
 7    1  0.2842702E-009  0.1040178E+03  0.7561462E-02  0.1272067E+00
         -2   -1    0    0    0  501 -0.00000000000E+00  0.00000000000E+00  0.17576376509E+02  0.17576376509E+02  0.00000000000E+00 0.  1.
          2   -1    0    0  501    0  0.00000000000E+00 -0.00000000000E+00 -0.77279927680E+03  0.77279927680E+03  0.00000000000E+00 0. -1.
         25    2    1    2    0    0  0.29543128845E+02 -0.30236789483E+02 -0.46303270720E+03  0.48149137295E+03  0.12509034492E+03 0.  0.
          5    1    3    3  502    0  0.44317160795E+02  0.37002110848E+02 -0.27941586617E+03  0.28534867375E+03  0.41800000000E+01 0.  1.
         -5    1    3    3    0  502 -0.14774031950E+02 -0.67238900331E+02 -0.18361684104E+03  0.19614269920E+03  0.41800000000E+01 0.  1.
        -11    1    1    2    0    0  0.19158836096E+02  0.25998430894E+02 -0.37255287813E+02  0.49304521897E+02  0.00000000000E+00 0.  1.
         11    1    1    2    0    0 -0.48701964941E+02  0.42383585893E+01 -0.25493490527E+03  0.25957975846E+03  0.00000000000E+00 0. -1.
</event>
<event>
 7    1  0.2842702E-009  0.1158514E+03  0.7561462E-02  0.1250102E+00
          2   -1    0    0  501    0  0.00000000000E+00  0.00000000000E+00  0.39635043424E+03  0.39635043424E+03  0.00000000000E+00 0. -1.
         -2   -1    0    0    0  501 -0.00000000000E+00 -0.00000000000E+00 -0.34513792027E+02  0.34513792027E+02  0.00000000000E+00 0.  1.
         25    2    1    2    0    0  0.40906903696E+02  0.11571800804E+02  0.19283827804E+03  0.23375403122E+03  0.12508822603E+03 0.  0.
          5    1    3    3  502    0  0.85572709794E+02  0.12919341184E+02  0.11629085402E+03  0.14501942341E+03  0.41800000000E+01 0.  1.
         -5    1    3    3    0  502 -0.44665806098E+02 -0.13475403801E+01  0.76547424020E+02  0.88734607812E+02  0.41800000000E+01 0.  1.
        -11    1    1    2    0    0 -0.61703993388E+02 -0.33287418550E+02  0.10314295555E+03  0.12471529302E+03  0.00000000000E+00 0.  1.
         11    1    1    2    0    0  0.20797089692E+02  0.21715617746E+02  0.65855408630E+02  0.72394902027E+02  0.00000000000E+00 0. -1.
</event>
<event>
 7    1  0.2842702E-009  0.1402213E+03  0.7561462E-02  0.1213031E+00
          4   -1    0    0  501    0  0.00000000000E+00  0.00000000000E+00  0.94835004919E+02  0.94835004919E+02  0.00000000000E+00 0. -1.
         -4   -1    0    0    0  501 -0.00000000000E+00 -0.00000000000E+00 -0.24698486398E+03  0.24698486398E+03  0.00000000000E+00 0.  1.
         25    2    1    2    0    0  0.57368940048E+02 -0.88654197633E+02 -0.62357598185E+02  0.17517818490E+03  0.12509262318E+03 0.  0.
          5    1    3    3  502    0  0.92485328425E+02 -0.36896973623E+02 -0.27198843440E+02  0.10330620563E+03  0.41800000000E+01 0. -1.
         -5    1    3    3    0  502 -0.35116388377E+02 -0.51757224011E+02 -0.35158754745E+02  0.71871979277E+02  0.41800000000E+01 0. -1.
        -11    1    1    2    0    0 -0.62994413051E+01  0.58397805493E+02  0.31757059983E+00  0.58737445452E+02  0.00000000000E+00 0. -1.
         11    1    1    2    0    0 -0.51069498743E+02  0.30256392140E+02 -0.90109831477E+02  0.10790423855E+03  0.00000000000E+00 0.  1.
</event>
<event>
 7    1  0.2842702E-009  0.1307655E+03  0.7561462E-02  0.1226324E+00
          2   -1    0    0  501    0  0.00000000000E+00  0.00000000000E+00  0.40391837191E+03  0.40391837191E+03  0.00000000000E+00 0. -1.
         -2   -1    0    0    0  501 -0.00000000000E+00 -0.00000000000E+00 -0.52326738495E+02  0.52326738495E+02  0.00000000000E+00 0.  1.
         25    2    1    2    0    0 -0.62323005171E+02 -0.49793033641E+02  0.28266720969E+03  0.31923616912E+03  0.12508987596E+03 0.  0.
          5    1    3    3  502    0 -0.34709900506E+02  0.40649062536E+02  0.96922255929E+02  0.11076334941E+03  0.41800000000E+01 0.  1.
         -5    1    3    3    0  502 -0.27613104666E+02 -0.90442096177E+02  0.18574495376E+03  0.20847281971E+03  0.41800000000E+01 0.  1.
        -11    1    1    2    0    0  0.52509805956E+02 -0.93263762115E+01  0.12673733772E+02  0.54816827183E+02  0.00000000000E+00 0.  1.
         11    1    1    2    0    0  0.98131992158E+01  0.59119409852E+02  0.56250689950E+02  0.82192114098E+02  0.00000000000E+00 0. -1.
</event>
<event>
 7    1  0.2842702E-009  0.9687630E+02  0.7561462E-02  0.1287005E+00
          1   -1    0    0  501    0  0.00000000000E+00  0.00000000000E+00  0.81276399820E+02  0.81276399820E+02  0.00000000000E+00 0. -1.
         -1   -1    0    0    0  501 -0.00000000000E+00 -0.00000000000E+00 -0.15612796399E+03  0.15612796399E+03  0.00000000000E+00 0.  1.
         25    2    1    2    0    0 -0.11663737418E+02  0.91536357859E+01 -0.67758965710E+02  0.14303678694E+03  0.12509361760E+03 0.  0.
          5    1    3    3  502    0  0.34749605901E+02 -0.27618476578E+02  0.95202184605E+01  0.45589717243E+02  0.41800000000E+01 0.  1.
         -5    1    3    3    0  502 -0.46413343319E+02  0.36772112363E+02 -0.77279184171E+02  0.97447069693E+02  0.41800000000E+01 0.  1.
        -11    1    1    2    0    0 -0.35313077878E+02 -0.21358082523E+02 -0.17334744935E+02  0.44762423306E+02  0.00000000000E+00 0. -1.
         11    1    1    2    0    0  0.46976815296E+02  0.12204446738E+02  0.10242146478E+02  0.49605153563E+02  0.00000000000E+00 0.  1.
</event>
<event>
 7    1  0.2842702E-009  0.1363756E+03  0.7561462E-02  0.1218291E+00
          2   -1    0    0  501    0  0.00000000000E+00  0.00000000000E+00  0.13737797651E+04  0.13737797651E+04  0.00000000000E+00 0. -1.
         -2   -1    0    0    0  501 -0.00000000000E+00 -0.00000000000E+00 -0.19948175820E+02  0.19948175820E+02  0.00000000000E+00 0.  1.
         25    2    1    2    0    0 -0.17064621568E+02 -0.11888760107E+03  0.79295504261E+03  0.81169591163E+03  0.12508833022E+03 0.  0.
          5    1    3    3  502    0 -0.40686564194E+02 -0.12040030677E+03  0.44223398837E+03  0.46015215228E+03  0.41800000000E+01 0. -1.
         -5    1    3    3    0  502  0.23621942626E+02  0.15127056982E+01  0.35072105424E+03  0.35154375935E+03  0.41800000000E+01 0. -1.
        -11    1    1    2    0    0  0.10863826277E+02  0.11096775598E+03  0.56099996831E+03  0.57197275288E+03  0.00000000000E+00 0. -1.
         11    1    1    2    0    0  0.62007952915E+01  0.79198450943E+01 -0.12342166515E+00  0.10059276389E+02  0.00000000000E+00 0.  1.
</event>
<event>
 7    1  0.2842702E-009  0.8540825E+02  0.7561462E-02  0.1314368E+00
          1   -1    0    0  501    0  0.00000000000E+00  0.00000000000E+00  0.10278247408E+03  0.10278247408E+03  0.00000000000E+00 0. -1.
         -1   -1    0    0    0  501 -0.00000000000E+00 -0.00000000000E+00 -0.14842069306E+03  0.14842069306E+03  0.00000000000E+00 0.  1.
         25    2    1    2    0    0  0.34252439420E+02  0.42459497230E+02 -0.53473378092E+02  0.14657092045E+03  0.12509034354E+03 0.  0.
          5    1    3    3  502    0  0.45882390511E+02  0.17230898382E+02  0.30598473860E+02  0.57929583294E+02  0.41800000000E+01 0.  1.
         -5    1    3    3    0  502 -0.11629951091E+02  0.25228598848E+02 -0.84071851952E+02  0.88641337156E+02  0.41800000000E+01 0.  1.
        -11    1    1    2    0    0 -0.58553176278E+02 -0.34511326419E+02  0.26527590505E+02  0.72960394472E+02  0.00000000000E+00 0. -1.
         11    1    1    2    0    0  0.24300736859E+02 -0.79481708112E+01 -0.18692431395E+02  0.31671852213E+02  0.00000000000E+00 0.  1.
</event>
<event>
 7    1  0.2842702E-009  0.1018654E+03  0.7561462E-02  0.1276421E+00
          3   -1    0    0  501    0  0.00000000000E+00  0.00000000000E+00  0.29195024365E+03  0.29195024365E+03  0.00000000000E+00 0. -1.
         -3   -1    0    0    0  501 -0.00000000000E+00 -0.00000000000E+00 -0.50724293400E+02  0.50724293400E+02  0.00000000000E+00 0.  1.
         25    2    1    2    0    0 -0.50964580386E+01 -0.50483531110E+02  0.16454619767E+03  0.21283251499E+03  0.12509063702E+03 0.  0.
          5    1    3    3  502    0  0.36335576843E+02 -0.71602078107E+02  0.13634232469E+03  0.15828402837E+03  0.41800000000E+01 0. -1.
         -5    1    3    3    0  502 -0.41432034881E+02  0.21118546997E+02  0.28203872983E+02  0.54548486623E+02  0.41800000000E+01 0. -1.
        -11    1    1    2    0    0  0.30878459366E+02  0.34508198621E+02  0.86370890838E+02  0.98001152080E+02  0.00000000000E+00 0. -1.
         11    1    1    2    0    0 -0.25782001327E+02  0.15975332488E+02 -0.96911382591E+01  0.31840869983E+02  0.00000000000E+00 0.  1.
</event>
<event>
 7    1  0.3099621E-009  0.7456130E+02  0.7561462E-02  0.1345235E+00
         -1   -1    0    0    0  501 -0.00000000000E+00  0.00000000000E+00  0.25580054347E+02  0.25580054347E+02  0.00000000000E+00 0. -1.
          1   -1    0    0  501    0  0.00000000000E+00 -0.00000000000E+00 -0.67558141900E+03  0.67558141900E+03  0.00000000000E+00 0.  1.
         25    2    1    2    0    0  0.20550410288E+02  0.17750764924E+02 -0.54484714893E+03  0.55967454735E+03  0.12505908297E+03 0.  0.
          5    1    3    3  502    0  0.51091855722E+02  0.29071144494E+01 -0.50303333681E+03  0.50564695132E+03  0.41800000000E+01 0.  1.
         -5    1    3    3    0  502 -0.30541445434E+02  0.14843650475E+02 -0.41813812120E+02  0.54027596029E+02  0.41800000000E+01 0.  1.
        -11    1    1    2    0    0 -0.40236350071E+02 -0.17497554803E+02 -0.10915479402E+02  0.45213670296E+02  0.00000000000E+00 0. -1.
         11    1    1    2    0    0  0.19685939782E+02 -0.25321012165E+00 -0.94238736316E+02  0.96273255699E+02  0.00000000000E+00 0.  1.
</event>
<event>
 7    1  0.2842702E-009  0.9840391E+02  0.7561462E-02  0.1283689E+00
          1   -1    0    0  501    0  0.00000000000E+00  0.00000000000E+00  0.29070083513E+03  0.29070083513E+03  0.00000000000E+00 0. -1.
         -1   -1    0    0    0  501 -0.00000000000E+00 -0.00000000000E+00 -0.46085221114E+02  0.46085221114E+02  0.00000000000E+00 0.  1.
         25    2    1    2    0    0 -0.19356453936E+02 -0.35117512755E+02  0.11472076341E+03  0.17440261679E+03  0.12508999631E+03 0.  0.
          5    1    3    3  502    0  0.29056470775E+02  0.15940220113E+02 -0.66402278639E+01  0.34057805819E+02  0.41800000000E+01 0. -1.
         -5    1    3    3    0  502 -0.48412924711E+02 -0.51057732868E+02  0.12136099127E+03  0.14034481098E+03  0.41800000000E+01 0. -1.
        -11    1    1    2    0    0  0.14306551104E+02  0.62988879606E+02  0.65293085567E+02  0.91844778738E+02  0.00000000000E+00 0.  1.
         11    1    1    2    0    0  0.50499028319E+01 -0.27871366851E+02  0.64601765040E+02  0.70538660712E+02  0.00000000000E+00 0. -1.
</event>
<event>
 7    1  0.2842702E-009  0.1272285E+03  0.7561462E-02  0.1231627E+00
          1   -1    0    0  501    0  0.00000000000E+00  0.00000000000E+00  0.45243275407E+03  0.45243275407E+03  0.00000000000E+00 0. -1.
         -1   -1    0    0    0  501 -0.00000000000E+00 -0.00000000000E+00 -0.41434742036E+02  0.41434742036E+02  0.00000000000E+00 0.  1.
         25    2    1    2    0    0  0.16927786218E+02  0.80972124248E+02  0.20041771884E+03  0.25029719291E+03  0.12505354015E+03 0.  0.
          5    1    3    3  502    0 -0.46518329514E+02  0.63878925391E+02  0.76986400340E+02  0.11040312644E+03  0.41800000000E+01 0. -1.
         -5    1    3    3    0  502  0.63446115733E+02  0.17093198857E+02  0.12343131850E+03  0.13989406647E+03  0.41800000000E+01 0. -1.
        -11    1    1    2    0    0  0.11503581876E+02 -0.80221477594E+02  0.19493443374E+03  0.21110957184E+03  0.00000000000E+00 0. -1.
         11    1    1    2    0    0 -0.28431368094E+02 -0.75064665409E+00  0.15645859455E+02  0.32460731357E+02  0.00000000000E+00 0.  1.
</event>
<event>
 7    1  0.2842702E-009  0.1147368E+03  0.7561462E-02  0.1252041E+00
         -2   -1    0    0    0  501 -0.00000000000E+00  0.00000000000E+00  0.35232344734E+02  0.35232344734E+02  0.00000000000E+00 0.  1.
          2   -1    0    0  501    0  0.00000000000E+00 -0.00000000000E+00 -0.41082936085E+03  0.41082936085E+03  0.00000000000E+00 0. -1.
         25    2    1    2    0    0  0.40593154328E+02  0.16845573539E+02 -0.26292810139E+03  0.29446210380E+03  0.12508064018E+03 0.  0.
          5    1    3    3  502    0 -0.32020447305E+02 -0.31601275483E+02 -0.90630031661E+02  0.10126808331E+03  0.41800000000E+01 0. -1.
         -5    1    3    3    0  502  0.72613601633E+02  0.48446849022E+02 -0.17229806973E+03  0.19319402049E+03  0.41800000000E+01 0. -1.
        -11    1    1    2    0    0 -0.18611106112E+02 -0.52116333424E+02 -0.85839793202E+02  0.10213204971E+03  0.00000000000E+00 0. -1.
         11    1    1    2    0    0 -0.21982048216E+02  0.35270759885E+02 -0.26829121522E+02  0.49467552075E+02  0.00000000000E+00 0.  1.
</event>
<event>
 6    1  0.3389294E-009  0.1145707E+03  0.7561462E-02  0.1252332E+00
         -1   -1    0    0    0  501 -0.00000000000E+00  0.00000000000E+00  0.26016476989E+03  0.26016476989E+03  0.00000000000E+00 0.  1.
          1   -1    0    0  501    0  0.00000000000E+00 -0.00000000000E+00 -0.63750943054E+02  0.63750943054E+02  0.00000000000E+00 0. -1.
          5    1    1    2  502    0 -0.85508034763E+02 -0.17106578694E+02  0.79920871900E+02  0.11835994766E+03  0.41800000000E+01 0.  1.
         -5    1    1    2    0  502  0.42448788165E+02 -0.32981007998E+02  0.56628508975E+02  0.78191476095E+02  0.41800000000E+01 0.  1.
        -11    1    1    2    0    0  0.28068344395E+02  0.62464567721E+02  0.75853897123E+02  0.10219328690E+03  0.00000000000E+00 0.  1.
         11    1    1    2    0    0  0.14990902203E+02 -0.12376981030E+02 -0.15989451162E+02  0.25171002299E+02  0.00000000000E+00 0. -1.
</event>
<event>
 7    1  0.2842702E-009  0.1447890E+03  0.7561462E-02  0.1207026E+00
         -1   -1    0    0    0  501 -0.00000000000E+00  0.00000000000E+00  0.41458680843E+02  0.41458680843E+02  0.00000000000E+00 0. -1.
          1   -1    0    0  501    0  0.00000000000E+00 -0.00000000000E+00 -0.73849213808E+03  0.73849213808E+03  0.00000000000E+00 0.  1.
         25    2    1    2    0    0 -0.47837072434E+01 -0.12181457007E+03 -0.22944079564E+03  0.28835537790E+03  0.12507626445E+03 0.  0.
          5    1    3    3  502    0  0.29275363676E+02 -0.87398740648E+02 -0.22038417942E+03  0.23891891036E+03  0.41800000000E+01 0.  1.
         -5    1    3    3    0  502 -0.34059070919E+02 -0.34415829419E+02 -0.90566162137E+01  0.49436467549E+02  0.41800000000E+01 0.  1.
        -11    1    1    2    0    0  0.26297808931E+02  0.12430312699E+03 -0.42807450786E+03  0.44653177537E+03  0.00000000000E+00 0.  1.
         11    1    1    2    0    0 -0.21514101687E+02 -0.24885569187E+01 -0.39518153738E+02  0.45063665650E+02  0.00000000000E+00 0. -1.
</event>
<event>
 7    1  0.2842702E-009  0.1288910E+03  0.7561462E-02  0.1229111E+00
         -3   -1    0    0    0  501 -0.00000000000E+00  0.00000000000E+00  0.75224632273E+03  0.75224632273E+03  0.00000000000E+00 0.  1.
          3   -1    0    0  501    0  0.00000000000E+00 -0.00000000000E+00 -0.23961258578E+02  0.23961258578E+02  0.00000000000E+00 0. -1.
         25    2    1    2    0    0 -0.45892057744E+01 -0.79364624176E+02  0.36418375650E+03  0.39318811088E+03  0.12508907889E+03 0.  0.
          5    1    3    3  502    0 -0.54043718961E+02 -0.23525802641E+01  0.17056746709E+03  0.17898880251E+03  0.41800000000E+01 0. -1.
         -5    1    3    3    0  502  0.49454513187E+02 -0.77012043912E+02  0.19361628941E+03  0.21419930837E+03  0.41800000000E+01 0. -1.
        -11    1    1    2    0    0 -0.26261418234E+02 -0.52555654185E+00  0.15248738244E+03  0.15473312542E+03  0.00000000000E+00 0.  1.
         11    1    1    2    0    0  0.30850624008E+02  0.79890180718E+02  0.21161392521E+03  0.22828634502E+03  0.00000000000E+00 0. -1.
</event>
<event>
 7    1  0.2842702E-009  0.1125940E+03  0.7561462E-02  0.1255840E+00
         -1   -1    0    0    0  501 -0.00000000000E+00  0.00000000000E+00  0.28730110499E+03  0.28730110499E+03  0.00000000000E+00 0.  1.
          1   -1    0    0  501    0  0.00000000000E+00 -0.00000000000E+00 -0.81168840655E+02  0.81168840655E+02  0.00000000000E+00 0. -1.
         25    2    1    2    0    0  0.34787422724E+02 -0.97468163654E+02  0.74302715943E+02  0.17854428836E+03  0.12508781557E+03 0.  0.
          5    1    3    3  502    0 -0.11636875745E+02 -0.51065651934E+02  0.95872896414E+02  0.10932612840E+03  0.41800000000E+01 0. -1.
         -5    1    3    3    0  502  0.46424298468E+02 -0.46402511720E+02 -0.21570180471E+02  0.69218159956E+02  0.41800000000E+01 0. -1.
        -11    1    1    2    0    0  0.36808902649E+01  0.20515183958E+02 -0.10711292993E+02  0.23434024911E+02  0.00000000000E+00 0. -1.
         11    1    1    2    0    0 -0.38468312988E+02  0.76952979696E+02  0.14254084139E+03  0.16649163238E+03  0.00000000000E+00 0.  1.
</event>
<event>
 7    1  0.2842702E-009  0.7403158E+02  0.7561462E-02  0.1346896E+00
         -2   -1    0    0    0  501 -0.00000000000E+00  0.00000000000E+00  0.68131931360E+02  0.68131931360E+02  0.00000000000E+00 0.  1.
          2   -1    0    0  501    0  0.00000000000E+00 -0.00000000000E+00 -0.18225312101E+03  0.18225312101E+03  0.00000000000E+00 0. -1.
         25    2    1    2    0    0 -0.13198769936E+02 -0.10614197194E+02 -0.16040617286E+02  0.12724623647E+03  0.12508970615E+03 0.  0.
          5    1    3    3  502    0  0.47596141082E+01  0.35907667505E+02  0.38637007000E+02  0.53125372677E+02  0.41800000000E+01 0. -1.
         -5    1    3    3    0  502 -0.17958384044E+02 -0.46521864699E+02 -0.54677624286E+02  0.74120863798E+02  0.41800000000E+01 0. -1.
        -11    1    1    2    0    0  0.23383008696E+02  0.30964754764E+02 -0.23959549654E+02  0.45603082712E+02  0.00000000000E+00 0.  1.
         11    1    1    2    0    0 -0.10184238760E+02 -0.20350557570E+02 -0.74121022712E+02  0.77535733184E+02  0.00000000000E+00 0. -1.
</event>
<event>
 7    1  0.2842702E-009  0.1219925E+03  0.7561462E-02  0.1239846E+00
          1   -1    0    0  501    0  0.00000000000E+00  0.00000000000E+00  0.16337956066E+03  0.16337956066E+03  0.00000000000E+00 0. -1.
         -1   -1    0    0    0  501 -0.00000000000E+00 -0.00000000000E+00 -0.16109927091E+03  0.16109927091E+03  0.00000000000E+00 0.  1.
         25    2    1    2    0    0 -0.39709112852E+02 -0.86406252375E+02 -0.68150808190E+02  0.17127155908E+03  0.12508621107E+03 0.  0.
          5    1    3    3  502    0 -0.14690241273E+02  0.27288162510E+02  0.77737609266E+01  0.32223450479E+02  0.41800000000E+01 0.  1.
         -5    1    3    3    0  502 -0.25018871579E+02 -0.11369441488E+03 -0.75924569117E+02  0.13904810861E+03  0.41800000000E+01 0.  1.
        -11    1    1    2    0    0  0.31157275306E+02  0.50707604097E+02  0.92782009566E+02  0.11022947980E+03  0.00000000000E+00 0. -1.
         11    1    1    2    0    0  0.85518375459E+01  0.35698648278E+02 -0.22350911623E+02  0.42977792691E+02  0.00000000000E+00 0.  1.
</event>
<event>
 7    1  0.2842702E-009  0.9193128E+02  0.7561462E-02  0.1298241E+00
          2   -1    0    0  501    0  0.00000000000E+00  0.00000000000E+00  0.15156911917E+03  0.15156911917E+03  0.00000000000E+00 0. -1.
         -2   -1    0    0    0  501 -0.00000000000E+00 -0.00000000000E+00 -0.11079265710E+03  0.11079265710E+03  0.00000000000E+00 0.  1.
         25    2    1    2    0    0 -0.18102926290E+02  0.36053137182E+02 -0.35573013012E+02  0.13616190913E+03  0.12508829522E+03 0.  0.
          5    1    3    3  502    0 -0.66524642843E+02  0.46529849862E+02 -0.16734648038E+02  0.82994432817E+02  0.41800000000E+01 0. -1.
         -5    1    3    3    0  502  0.48421716553E+02 -0.10476712680E+02 -0.18838364975E+02  0.53167476312E+02  0.41800000000E+01 0. -1.
        -11    1    1    2    0    0  0.20796054941E+02 -0.46158268870E+01  0.89512121391E+02  0.92011964628E+02  0.00000000000E+00 0. -1.
         11    1    1    2    0    0 -0.26931286502E+01 -0.31437310295E+02 -0.13162646309E+02  0.34187902515E+02  0.00000000000E+00 0.  1.
</event>
<event>
 7    1  0.2842702E-009  0.5728426E+02  0.7561462E-02  0.1409595E+00
          1   -1    0    0  501    0  0.00000000000E+00  0.00000000000E+00  0.32407042137E+02  0.32407042137E+02  0.00000000000E+00 0. -1.
         -1   -1    0    0    0  501 -0.00000000000E+00 -0.00000000000E+00 -0.52386356381E+03  0.52386356381E+03  0.00000000000E+00 0.  1.
         25    2    1    2    0    0  0.27860912714E+01 -0.29890399440E+00 -0.41421462196E+03  0.43269801598E+03  0.12508384524E+03 0.  0.
          5    1    3    3  502    0  0.56366203339E+01 -0.35903902707E+02 -0.38396798542E+03  0.38570681605E+03  0.41800000000E+01 0. -1.
         -5    1    3    3    0  502 -0.28505290625E+01  0.35604998713E+02 -0.30246636542E+02  0.46991199936E+02  0.41800000000E+01 0. -1.
        -11    1    1    2    0    0 -0.19618936999E+02  0.10588511382E+02 -0.94663198075E+02  0.97252970813E+02  0.00000000000E+00 0.  1.
         11    1    1    2    0    0  0.16832845727E+02 -0.10289607387E+02  0.17421298364E+02  0.26319619149E+02  0.00000000000E+00 0. -1.
</event>
<event>
 7    1  0.2842702E-009  0.1108138E+03  0.7561462E-02  0.1259070E+00
          1   -1    0    0  501    0  0.00000000000E+00  0.00000000000E+00  0.75338543328E+03  0.75338543328E+03  0.00000000000E+00 0. -1.
         -1   -1    0    0    0  501 -0.00000000000E+00 -0.00000000000E+00 -0.18096857342E+02  0.18096857342E+02  0.00000000000E+00 0.  1.
         25    2    1    2    0    0 -0.31398528052E+02 -0.29380959639E+02  0.42213579732E+03  0.44237329615E+03  0.12508554439E+03 0.  0.
          5    1    3    3  502    0 -0.36576609228E+01 -0.70450526547E+02  0.33188066955E+03  0.33932124366E+03  0.41800000000E+01 0.  1.
         -5    1    3    3    0  502 -0.27740867130E+02  0.41069566908E+02  0.90255127764E+02  0.10305205249E+03  0.41800000000E+01 0.  1.
        -11    1    1    2    0    0  0.63899212157E+02  0.14749003385E+02  0.20056308823E+03  0.21101230953E+03  0.00000000000E+00 0.  1.
         11    1    1    2    0    0 -0.32500684104E+02  0.14631956255E+02  0.11258969040E+03  0.11809668494E+03  0.00000000000E+00 0. -1.
</event>
<event>
 7    1  0.2842702E-009  0.1094251E+03  0.7561462E-02  0.1261638E+00
          2   -1    0    0  501    0  0.00000000000E+00  0.00000000000E+00  0.40336098324E+03  0.40336098324E+03  0.00000000000E+00 0. -1.
         -2   -1    0    0    0  501 -0.00000000000E+00 -0.00000000000E+00 -0.32344075113E+02  0.32344075113E+02  0.00000000000E+00 0.  1.
         25    2    1    2    0    0  0.27534664107E+02 -0.27779834352E+02  0.20115512187E+03  0.24008428903E+03  0.12508879191E+03 0.  0.
          5    1    3    3  502    0 -0.44254794661E+02 -0.36616454032E+02  0.74422282113E+02  0.94103135077E+02  0.41800000000E+01 0. -1.
         -5    1    3    3    0  502  0.71789458768E+02  0.88366196803E+01  0.12673283976E+03  0.14598115396E+03  0.41800000000E+01 0. -1.
        -11    1    1    2    0    0 -0.50285699961E+02 -0.31809251618E+01  0.55416342808E+02  0.74898203955E+02  0.00000000000E+00 0. -1.
         11    1    1    2    0    0  0.22751035855E+02  0.30960759514E+02  0.11444544345E+03  0.12072256536E+03  0.00000000000E+00 0.  1.
</event>
<event>
 7    1  0.2842702E-009  0.1315383E+03  0.7561462E-02  0.1225191E+00
         -1   -1    0    0    0  501 -0.00000000000E+00  0.00000000000E+00  0.54202270012E+03  0.54202270012E+03  0.00000000000E+00 0.  1.
          1   -1    0    0  501    0  0.00000000000E+00 -0.00000000000E+00 -0.39488917915E+02  0.39488917915E+02  0.00000000000E+00 0. -1.
         25    2    1    2    0    0 -0.32302077598E+02  0.89041744649E+02  0.31481556855E+03  0.35175045615E+03  0.12509070586E+03 0.  0.
          5    1    3    3  502    0  0.74373356169E+01 -0.21568659307E+02  0.13440599366E+03  0.13639268513E+03  0.41800000000E+01 0.  1.
         -5    1    3    3    0  502 -0.39739413215E+02  0.11061040396E+03  0.18040957489E+03  0.21535777102E+03  0.41800000000E+01 0.  1.
        -11    1    1    2    0    0  0.29352525838E+02 -0.10346772220E+03  0.18610715597E+03  0.21494886325E+03  0.00000000000E+00 0.  1.
         11    1    1    2    0    0  0.29495517604E+01  0.14425977552E+02  0.16110576842E+01  0.14812298633E+02  0.00000000000E+00 0. -1.
</event>
<event>
 7    1  0.2842702E-009  0.3988881E+03  0.7561462E-02  0.1044165E+00
         -2   -1    0    0    0  501 -0.00000000000E+00  0.00000000000E+00  0.22156424489E+03  0.22156424489E+03  0.00000000000E+00 0.  1.
          2   -1    0    0  501    0  0.00000000000E+00 -0.00000000000E+00 -0.79340869652E+03  0.79340869652E+03  0.00000000000E+00 0. -1.
         25    2    1    2    0    0 -0.11281321731E+03  0.37653216209E+03 -0.17116562382E+03  0.44659612247E+03  0.12508850762E+03 0.  0.
          5    1    3    3  502    0 -0.86726318007E+02  0.14399608901E+03 -0.23273366562E+02  0.16975114101E+03  0.41800000000E+01 0.  1.
         -5    1    3    3    0  502 -0.26086899303E+02  0.23253607308E+03 -0.14789225726E+03  0.27684498146E+03  0.41800000000E+01 0.  1.
        -11    1    1    2    0    0  0.28571032980E+02 -0.17260540858E+03 -0.12374707258E+03  0.21429481788E+03  0.00000000000E+00 0.  1.
         11    1    1    2    0    0  0.84242184330E+02 -0.20392675351E+03 -0.27693175522E+03  0.35408200105E+03  0.00000000000E+00 0. -1.
</event>
<event>
 7    1  0.2842702E-009  0.1482986E+03  0.7561462E-02  0.1202579E+00
          1   -1    0    0  501    0  0.00000000000E+00  0.00000000000E+00  0.41078289298E+02  0.41078289298E+02  0.00000000000E+00 0. -1.
         -1   -1    0    0    0  501 -0.00000000000E+00 -0.00000000000E+00 -0.79929575980E+03  0.79929575980E+03  0.00000000000E+00 0.  1.
         25    2    1    2    0    0 -0.78896602852E+02  0.85717062961E+02 -0.20830175373E+03  0.26946051125E+03  0.12508899910E+03 0.  0.
          5    1    3    3  502    0 -0.10012933147E+03  0.63284078813E+02 -0.20667393914E+03  0.23824849878E+03  0.41800000000E+01 0.  1.
         -5    1    3    3    0  502  0.21232728615E+02  0.22432984147E+02 -0.16278145849E+01  0.31212012471E+02  0.41800000000E+01 0.  1.
        -11    1    1    2    0    0  0.84572830093E+02 -0.28265636084E+02 -0.40943662140E+03  0.41903443381E+03  0.00000000000E+00 0.  1.
         11    1    1    2    0    0 -0.56762272410E+01 -0.57451426876E+02 -0.14047909537E+03  0.15187910404E+03  0.00000000000E+00 0. -1.
</event>
<event>
 7    1  0.2842702E-009  0.1022015E+03  0.7561462E-02  0.1275733E+00
         -2   -1    0    0    0  501 -0.00000000000E+00  0.00000000000E+00  0.15827519142E+03  0.15827519142E+03  0.00000000000E+00 0.  1.
          2   -1    0    0  501    0  0.00000000000E+00 -0.00000000000E+00 -0.10436387003E+03  0.10436387003E+03  0.00000000000E+00 0. -1.
         25    2    1    2    0    0 -0.16120180814E+01  0.21632304426E+02 -0.36454106382E+02  0.13208022138E+03  0.12508288376E+03 0.  0.
          5    1    3    3  502    0  0.18309007345E+02 -0.47676268711E+02 -0.16617340951E+00  0.51242037058E+02  0.41800000000E+01 0.  1.
         -5    1    3    3    0  502 -0.19921025426E+02  0.69308573137E+02 -0.36287932973E+02  0.80838184318E+02  0.41800000000E+01 0.  1.
        -11    1    1    2    0    0 -0.47396220682E+01  0.29258484619E+02  0.37192595181E+01  0.29872325503E+02  0.00000000000E+00 0.  1.
         11    1    1    2    0    0  0.63516401496E+01 -0.50890789045E+02  0.86646168258E+02  0.10068651457E+03  0.00000000000E+00 0. -1.
</event>
<event>
 7    1  0.2842702E-009  0.1215794E+03  0.7561462E-02  0.1240514E+00
         -1   -1    0    0    0  501 -0.00000000000E+00  0.00000000000E+00  0.93572191785E+02  0.93572191785E+02  0.00000000000E+00 0.  1.
          1   -1    0    0  501    0  0.00000000000E+00 -0.00000000000E+00 -0.25550190490E+03  0.25550190490E+03  0.00000000000E+00 0. -1.
         25    2    1    2    0    0 -0.10513555220E+03  0.16787147716E+02 -0.52518355678E+02  0.17245896815E+03  0.12509446569E+03 0.  0.
          5    1    3    3  502    0 -0.51569584484E+02  0.62832190452E+01  0.39493635790E+02  0.65392052677E+02  0.41800000000E+01 0. -1.
         -5    1    3    3    0  502 -0.53565967716E+02  0.10503928671E+02 -0.92011991468E+02  0.10706691547E+03  0.41800000000E+01 0. -1.
        -11    1    1    2    0    0 -0.68364243772E+01 -0.23153062638E+02 -0.33075338186E+02  0.40948492083E+02  0.00000000000E+00 0. -1.
         11    1    1    2    0    0  0.11197197658E+03  0.63659149220E+01 -0.76336019251E+02  0.13566663645E+03  0.00000000000E+00 0.  1.
</event>
<event>
 6    1  0.2842702E-009  0.9906215E+02  0.7561462E-02  0.1282281E+00
         -1   -1    0    0    0  501 -0.00000000000E+00  0.00000000000E+00  0.11555549962E+03  0.11555549962E+03  0.00000000000E+00 0.  1.
          1   -1    0    0  501    0  0.00000000000E+00 -0.00000000000E+00 -0.11305745883E+03  0.11305745883E+03  0.00000000000E+00 0. -1.
          5    1    1    2  502    0 -0.56755555014E+02 -0.44467090485E+02  0.15099530277E+02  0.73783354327E+02  0.41800000000E+01 0. -1.
         -5    1    1    2    0  502  0.32752313173E+02  0.44161876358E+02  0.66265484127E+01  0.55537094680E+02  0.41800000000E+01 0. -1.
        -11    1    1    2    0    0  0.26707573808E+02 -0.30097902555E+02  0.23639034588E+02  0.46668856780E+02  0.00000000000E+00 0.  1.
         11    1    1    2    0    0 -0.27043319673E+01  0.30403116681E+02 -0.42867072490E+02  0.52623652659E+02  0.00000000000E+00 0. -1.
</event>
<event>
 6    1  0.2842702E-009  0.9867261E+02  0.7561462E-02  0.1283112E+00
          1   -1    0    0  501    0  0.00000000000E+00  0.00000000000E+00  0.19156282123E+03  0.19156282123E+03  0.00000000000E+00 0. -1.
         -1   -1    0    0    0  501 -0.00000000000E+00 -0.00000000000E+00 -0.69053286852E+02  0.69053286852E+02  0.00000000000E+00 0.  1.
          5    1    1    2  502    0 -0.20053583775E+02  0.48451368162E+02  0.57022206419E+01  0.52911898654E+02  0.41800000000E+01 0.  1.
         -5    1    1    2    0  502 -0.11376436292E+02 -0.71906698090E+02  0.57725059884E+02  0.93003502469E+02  0.41800000000E+01 0.  1.
        -11    1    1    2    0    0 -0.15821727794E+02  0.18449167223E+02 -0.13610566489E+02  0.27855813787E+02  0.00000000000E+00 0.  1.
         11    1    1    2    0    0  0.47251747861E+02  0.50061627057E+01  0.72692820341E+02  0.86844893172E+02  0.00000000000E+00 0. -1.
</event>
<event>
 7    1  0.2842702E-009  0.9949212E+02  0.7561462E-02  0.1281368E+00
         -1   -1    0    0    0  501 -0.00000000000E+00  0.00000000000E+00  0.70503514558E+02  0.70503514558E+02  0.00000000000E+00 0.  1.
          1   -1    0    0  501    0  0.00000000000E+00 -0.00000000000E+00 -0.35046907101E+03  0.35046907101E+03  0.00000000000E+00 0. -1.
         25    2    1    2    0    0  0.13727542950E+02 -0.46040067448E+02 -0.28769668957E+03  0.31737198730E+03  0.12508980730E+03 0.  0.
          5    1    3    3  502    0 -0.38709999208E+02 -0.17980494879E+02 -0.23150927331E+03  0.23544803729E+03  0.41800000000E+01 0. -1.
         -5    1    3    3    0  502  0.52437542158E+02 -0.28059572569E+02 -0.56187416258E+02  0.81923950015E+02  0.41800000000E+01 0. -1.
        -11    1    1    2    0    0  0.17458573014E+02 -0.18106541937E+02  0.18825308277E+02  0.31417206501E+02  0.00000000000E+00 0.  1.
         11    1    1    2    0    0 -0.31186115964E+02  0.64146609385E+02 -0.11094175166E+02  0.72183391768E+02  0.00000000000E+00 0. -1.
</event>
<event>
 7    1  0.2842702E-009  0.1684108E+03  0.7561462E-02  0.1179515E+00
          1   -1    0    0  501    0  0.00000000000E+00  0.00000000000E+00  0.84846930648E+02  0.84846930648E+02  0.00000000000E+00 0. -1.
         -1   -1    0    0    0  501 -0.00000000000E+00 -0.00000000000E+00 -0.36165209847E+03  0.36165209847E+03  0.00000000000E+00 0.  1.
         25    2    1    2    0    0  0.10281029180E+03  0.85153317955E+02 -0.10966370473E+03  0.21329926486E+03  0.12509758030E+03 0.  0.
          5    1    3    3  502    0  0.10122294224E+03  0.11370341003E+03 -0.80555533840E+02  0.17228237263E+03  0.41800000000E+01 0.  1.
         -5    1    3    3    0  502  0.15873495622E+01 -0.28550092072E+02 -0.29108170887E+02  0.41016892231E+02  0.41800000000E+01 0.  1.
        -11    1    1    2    0    0  0.80871675120E+01 -0.31346096315E+02 -0.10831980923E+02  0.34136664209E+02  0.00000000000E+00 0. -1.
         11    1    1    2    0    0 -0.11089745931E+03 -0.53807221640E+02 -0.15630948217E+03  0.19906310004E+03  0.00000000000E+00 0.  1.
</event>
<event>
 7    1  0.2842702E-009  0.1220032E+03  0.7561462E-02  0.1239828E+00
          4   -1    0    0  501    0  0.00000000000E+00  0.00000000000E+00  0.50826189114E+02  0.50826189114E+02  0.00000000000E+00 0. -1.
         -4   -1    0    0    0  501 -0.00000000000E+00 -0.00000000000E+00 -0.31999512266E+03  0.31999512266E+03  0.00000000000E+00 0.  1.
         25    2    1    2    0    0  0.64563115002E+02  0.96675025509E+01 -0.16443941679E+03  0.21667907668E+03  0.12509054341E+03 0.  0.
          5    1    3    3  502    0 -0.15242469829E+02 -0.36162170058E+02 -0.89883744798E+02  0.98166162239E+02  0.41800000000E+01 0. -1.
         -5    1    3    3    0  502  0.79805584831E+02  0.45829672609E+02 -0.74555671995E+02  0.11851291444E+03  0.41800000000E+01 0. -1.
        -11    1    1    2    0    0 -0.80691365710E+02 -0.30332144890E+02 -0.87138048836E+02  0.12257314171E+03  0.00000000000E+00 0. -1.
         11    1    1    2    0    0  0.16128250708E+02  0.20664642339E+02 -0.17591467918E+02  0.31569093389E+02  0.00000000000E+00 0.  1.
</event>
<event>
 7    1  0.2842702E-009  0.9022443E+02  0.7561462E-02  0.1302309E+00
         -1   -1    0    0    0  501 -0.00000000000E+00  0.00000000000E+00  0.16233782577E+03  0.16233782577E+03  0.00000000000E+00 0.  1.
          1   -1    0    0  501    0  0.00000000000E+00 -0.00000000000E+00 -0.11516842690E+03  0.11516842690E+03  0.00000000000E+00 0. -1.
         25    2    1    2    0    0  0.73437447044E+02 -0.14919762435E+02 -0.13757436372E+02  0.14646654378E+03  0.12509006136E+03 0.  0.
          5    1    3    3  502    0  0.23221377986E+02  0.14949458258E+02  0.51615680651E+02  0.58688751791E+02  0.41800000000E+01 0.  1.
         -5    1    3    3    0  502  0.50216069059E+02 -0.29869220693E+02 -0.65373117023E+02  0.87777791985E+02  0.41800000000E+01 0.  1.
        -11    1    1    2    0    0 -0.65734006007E+02 -0.11223331053E+02  0.26883330173E+01  0.66739417438E+02  0.00000000000E+00 0. -1.
         11    1    1    2    0    0 -0.77034410377E+01  0.26143093488E+02  0.58238502216E+02  0.64300291456E+02  0.00000000000E+00 0.  1.
</event>
<event>
 7    1  0.2842702E-009  0.1379991E+03  0.7561462E-02  0.1216047E+00
          1   -1    0    0  501    0  0.00000000000E+00  0.00000000000E+00  0.14061810835E+02  0.14061810835E+02  0.00000000000E+00 0. -1.
         -1   -1    0    0    0  501 -0.00000000000E+00 -0.00000000000E+00 -0.23961476627E+04  0.23961476627E+04  0.00000000000E+00 0.  1.
         25    2    1    2    0    0  0.95008480070E+02 -0.50011011498E+02 -0.19268356151E+04  0.19338745729E+04  0.12509062210E+03 0.  0.
          5    1    3    3  502    0 -0.24086038070E+02 -0.31589523524E+02 -0.69635778773E+03  0.69750245602E+03  0.41800000000E+01 0. -1.
         -5    1    3    3    0  502  0.11909451814E+03 -0.18421487975E+02 -0.12304778273E+04  0.12363721169E+04  0.41800000000E+01 0. -1.
        -11    1    1    2    0    0 -0.86957450224E+02  0.26938726397E+02 -0.43550531454E+03  0.44491816340E+03  0.00000000000E+00 0.  1.
         11    1    1    2    0    0 -0.80510298452E+01  0.23072285101E+02 -0.19744922211E+02  0.31416737171E+02  0.00000000000E+00 0. -1.
</event>
<event>
 7    1  0.2842702E-009  0.1024196E+03  0.7561462E-02  0.1275289E+00
         -2   -1    0    0    0  501 -0.00000000000E+00  0.00000000000E+00  0.21208216381E+03  0.21208216381E+03  0.00000000000E+00 0.  1.
          2   -1    0    0  501    0  0.00000000000E+00 -0.00000000000E+00 -0.68553717171E+02  0.68553717171E+02  0.00000000000E+00 0. -1.
         25    2    1    2    0    0  0.50511866899E+02 -0.11198295292E+02  0.77557956415E+02  0.15601053055E+03  0.12508876258E+03 0.  0.
          5    1    3    3  502    0  0.20032586259E+02 -0.60193382439E+02  0.74692357720E+02  0.98086535791E+02  0.41800000000E+01 0. -1.
         -5    1    3    3    0  502  0.30479280640E+02  0.48995087148E+02  0.28655986955E+01  0.57923994759E+02  0.41800000000E+01 0. -1.
        -11    1    1    2    0    0 -0.44902414122E+02  0.36267784291E+02  0.43726017942E+01  0.57885219339E+02  0.00000000000E+00 0. -1.
         11    1    1    2    0    0 -0.56094527769E+01 -0.25069489000E+02  0.61597888427E+02  0.66740131090E+02  0.00000000000E+00 0.  1.
</event>
<event>
 7    1  0.2842702E-009  0.1120359E+03  0.7561462E-02  0.1256846E+00
         -3   -1    0    0    0  501 -0.00000000000E+00  0.00000000000E+00  0.37605699023E+02  0.37605699023E+02  0.00000000000E+00 0.  1.
          3   -1    0    0  501    0  0.00000000000E+00 -0.00000000000E+00 -0.43208454212E+03  0.43208454212E+03  0.00000000000E+00 0. -1.
         25    2    1    2    0    0 -0.50846458278E+02 -0.46220188105E+02 -0.26471249721E+03  0.30073332114E+03  0.12508459601E+03 0.  0.
          5    1    3    3  502    0 -0.80605570172E+02 -0.31712705061E+02 -0.98635167724E+02  0.13133667545E+03  0.41800000000E+01 0.  1.
         -5    1    3    3    0  502  0.29759111895E+02 -0.14507483045E+02 -0.16607732948E+03  0.16939664570E+03  0.41800000000E+01 0.  1.
        -11    1    1    2    0    0  0.15866566991E+02  0.63155230384E+02 -0.57353578507E+02  0.86774212993E+02  0.00000000000E+00 0.  1.
         11    1    1    2    0    0  0.34979891286E+02 -0.16935042279E+02 -0.72412767385E+02  0.82182707011E+02  0.00000000000E+00 0. -1.
</event>
<event>
 7    1  0.2842702E-009  0.1375855E+03  0.7561462E-02  0.1216615E+00
          1   -1    0    0  501    0  0.00000000000E+00  0.00000000000E+00  0.54137257182E+03  0.54137257182E+03  0.00000000000E+00 0. -1.
         -1   -1    0    0    0  501 -0.00000000000E+00 -0.00000000000E+00 -0.46878671894E+02  0.46878671894E+02  0.00000000000E+00 0.  1.
         25    2    1    2    0    0 -0.73353994079E+02  0.76020411187E+02  0.35827514656E+03  0.39391432583E+03  0.12508998395E+03 0.  0.
          5    1    3    3  502    0 -0.67021057629E+02 -0.16624478623E+02  0.18052010838E+03  0.19332143539E+03  0.41800000000E+01 0.  1.
         -5    1    3    3    0  502 -0.63329364502E+01  0.92644889810E+02  0.17775503818E+03  0.20059289043E+03  0.41800000000E+01 0.  1.
        -11    1    1    2    0    0  0.51602713923E+02 -0.24519938494E+02  0.12371373689E+02  0.58456123331E+02  0.00000000000E+00 0.  1.
         11    1    1    2    0    0  0.21751280156E+02 -0.51500472693E+02  0.12384737968E+03  0.13588079455E+03  0.00000000000E+00 0. -1.
</event>
<event>
 7    1  0.2842702E-009  0.7692122E+02  0.7561462E-02  0.1338023E+00
         -2   -1    0    0    0  501 -0.00000000000E+00  0.00000000000E+00  0.11926644693E+03  0.11926644693E+03  0.00000000000E+00 0.  1.
          2   -1    0    0  501    0  0.00000000000E+00 -0.00000000000E+00 -0.14137426036E+03  0.14137426036E+03  0.00000000000E+00 0. -1.
         25    2    1    2    0    0  0.74547846228E+01 -0.11480486403E+02 -0.82537718087E+02  0.15049719996E+03  0.12509818907E+03 0.  0.
          5    1    3    3  502    0  0.95000952197E+01  0.37620963651E+02 -0.92306581610E+02  0.10021759388E+03  0.41800000000E+01 0. -1.
         -5    1    3    3    0  502 -0.20453105969E+01 -0.49101450054E+02  0.97688635235E+01  0.50279606078E+02  0.41800000000E+01 0. -1.
        -11    1    1    2    0    0 -0.34937132982E+02 -0.17755627142E+01  0.69925484889E+02  0.78187782427E+02  0.00000000000E+00 0.  1.
         11    1    1    2    0    0  0.27482348359E+02  0.13256049117E+02 -0.94955802334E+01  0.31955724894E+02  0.00000000000E+00 0. -1.
</event>
<event>
 7    1  0.2842702E-009  0.7220444E+02  0.7561462E-02  0.1352753E+00
         -1   -1    0    0    0  501 -0.00000000000E+00  0.00000000000E+00  0.17621207883E+02  0.17621207883E+02  0.00000000000E+00 0.  1.
          1   -1    0    0  501    0  0.00000000000E+00 -0.00000000000E+00 -0.11083036440E+04  0.11083036440E+04  0.00000000000E+00 0. -1.
         25    2    1    2    0    0 -0.31855379885E+02  0.38199883712E+02 -0.88572203138E+03  0.89589331012E+03  0.12508920773E+03 0.  0.
          5    1    3    3  502    0 -0.14037581458E+02 -0.22533741778E+02 -0.42472396739E+02  0.50261318094E+02  0.41800000000E+01 0. -1.
         -5    1    3    3    0  502 -0.17817798426E+02  0.60733625490E+02 -0.84324963464E+03  0.84563199202E+03  0.41800000000E+01 0. -1.
        -11    1    1    2    0    0  0.12515852987E+02 -0.14830900977E+01  0.67466353186E+01  0.14295566458E+02  0.00000000000E+00 0.  1.
         11    1    1    2    0    0  0.19339526898E+02 -0.36716793614E+02 -0.21170704003E+03  0.21573597528E+03  0.00000000000E+00 0. -1.
</event>
<event>
 7    1  0.3593384E-009  0.2693825E+03  0.7561462E-02  0.1101634E+00
         -2   -1    0    0    0  501 -0.00000000000E+00  0.00000000000E+00  0.53640294495E+02  0.53640294495E+02  0.00000000000E+00 0.  1.
          2   -1    0    0  501    0  0.00000000000E+00 -0.00000000000E+00 -0.14067573023E+04  0.14067573023E+04  0.00000000000E+00 0. -1.
         25    2    1    2    0    0  0.14750050597E+03 -0.19829242019E+03 -0.82173291601E+03  0.86716135121E+03  0.12509012993E+03 0.  0.
          5    1    3    3  502    0 -0.24319646344E+01  0.14186871649E+02 -0.73541711824E+02  0.75053564586E+02  0.41800000000E+01 0. -1.
         -5    1    3    3    0  502  0.14993247061E+03 -0.21247929184E+03 -0.74819120419E+03  0.79210778662E+03  0.41800000000E+01 0. -1.
        -11    1    1    2    0    0 -0.10413299505E+02  0.85595339373E+02 -0.16826968517E+03  0.18907587334E+03  0.00000000000E+00 0. -1.
         11    1    1    2    0    0 -0.13708720647E+03  0.11269708082E+03 -0.36311440660E+03  0.40416037224E+03  0.00000000000E+00 0.  1.
</event>
<event>
 7    1  0.2842702E-009  0.2306650E+03  0.7561462E-02  0.1126173E+00
         -2   -1    0    0    0  501 -0.00000000000E+00  0.00000000000E+00  0.60599711345E+02  0.60599711345E+02  0.00000000000E+00 0.  1.
          2   -1    0    0  501    0  0.00000000000E+00 -0.00000000000E+00 -0.91082373634E+03  0.91082373634E+03  0.00000000000E+00 0. -1.
         25    2    1    2    0    0  0.12413036837E+03  0.16819844006E+03 -0.46365952062E+03  0.52376056871E+03  0.12508364673E+03 0.  0.
          5    1    3    3  502    0  0.13604048902E+03  0.10622080926E+03 -0.27424032418E+03  0.32406033818E+03  0.41800000000E+01 0.  1.
         -5    1    3    3    0  502 -0.11910120647E+02  0.61977630800E+02 -0.18941919644E+03  0.19970023053E+03  0.41800000000E+01 0.  1.
        -11    1    1    2    0    0 -0.24274208050E+01 -0.67298086979E+02 -0.10457371936E+03  0.12438081710E+03  0.00000000000E+00 0.  1.
         11    1    1    2    0    0 -0.12170294757E+03 -0.10090035308E+03 -0.28199078501E+03  0.32328206188E+03  0.00000000000E+00 0. -1.
</event>
<event>
 7    1  0.2842702E-009  0.1138770E+03  0.7561462E-02  0.1253554E+00
         -1   -1    0    0    0  501 -0.00000000000E+00  0.00000000000E+00  0.48452963593E+02  0.48452963593E+02  0.00000000000E+00 0.  1.
          1   -1    0    0  501    0  0.00000000000E+00 -0.00000000000E+00 -0.29951270040E+03  0.29951270040E+03  0.00000000000E+00 0. -1.
         25    2    1    2    0    0 -0.34239229318E+02  0.33086979030E+02 -0.17727122140E+03  0.22212396629E+03  0.12508755917E+03 0.  0.
          5    1    3    3  502    0 -0.78817608347E+02  0.40044935439E+02 -0.11516721205E+03  0.14524727664E+03  0.41800000000E+01 0. -1.
         -5    1    3    3    0  502  0.44578379029E+02 -0.69579564100E+01 -0.62104009351E+02  0.76876689651E+02  0.41800000000E+01 0. -1.
        -11    1    1    2    0    0  0.29993946381E+02 -0.59793613486E+02 -0.72677149144E+02  0.98776925650E+02  0.00000000000E+00 0. -1.
         11    1    1    2    0    0  0.42452829371E+01  0.26706634456E+02 -0.11113662620E+01  0.27064772051E+02  0.00000000000E+00 0.  1.
</event>
<event>
 7    1  0.2842702E-009  0.9762409E+02  0.7561462E-02  0.1285373E+00
         -1   -1    0    0    0  501 -0.00000000000E+00  0.00000000000E+00  0.28942462471E+02  0.28942462471E+02  0.00000000000E+00 0.  1.
          1   -1    0    0  501    0  0.00000000000E+00 -0.00000000000E+00 -0.46361714958E+03  0.46361714958E+03  0.00000000000E+00 0. -1.
         25    2    1    2    0    0  0.30454597541E+02  0.22278317917E+02 -0.28287099769E+03  0.31159189260E+03  0.12509876195E+03 0.  0.
          5    1    3    3  502    0 -0.33982848081E+02 -0.31568784209E+02 -0.10316989234E+03  0.11319417470E+03  0.41800000000E+01 0.  1.
         -5    1    3    3    0  502  0.64437445622E+02  0.53847102126E+02 -0.17970110535E+03  0.19839771791E+03  0.41800000000E+01 0.  1.
        -11    1    1    2    0    0  0.81510012922E+01 -0.24607798647E+02 -0.17186537510E+01  0.25979537083E+02  0.00000000000E+00 0.  1.
         11    1    1    2    0    0 -0.38605598833E+02  0.23294807299E+01 -0.15008503566E+03  0.15498818236E+03  0.00000000000E+00 0. -1.
</event>
<event>
 7    1  0.2842702E-009  0.1881020E+03  0.7561462E-02  0.1160184E+00
         -1   -1    0    0    0  501 -0.00000000000E+00  0.00000000000E+00  0.68822521443E+03  0.68822521443E+03  0.00000000000E+00 0.  1.
          1   -1    0    0  501    0  0.00000000000E+00 -0.00000000000E+00 -0.64189847857E+02  0.64189847857E+02  0.00000000000E+00 0. -1.
         25    2    1    2    0    0 -0.14747330650E+03 -0.94963152495E+02  0.26567746089E+03  0.34205011305E+03  0.12508952854E+03 0.  0.
          5    1    3    3  502    0 -0.11812500155E+03 -0.10515639768E+03  0.13596463461E+03  0.20860306380E+03  0.41800000000E+01 0.  1.
         -5    1    3    3    0  502 -0.29348304952E+02  0.10193245183E+02  0.12971282629E+03  0.13344704925E+03  0.41800000000E+01 0.  1.
        -11    1    1    2    0    0  0.12437809960E+03  0.10372151681E+03  0.24049185571E+03  0.28993860966E+03  0.00000000000E+00 0. -1.
         11    1    1    2    0    0  0.23095206901E+02 -0.87583643182E+01  0.11786604997E+03  0.12042633957E+03  0.00000000000E+00 0.  1.
</event>
<event>
 7    1  0.2842702E-009  0.2391873E+03  0.7561462E-02  0.1120335E+00
          1   -1    0    0  501    0  0.00000000000E+00  0.00000000000E+00  0.48372603530E+02  0.48372603530E+02  0.00000000000E+00 0. -1.
         -1   -1    0    0    0  501 -0.00000000000E+00 -0.00000000000E+00 -0.13066435898E+04  0.13066435898E+04  0.00000000000E+00 0.  1.
         25    2    1    2    0    0 -0.19640170606E+02 -0.21753163751E+03 -0.80756050981E+03  0.84587831854E+03  0.12510157135E+03 0.  0.
          5    1    3    3  502    0  0.29212961945E+02 -0.55516694687E+01 -0.15853812369E+03  0.16135683203E+03  0.41800000000E+01 0. -1.
         -5    1    3    3    0  502 -0.48853132552E+02 -0.21197996804E+03 -0.64902238611E+03  0.68452148651E+03  0.41800000000E+01 0. -1.
        -11    1    1    2    0    0  0.43042278046E+02  0.76221196192E+02 -0.11815343749E+03  0.14704605823E+03  0.00000000000E+00 0.  1.
         11    1    1    2    0    0 -0.23402107440E+02  0.14131044132E+03 -0.33255703900E+03  0.36209181660E+03  0.00000000000E+00 0. -1.
</event>
<event>
 6    1  0.2842702E-009  0.3683221E+03  0.7561462E-02  0.1055336E+00
          2   -1    0    0  501    0  0.00000000000E+00  0.00000000000E+00  0.20497926112E+04  0.20497926112E+04  0.00000000000E+00 0. -1.
         -2   -1    0    0    0  501 -0.00000000000E+00 -0.00000000000E+00 -0.78441153332E+02  0.78441153332E+02  0.00000000000E+00 0.  1.
          5    1    1    2  502    0  0.90137133713E+02  0.16023147558E+02  0.52239096991E+03  0.53036896777E+03  0.41800000000E+01 0. -1.
         -5    1    1    2    0  502  0.25981034182E+03 -0.91450568117E+02  0.85516765225E+03  0.89843965072E+03  0.41800000000E+01 0. -1.
        -11    1    1    2    0    0 -0.30295760063E+03  0.30447710381E+02  0.49439232476E+03  0.58063253580E+03  0.00000000000E+00 0.  1.
         11    1    1    2    0    0 -0.46989874907E+02  0.44979710178E+02  0.99400510941E+02  0.11879261024E+03  0.00000000000E+00 0. -1.
</event>
<event>
 7    1  0.2842702E-009  0.9122860E+02  0.7561462E-02  0.1299903E+00
         -1   -1    0    0    0  501 -0.00000000000E+00  0.00000000000E+00  0.91973979267E+01  0.91973979267E+01  0.00000000000E+00 0.  1.
          1   -1    0    0  501    0  0.00000000000E+00 -0.00000000000E+00 -0.29329024713E+04  0.29329024713E+04  0.00000000000E+00 0. -1.
         25    2    1    2    0    0 -0.21316571679E+02  0.34873330171E+02 -0.26138536333E+04  0.26171641789E+04  0.12508788065E+03 0.  0.
          5    1    3    3  502    0  0.13166193410E+02 -0.23062196537E+02 -0.18838594391E+04  0.18840512393E+04  0.41800000000E+01 0. -1.
         -5    1    3    3    0  502 -0.34482765090E+02  0.57935526708E+02 -0.72999419415E+03  0.73311293962E+03  0.41800000000E+01 0. -1.
        -11    1    1    2    0    0 -0.24283122644E+02  0.78667566457E+01 -0.36560669646E+02  0.44589667754E+02  0.00000000000E+00 0.  1.
         11    1    1    2    0    0  0.45599694323E+02 -0.42740086817E+02 -0.27329077049E+03  0.28034602258E+03  0.00000000000E+00 0. -1.
</event>
<event>
 7    1  0.2842702E-009  0.1051196E+03  0.7561462E-02  0.1269884E+00
         -2   -1    0    0    0  501 -0.00000000000E+00  0.00000000000E+00  0.31382855506E+02  0.31382855506E+02  0.00000000000E+00 0.  1.
          2   -1    0    0  501    0  0.00000000000E+00 -0.00000000000E+00 -0.46814738832E+03  0.46814738832E+03  0.00000000000E+00 0. -1.
         25    2    1    2    0    0 -0.37673372768E+02  0.22643750962E+02 -0.21210358156E+03  0.25012657477E+03  0.12507338496E+03 0.  0.
          5    1    3    3  502    0 -0.88982095217E+01 -0.36528589832E+02 -0.12380796203E+02  0.39802921028E+02  0.41800000000E+01 0.  1.
         -5    1    3    3    0  502 -0.28775163246E+02  0.59172340794E+02 -0.19972278535E+03  0.21032365374E+03  0.41800000000E+01 0.  1.
        -11    1    1    2    0    0 -0.33050086537E+02 -0.36527289888E+01 -0.92741015695E+02  0.98521807947E+02  0.00000000000E+00 0.  1.
         11    1    1    2    0    0  0.70723459305E+02 -0.18991021973E+02 -0.13191993556E+03  0.15088186110E+03  0.00000000000E+00 0. -1.
</event>
<event>
 7    1  0.2842702E-009  0.9110657E+02  0.7561462E-02  0.1300194E+00
          1   -1    0    0  501    0  0.00000000000E+00  0.00000000000E+00  0.23141976107E+04  0.23141976107E+04  0.00000000000E+00 0. -1.
         -1   -1    0    0    0  501 -0.00000000000E+00 -0.00000000000E+00 -0.10359374136E+02  0.10359374136E+02  0.00000000000E+00 0.  1.
         25    2    1    2    0    0  0.34443905686E+02 -0.56864763414E+02  0.19155097605E+04  0.19207412478E+04  0.12509722011E+03 0.  0.
          5    1    3    3  502    0 -0.50345132163E+00  0.48202873250E+00  0.14849106964E+04  0.14849167433E+04  0.41800000000E+01 0.  1.
         -5    1    3    3    0  502  0.34947357008E+02 -0.57346792146E+02  0.43059906415E+03  0.43582450457E+03  0.41800000000E+01 0.  1.
        -11    1    1    2    0    0  0.26080412580E+02  0.40188685745E+02  0.17535316941E+03  0.18178023106E+03  0.00000000000E+00 0.  1.
         11    1    1    2    0    0 -0.60524318266E+02  0.16676077669E+02  0.21297530662E+03  0.22203550594E+03  0.00000000000E+00 0. -1.
</event>
<event>
 7    1  0.2842702E-009  0.9241760E+02  0.7561462E-02  0.1297101E+00
          1   -1    0    0  501    0  0.00000000000E+00  0.00000000000E+00  0.26552503390E+03  0.26552503390E+03  0.00000000000E+00 0. -1.
         -1   -1    0    0    0  501 -0.00000000000E+00 -0.00000000000E+00 -0.60249444220E+02  0.60249444220E+02  0.00000000000E+00 0.  1.
         25    2    1    2    0    0  0.24612590210E+02  0.26256762804E+02  0.45329854800E+02  0.13783054504E+03  0.12508903317E+03 0.  0.
          5    1    3    3  502    0  0.48713189303E+00  0.54515258940E+02  0.73077783683E+02  0.91268754910E+02  0.41800000000E+01 0. -1.
         -5    1    3    3    0  502  0.24125458317E+02 -0.28258496136E+02 -0.27747928883E+02  0.46561790131E+02  0.41800000000E+01 0. -1.
        -11    1    1    2    0    0 -0.56307110142E+02 -0.10149212120E+02  0.65182391164E+02  0.86730855392E+02  0.00000000000E+00 0.  1.
         11    1    1    2    0    0  0.31694519932E+02 -0.16107550683E+02  0.94763343718E+02  0.10121307769E+03  0.00000000000E+00 0. -1.
</event>
<event>
 7    1  0.2842702E-009  0.2141526E+03  0.7561462E-02  0.1138319E+00
          1   -1    0    0  501    0  0.00000000000E+00  0.00000000000E+00  0.87359251646E+03  0.87359251646E+03  0.00000000000E+00 0. -1.
         -1   -1    0    0    0  501 -0.00000000000E+00 -0.00000000000E+00 -0.64315876171E+02  0.64315876171E+02  0.00000000000E+00 0.  1.
         25    2    1    2    0    0  0.43812755007E+02 -0.19394285507E+03  0.28005278321E+03  0.36552639370E+03  0.12508634849E+03 0.  0.
          5    1    3    3  502    0  0.12859728561E+02 -0.18840977891E+03  0.27466833805E+03  0.33335234472E+03  0.41800000000E+01 0. -1.
         -5    1    3    3    0  502  0.30953026447E+02 -0.55330761611E+01  0.53844451587E+01  0.32174048979E+02  0.41800000000E+01 0. -1.
        -11    1    1    2    0    0 -0.58937472022E+02  0.14716168311E+03  0.46641513627E+03  0.49261878357E+03  0.00000000000E+00 0. -1.
         11    1    1    2    0    0  0.15124717015E+02  0.46781171953E+02  0.62808720802E+02  0.79763215350E+02  0.00000000000E+00 0.  1.
</event>
<event>
 7    1  0.2842702E-009  0.1123557E+03  0.7561462E-02  0.1256269E+00
          1   -1    0    0  501    0  0.00000000000E+00  0.00000000000E+00  0.65317747983E+02  0.65317747983E+02  0.00000000000E+00 0.  1.
         -1   -1    0    0    0  501 -0.00000000000E+00 -0.00000000000E+00 -0.38076136479E+03  0.38076136479E+03  0.00000000000E+00 0. -1.
         25    2    1    2    0    0 -0.75746562797E+02 -0.43945061658E+02 -0.65810733565E+02  0.16627530582E+03  0.12509082481E+03 0.  0.
          5    1    3    3  502    0 -0.19006965595E+02 -0.68960374673E+02 -0.74679880190E+02  0.10349567586E+03  0.41800000000E+01 0.  1.
         -5    1    3    3    0  502 -0.56739597202E+02  0.25015313015E+02  0.88691466254E+01  0.62779629959E+02  0.41800000000E+01 0.  1.
        -11    1    1    2    0    0  0.48762775621E+02  0.41101968521E+02 -0.24386272181E+03  0.25206389506E+03  0.00000000000E+00 0. -1.
         11    1    1    2    0    0  0.26983787176E+02  0.28430931364E+01 -0.57701614273E+01  0.27739911893E+02  0.00000000000E+00 0.  1.
</event>
<event>
 7    1  0.2842702E-009  0.7962704E+02  0.7561462E-02  0.1330113E+00
         -1   -1    0    0    0  501 -0.00000000000E+00  0.00000000000E+00  0.28208775915E+02  0.28208775915E+02  0.00000000000E+00 0. -1.
          1   -1    0    0  501    0  0.00000000000E+00 -0.00000000000E+00 -0.56117460663E+03  0.56117460663E+03  0.00000000000E+00 0.  1.
         25    2    1    2    0    0  0.16420959353E+02  0.44939795606E+02 -0.39059025750E+03  0.41291309027E+03  0.12508891928E+03 0.  0.
          5    1    3    3  502    0 -0.26150237741E+02  0.20726913203E+02 -0.20103409728E+02  0.39179833429E+02  0.41800000000E+01 0.  1.
         -5    1    3    3    0  502  0.42571197095E+02  0.24212882403E+02 -0.37048684777E+03  0.37373325684E+03  0.41800000000E+01 0.  1.
        -11    1    1    2    0    0  0.27801562321E+01 -0.54811289953E+02 -0.14469742033E+03  0.15475577606E+03  0.00000000000E+00 0.  1.
         11    1    1    2    0    0 -0.19201115585E+02  0.98714943468E+01  0.23218471127E+01  0.21714516213E+02  0.00000000000E+00 0. -1.
</event>
<event>
 7    1  0.2842702E-009  0.1110457E+03  0.7561462E-02  0.1258646E+00
          1   -1    0    0  501    0  0.00000000000E+00  0.00000000000E+00  0.52982316681E+03  0.52982316681E+03  0.00000000000E+00 0.  1.
         -1   -1    0    0    0  501 -0.00000000000E+00 -0.00000000000E+00 -0.61404408921E+02  0.61404408921E+02  0.00000000000E+00 0. -1.
         25    2    1    2    0    0  0.39791880656E+02 -0.59120365565E+02  0.38693212489E+03  0.41284664017E+03  0.12508903884E+03 0.  0.
          5    1    3    3  502    0  0.34393100030E+02 -0.28369231928E+02  0.28601105760E+02  0.53133739757E+02  0.41800000000E+01 0.  1.
         -5    1    3    3    0  502  0.53987806259E+01 -0.30751133636E+02  0.35833101913E+03  0.35971290042E+03  0.41800000000E+01 0.  1.
        -11    1    1    2    0    0  0.25326263518E+02  0.74682807137E+02  0.84675800761E+01  0.79313562636E+02  0.00000000000E+00 0. -1.
         11    1    1    2    0    0 -0.65118144174E+02 -0.15562441573E+02  0.73019052918E+02  0.99067372921E+02  0.00000000000E+00 0.  1.
</event>
<event>
 7    1  0.3818027E-009  0.1354212E+03  0.7561462E-02  0.1219626E+00
         -2   -1    0    0    0  501 -0.00000000000E+00  0.00000000000E+00  0.61864941300E+02  0.61864941300E+02  0.00000000000E+00 0.  1.
          2   -1    0    0  501    0  0.00000000000E+00 -0.00000000000E+00 -0.62605244184E+03  0.62605244184E+03  0.00000000000E+00 0. -1.
         25    2    1    2    0    0 -0.12345333516E+03 -0.87838918713E+01 -0.48276044669E+03  0.51383085406E+03  0.12508643003E+03 0.  0.
          5    1    3    3  502    0 -0.81938997336E+02  0.40609165253E+01 -0.45441290787E+03  0.46177814323E+03  0.41800000000E+01 0.  1.
         -5    1    3    3    0  502 -0.41514337825E+02 -0.12844808397E+02 -0.28347538826E+02  0.52052710836E+02  0.41800000000E+01 0.  1.
        -11    1    1    2    0    0  0.16046629910E+02  0.31413903791E+02  0.32943904239E+01  0.35428529339E+02  0.00000000000E+00 0.  1.
         11    1    1    2    0    0  0.10740670525E+03 -0.22630011920E+02 -0.84721444275E+02  0.13865799974E+03  0.00000000000E+00 0. -1.
</event>
<event>
 7    1  0.2842702E-009  0.1103893E+03  0.7561462E-02  0.1259851E+00
          2   -1    0    0  501    0  0.00000000000E+00  0.00000000000E+00  0.14303164438E+03  0.14303164438E+03  0.00000000000E+00 0. -1.
         -2   -1    0    0    0  501 -0.00000000000E+00 -0.00000000000E+00 -0.12231156400E+03  0.12231156400E+03  0.00000000000E+00 0.  1.
         25    2    1    2    0    0  0.64052651907E+02 -0.39920183028E+01  0.54210666154E+01  0.14070369615E+03  0.12509781661E+03 0.  0.
          5    1    3    3  502    0  0.45382180392E+02  0.41694235483E+02  0.45720941762E+02  0.76849388321E+02  0.41800000000E+01 0.  1.
         -5    1    3    3    0  502  0.18670471516E+02 -0.45686253786E+02 -0.40299875147E+02  0.63854307830E+02  0.41800000000E+01 0.  1.
        -11    1    1    2    0    0  0.17316564700E+02 -0.18216089344E+02  0.29878027699E+02  0.39043384372E+02  0.00000000000E+00 0. -1.
         11    1    1    2    0    0 -0.81369216607E+02  0.22208107647E+02 -0.14579013929E+02  0.85596127854E+02  0.00000000000E+00 0.  1.
</event>
<event>
 7    1  0.2842702E-009  0.1072581E+03  0.7561462E-02  0.1265733E+00
         -2   -1    0    0    0  501 -0.00000000000E+00  0.00000000000E+00  0.12428126474E+03  0.12428126474E+03  0.00000000000E+00 0.  1.
          2   -1    0    0  501    0  0.00000000000E+00 -0.00000000000E+00 -0.15157041375E+03  0.15157041375E+03  0.00000000000E+00 0. -1.
         25    2    1    2    0    0 -0.66697218414E+02 -0.41800716185E+02 -0.42488671167E+02  0.15377953344E+03  0.12508812458E+03 0.  0.
          5    1    3    3  502    0 -0.72894807343E+02 -0.59537157678E+02 -0.71980795349E+02  0.11856236073E+03  0.41800000000E+01 0.  1.
         -5    1    3    3    0  502  0.61975889288E+01  0.17736441492E+02  0.29492124182E+02  0.35217172716E+02  0.41800000000E+01 0.  1.
        -11    1    1    2    0    0  0.15925450497E+02  0.47375284493E+02  0.41186991804E+02  0.64764232784E+02  0.00000000000E+00 0.  1.
         11    1    1    2    0    0  0.50771767917E+02 -0.55745683072E+01 -0.25987469653E+02  0.57307912265E+02  0.00000000000E+00 0. -1.
</event>
<event>
 7    1  0.2842702E-009  0.6330181E+02  0.7561462E-02  0.1384476E+00
         -2   -1    0    0    0  501 -0.00000000000E+00  0.00000000000E+00  0.20012540798E+02  0.20012540798E+02  0.00000000000E+00 0.  1.
          2   -1    0    0  501    0  0.00000000000E+00 -0.00000000000E+00 -0.88683909087E+03  0.88683909087E+03  0.00000000000E+00 0. -1.
         25    2    1    2    0    0  0.47666725393E+02 -0.40691147464E+02 -0.62848924137E+03  0.64387415348E+03  0.12508921941E+03 0.  0.
          5    1    3    3  502    0  0.22521532391E+02 -0.24486071092E+02 -0.31133935827E+02  0.45755671330E+02  0.41800000000E+01 0.  1.
         -5    1    3    3    0  502  0.25145193002E+02 -0.16205076372E+02 -0.59735530554E+03  0.59811848215E+03  0.41800000000E+01 0.  1.
        -11    1    1    2    0    0 -0.19512434260E+02  0.13499939379E+02 -0.24370769355E+01  0.23852102590E+02  0.00000000000E+00 0.  1.
         11    1    1    2    0    0 -0.28154291132E+02  0.27191208085E+02 -0.23590023177E+03  0.23912537560E+03  0.00000000000E+00 0. -1.
</event>
<event>
 7    1  0.2842702E-009  0.8507285E+02  0.7561462E-02  0.1315242E+00
         -4   -1    0    0    0  501 -0.00000000000E+00  0.00000000000E+00  0.32565054957E+03  0.32565054957E+03  0.00000000000E+00 0.  1.
          4   -1    0    0  501    0  0.00000000000E+00 -0.00000000000E+00 -0.43382152919E+02  0.43382152919E+02  0.00000000000E+00 0. -1.
         25    2    1    2    0    0  0.20655815090E+02  0.31104278901E+02  0.19009839674E+03  0.23060554945E+03  0.12508948850E+03 0.  0.
          5    1    3    3  502    0 -0.14130764088E+02 -0.36426897482E+02  0.12313898569E+03  0.12925664219E+03  0.41800000000E+01 0. -1.
         -5    1    3    3    0  502  0.34786579179E+02  0.67531176383E+02  0.66959411049E+02  0.10134890726E+03  0.41800000000E+01 0. -1.
        -11    1    1    2    0    0  0.10089594669E+02 -0.19413418724E+02  0.10182288325E+03  0.10414691690E+03  0.00000000000E+00 0.  1.
         11    1    1    2    0    0 -0.30745409760E+02 -0.11690860177E+02 -0.96528833345E+01  0.34280236137E+02  0.00000000000E+00 0. -1.
</event>
<event>
 7    1  0.2842702E-009  0.2098847E+03  0.7561462E-02  0.1141657E+00
          2   -1    0    0  501    0  0.00000000000E+00  0.00000000000E+00  0.13506279248E+04  0.13506279248E+04  0.00000000000E+00 0. -1.
         -2   -1    0    0    0  501 -0.00000000000E+00 -0.00000000000E+00 -0.43845432950E+02  0.43845432950E+02  0.00000000000E+00 0.  1.
         25    2    1    2    0    0 -0.64707426549E+02  0.18919822500E+03  0.91821620246E+03  0.94802503439E+03  0.12508977568E+03 0.  0.
          5    1    3    3  502    0  0.14702462756E+02  0.47997091901E+02  0.81882602654E+02  0.96135925956E+02  0.41800000000E+01 0.  1.
         -5    1    3    3    0  502 -0.79409889305E+02  0.14120113310E+03  0.83633359980E+03  0.85188910843E+03  0.41800000000E+01 0.  1.
        -11    1    1    2    0    0  0.74753871518E+02 -0.16504699708E+03  0.27088257807E+03  0.32589265664E+03  0.00000000000E+00 0.  1.
         11    1    1    2    0    0 -0.10046444969E+02 -0.24151227920E+02  0.11768371131E+03  0.12055566670E+03  0.00000000000E+00 0. -1.
</event>
<event>
 7    1  0.2842702E-009  0.1414918E+03  0.7561462E-02  0.1211336E+00
          3   -1    0    0  501    0  0.00000000000E+00  0.00000000000E+00  0.20737454556E+03  0.20737454556E+03  0.00000000000E+00 0. -1.
         -3   -1    0    0    0  501 -0.00000000000E+00 -0.00000000000E+00 -0.21632168237E+03  0.21632168237E+03  0.00000000000E+00 0.  1.
         25    2    1    2    0    0 -0.65129717716E+02  0.89633088412E+02 -0.14880051729E+03  0.22375052918E+03  0.12508690858E+03 0.  0.
          5    1    3    3  502    0 -0.73641810402E+02  0.27410234562E+02 -0.13944870623E+03  0.16011824152E+03  0.41800000000E+01 0.  1.
         -5    1    3    3    0  502  0.85120926864E+01  0.62222853850E+02 -0.93518110544E+01  0.63632287662E+02  0.41800000000E+01 0.  1.
        -11    1    1    2    0    0  0.34549501251E+02  0.10935243092E+02  0.49421374770E+02  0.61283928255E+02  0.00000000000E+00 0. -1.
         11    1    1    2    0    0  0.30580216465E+02 -0.10056833150E+03  0.90432005701E+02  0.13866177049E+03  0.00000000000E+00 0.  1.
</event>
<event>
 7    1  0.2842702E-009  0.1224988E+03  0.7561462E-02  0.1239031E+00
          2   -1    0    0  501    0  0.00000000000E+00  0.00000000000E+00  0.10318502861E+04  0.10318502861E+04  0.00000000000E+00 0.  1.
         -2   -1    0    0    0  501 -0.00000000000E+00 -0.00000000000E+00 -0.21028453228E+02  0.21028453228E+02  0.00000000000E+00 0. -1.
         25    2    1    2    0    0  0.99145909637E+02 -0.26370818796E+00  0.56739133192E+03  0.58941522588E+03  0.12508958401E+03 0.  0.
          5    1    3    3  502    0  0.55937414904E+02 -0.33611862188E+02  0.10433250408E+03  0.12313202456E+03  0.41800000000E+01 0.  1.
         -5    1    3    3    0  502  0.43208494733E+02  0.33348154000E+02  0.46305882784E+03  0.46628320132E+03  0.41800000000E+01 0.  1.
        -11    1    1    2    0    0 -0.37305240635E+02 -0.37099773053E+02  0.27812903718E+03  0.28306154006E+03  0.00000000000E+00 0.  1.
         11    1    1    2    0    0 -0.61840669002E+02  0.37363481241E+02  0.16530146373E+03  0.18040197333E+03  0.00000000000E+00 0. -1.
</event>
<event>
 7    1  0.2842702E-009  0.1073847E+03  0.7561462E-02  0.1265491E+00
          1   -1    0    0  501    0  0.00000000000E+00  0.00000000000E+00  0.15453556452E+03  0.15453556452E+03  0.00000000000E+00 0. -1.
         -1   -1    0    0    0  501 -0.00000000000E+00 -0.00000000000E+00 -0.82105111810E+02  0.82105111810E+02  0.00000000000E+00 0.  1.
         25    2    1    2    0    0 -0.12367356198E+02 -0.23580679538E+02  0.40325481534E+02  0.13409929989E+03  0.12508987898E+03 0.  0.
          5    1    3    3  502    0 -0.87936822639E+01  0.50912411793E+02  0.69964531986E+01  0.52305117147E+02  0.41800000000E+01 0.  1.
         -5    1    3    3    0  502 -0.35736739343E+01 -0.74493091331E+02  0.33329028336E+02  0.81794182747E+02  0.41800000000E+01 0.  1.
        -11    1    1    2    0    0  0.46776060177E+02  0.45074877886E+00 -0.48148590469E+01  0.47025374510E+02  0.00000000000E+00 0.  1.
         11    1    1    2    0    0 -0.34408703979E+02  0.23129930759E+02  0.36919830225E+02  0.55516001930E+02  0.00000000000E+00 0. -1.
</event>
<event>
 7    1  0.2842702E-009  0.9338652E+02  0.7561462E-02  0.1294852E+00
         -2   -1    0    0    0  501 -0.00000000000E+00  0.00000000000E+00  0.30686967571E+02  0.30686967571E+02  0.00000000000E+00 0. -1.
          2   -1    0    0  501    0  0.00000000000E+00 -0.00000000000E+00 -0.60114343350E+03  0.60114343350E+03  0.00000000000E+00 0.  1.
         25    2    1    2    0    0 -0.28679021143E+02  0.41784098147E+01 -0.49641792719E+03  0.51275442144E+03  0.12508554239E+03 0.  0.
          5    1    3    3  502    0  0.46859167131E+02  0.19076269783E+02 -0.22020395072E+03  0.22597995027E+03  0.41800000000E+01 0.  1.
         -5    1    3    3    0  502 -0.75538188274E+02 -0.14897859969E+02 -0.27621397647E+03  0.28677447117E+03  0.41800000000E+01 0.  1.
        -11    1    1    2    0    0  0.37327141493E+02 -0.18890541156E+02 -0.87731756402E+02  0.97195828710E+02  0.00000000000E+00 0.  1.
         11    1    1    2    0    0 -0.86481203498E+01  0.14712131341E+02  0.13693217662E+02  0.21880150916E+02  0.00000000000E+00 0. -1.
</event>
<event>
 7    1  0.2842702E-009  0.1433291E+03  0.7561462E-02  0.1208918E+00
         -2   -1    0    0    0  501 -0.00000000000E+00  0.00000000000E+00  0.90873600768E+02  0.90873600768E+02  0.00000000000E+00 0.  1.
          2   -1    0    0  501    0  0.00000000000E+00 -0.00000000000E+00 -0.46924558457E+03  0.46924558457E+03  0.00000000000E+00 0. -1.
         25    2    1    2    0    0  0.40757879120E+02 -0.11722828526E+03 -0.36546415346E+03  0.40572830218E+03  0.12509089557E+03 0.  0.
          5    1    3    3  502    0  0.32271793181E+02  0.12752684127E+01 -0.15390123414E+02  0.36019761844E+02  0.41800000000E+01 0. -1.
         -5    1    3    3    0  502  0.84860859388E+01 -0.11850355367E+03 -0.35007403004E+03  0.36970854034E+03  0.41800000000E+01 0. -1.
        -11    1    1    2    0    0  0.11250075603E+02  0.43858231661E+02 -0.40051912781E+02  0.60450512015E+02  0.00000000000E+00 0.  1.
         11    1    1    2    0    0 -0.52007954722E+02  0.73370053599E+02  0.27144082434E+02  0.93940371144E+02  0.00000000000E+00 0. -1.
</event>
<event>
 7    1  0.2842702E-009  0.1082674E+03  0.7561462E-02  0.1263812E+00
          2   -1    0    0  501    0  0.00000000000E+00  0.00000000000E+00  0.62682350048E+03  0.62682350048E+03  0.00000000000E+00 0. -1.
         -2   -1    0    0    0  501 -0.00000000000E+00 -0.00000000000E+00 -0.22796989372E+02  0.22796989372E+02  0.00000000000E+00 0.  1.
         25    2    1    2    0    0  0.46180964411E+02  0.30406728560E+02  0.35508065325E+03  0.38050948540E+03  0.12509175653E+03 0.  0.
          5    1    3    3  502    0  0.59255743569E+02  0.64761930945E+02  0.16582718043E+03  0.18767385810E+03  0.41800000000E+01 0. -1.
         -5    1    3    3    0  502 -0.13074779158E+02 -0.34355202384E+02  0.18925347282E+03  0.19283562729E+03  0.41800000000E+01 0. -1.
        -11    1    1    2    0    0  0.74924459294E+00  0.21597230012E+02  0.19145105766E+02  0.28871037156E+02  0.00000000000E+00 0.  1.
         11    1    1    2    0    0 -0.46930209004E+02 -0.52003958572E+02  0.22980075210E+03  0.24023996730E+03  0.00000000000E+00 0. -1.
</event>
<event>
 7    1  0.2842702E-009  0.9570495E+02  0.7561462E-02  0.1289596E+00
          2   -1    0    0  501    0  0.00000000000E+00  0.00000000000E+00  0.11759541057E+03  0.11759541057E+03  0.00000000000E+00 0. -1.
         -2   -1    0    0    0  501 -0.00000000000E+00 -0.00000000000E+00 -0.10954468775E+03  0.10954468775E+03  0.00000000000E+00 0.  1.
         25    2    1    2    0    0 -0.20627870768E+02 -0.15194400005E+01 -0.22561631916E+02  0.12878132182E+03  0.12509110226E+03 0.  0.
          5    1    3    3  502    0 -0.62930897084E+02  0.10097356566E+02  0.20585095206E+02  0.67107920263E+02  0.41800000000E+01 0. -1.
         -5    1    3    3    0  502  0.42303026317E+02 -0.11616796566E+02 -0.43146727122E+02  0.61673401555E+02  0.41800000000E+01 0. -1.
        -11    1    1    2    0    0  0.37568358263E+02  0.31504554766E+02  0.39304520991E+02  0.62839190669E+02  0.00000000000E+00 0. -1.
         11    1    1    2    0    0 -0.16940487496E+02 -0.29985114765E+02 -0.86921662522E+01  0.35519585840E+02  0.00000000000E+00 0.  1.
</event>
<event>
 7    1  0.2842702E-009  0.7392087E+02  0.7561462E-02  0.1347246E+00
          3   -1    0    0  501    0  0.00000000000E+00  0.00000000000E+00  0.20861283764E+02  0.20861283764E+02  0.00000000000E+00 0. -1.
         -3   -1    0    0    0  501 -0.00000000000E+00 -0.00000000000E+00 -0.58335293582E+03  0.58335293582E+03  0.00000000000E+00 0.  1.
         25    2    1    2    0    0  0.21800259366E+02 -0.64587421714E+01 -0.31854036522E+03  0.34297873806E+03  0.12509789697E+03 0.  0.
          5    1    3    3  502    0  0.14642818166E+02  0.21647748749E+02 -0.36381022608E+01  0.26716012760E+02  0.41800000000E+01 0.  1.
         -5    1    3    3    0  502  0.71574412002E+01 -0.28106490921E+02 -0.31490226296E+03  0.31626272530E+03  0.41800000000E+01 0.  1.
        -11    1    1    2    0    0 -0.56341848502E+02 -0.24649812860E+01 -0.12687644583E+03  0.13884564283E+03  0.00000000000E+00 0. -1.
         11    1    1    2    0    0  0.34541589136E+02  0.89237234574E+01 -0.11707484100E+03  0.12238983870E+03  0.00000000000E+00 0.  1.
</event>
<event>
 7    1  0.2842702E-009  0.1293935E+03  0.7561462E-02  0.1228358E+00
          1   -1    0    0  501    0  0.00000000000E+00  0.00000000000E+00  0.17765279004E+03  0.17765279004E+03  0.00000000000E+00 0. -1.
         -1   -1    0    0    0  501 -0.00000000000E+00 -0.00000000000E+00 -0.16173412961E+03  0.16173412961E+03  0.00000000000E+00 0.  1.
         25    2    1    2    0    0 -0.80339558982E+02 -0.77730094608E+02  0.77608435643E+02  0.18484260551E+03  0.12508919691E+03 0.  0.
          5    1    3    3  502    0 -0.21069661267E+01 -0.17946104574E+02  0.84060770639E+02  0.86082446155E+02  0.41800000000E+01 0. -1.
         -5    1    3    3    0  502 -0.78232592855E+02 -0.59783990034E+02 -0.64523349967E+01  0.98760159357E+02  0.41800000000E+01 0. -1.
        -11    1    1    2    0    0  0.61712343712E+02 -0.49507877521E-01 -0.26128202228E+02  0.67015660625E+02  0.00000000000E+00 0.  1.
         11    1    1    2    0    0  0.18627215271E+02  0.77779602486E+02 -0.35561572986E+02  0.87528653507E+02  0.00000000000E+00 0. -1.
</event>
<event>
 7    1  0.2842702E-009  0.1313275E+03  0.7561462E-02  0.1225499E+00
          1   -1    0    0  501    0  0.00000000000E+00  0.00000000000E+00  0.78132763797E+03  0.78132763797E+03  0.00000000000E+00 0. -1.
         -1   -1    0    0    0  501 -0.00000000000E+00 -0.00000000000E+00 -0.25677770727E+02  0.25677770727E+02  0.00000000000E+00 0.  1.
         25    2    1    2    0    0  0.61934571116E+02  0.49061860198E+02  0.54055494153E+03  0.56043910997E+03  0.12509753773E+03 0.  0.
          5    1    3    3  502    0  0.83898039518E+02  0.73977474430E+02  0.45505205833E+03  0.46861646999E+03  0.41800000000E+01 0.  1.
         -5    1    3    3    0  502 -0.21963468402E+02 -0.24915614232E+02  0.85502883201E+02  0.91822639977E+02  0.41800000000E+01 0.  1.
        -11    1    1    2    0    0  0.76624830760E+01  0.18638791304E+02  0.62796265368E+02  0.65950656800E+02  0.00000000000E+00 0.  1.
         11    1    1    2    0    0 -0.69597054192E+02 -0.67700651503E+02  0.15229866034E+03  0.18061564192E+03  0.00000000000E+00 0. -1.
</event>
<event>
 7    1  0.2842702E-009  0.2394337E+03  0.7561462E-02  0.1120171E+00
          3   -1    0    0  501    0  0.00000000000E+00  0.00000000000E+00  0.19736502702E+03  0.19736502702E+03  0.00000000000E+00 0. -1.
         -3   -1    0    0    0  501 -0.00000000000E+00 -0.00000000000E+00 -0.43025820395E+03  0.43025820395E+03  0.00000000000E+00 0.  1.
         25    2    1    2    0    0  0.74109769030E+02 -0.20943695934E+03 -0.28432592765E+03  0.38189525389E+03  0.12508658605E+03 0.  0.
          5    1    3    3  502    0 -0.44903739139E+01  0.98378851479E+01  0.30096013372E+01  0.11978211147E+02  0.41800000000E+01 0.  1.
         -5    1    3    3    0  502  0.78600142944E+02 -0.21927484448E+03 -0.28733552899E+03  0.36991704275E+03  0.41800000000E+01 0.  1.
        -11    1    1    2    0    0 -0.31244604867E+02  0.17905121102E+03  0.16224107318E+02  0.18247954176E+03  0.00000000000E+00 0. -1.
         11    1    1    2    0    0 -0.42865164163E+02  0.30385748314E+02  0.35208643405E+02  0.63248435315E+02  0.00000000000E+00 0.  1.
</event>
<event>
 7    1  0.2842702E-009  0.1078785E+03  0.7561462E-02  0.1264550E+00
         -1   -1    0    0    0  501 -0.00000000000E+00  0.00000000000E+00  0.13830366036E+03  0.13830366036E+03  0.00000000000E+00 0.  1.
          1   -1    0    0  501    0  0.00000000000E+00 -0.00000000000E+00 -0.97460666638E+02  0.97460666638E+02  0.00000000000E+00 0. -1.
         25    2    1    2    0    0  0.35054615232E+02 -0.15459229399E+02  0.63809252282E+01  0.13098506912E+03  0.12509419772E+03 0.  0.
          5    1    3    3  502    0  0.74797451901E+02 -0.17263411700E+02 -0.24239286230E+02  0.80608309692E+02  0.41800000000E+01 0.  1.
         -5    1    3    3    0  502 -0.39742836670E+02  0.18041823013E+01  0.30620211459E+02  0.50376759424E+02  0.41800000000E+01 0.  1.
        -11    1    1    2    0    0  0.26090985086E+02  0.25994682534E+02  0.14788572965E+02  0.39688347322E+02  0.00000000000E+00 0.  1.
         11    1    1    2    0    0 -0.61145600318E+02 -0.10535453136E+02  0.19673495528E+02  0.65090910559E+02  0.00000000000E+00 0. -1.
</event>
<event>
 7    1  0.2842702E-009  0.2002008E+03  0.7561462E-02  0.1149570E+00
         -1   -1    0    0    0  501 -0.00000000000E+00  0.00000000000E+00  0.33258039911E+02  0.33258039911E+02  0.00000000000E+00 0.  1.
          1   -1    0    0  501    0  0.00000000000E+00 -0.00000000000E+00 -0.16998075972E+04  0.16998075972E+04  0.00000000000E+00 0. -1.
         25    2    1    2    0    0  0.60458964514E+02 -0.17271677485E+03 -0.12436807381E+04  0.12632797018E+04  0.12508979148E+03 0.  0.
          5    1    3    3  502    0  0.71327736525E+02 -0.72750963266E+02 -0.88142365936E+03  0.88730236579E+03  0.41800000000E+01 0. -1.
         -5    1    3    3    0  502 -0.10868772011E+02 -0.99965811580E+02 -0.36225707872E+03  0.37597733598E+03  0.41800000000E+01 0. -1.
        -11    1    1    2    0    0 -0.56414106031E+02  0.51132297606E+02 -0.22477554612E+03  0.23732068884E+03  0.00000000000E+00 0.  1.
         11    1    1    2    0    0 -0.40448584829E+01  0.12158447724E+03 -0.19809327307E+03  0.23246524648E+03  0.00000000000E+00 0. -1.
</event>
<event>
 7    1  0.2842702E-009  0.9906158E+02  0.7561462E-02  0.1282282E+00
         -1   -1    0    0    0  501 -0.00000000000E+00  0.00000000000E+00  0.68746553212E+02  0.68746553212E+02  0.00000000000E+00 0.  1.
          1   -1    0    0  501    0  0.00000000000E+00 -0.00000000000E+00 -0.25818256182E+03  0.25818256182E+03  0.00000000000E+00 0. -1.
         25    2    1    2    0    0  0.58632799713E+02  0.31958619013E+01 -0.45414712958E+02  0.14545904421E+03  0.12509124131E+03 0.  0.
          5    1    3    3  502    0 -0.30002482079E+02 -0.28807902120E+02 -0.26448102082E+01  0.41886890270E+02  0.41800000000E+01 0. -1.
         -5    1    3    3    0  502  0.88635281792E+02  0.32003764022E+02 -0.42769902750E+02  0.10357215394E+03  0.41800000000E+01 0. -1.
        -11    1    1    2    0    0 -0.34819164954E+02  0.79234491875E+01 -0.15027092601E+03  0.15445551625E+03  0.00000000000E+00 0. -1.
         11    1    1    2    0    0 -0.23813634759E+02 -0.11119311089E+02  0.62496303580E+01  0.27014554580E+02  0.00000000000E+00 0.  1.
</event>
<event>
 7    1  0.2842702E-009  0.9717027E+02  0.7561462E-02  0.1286362E+00
         -1   -1    0    0    0  501 -0.00000000000E+00  0.00000000000E+00  0.88262851442E+02  0.88262851442E+02  0.00000000000E+00 0.  1.
          1   -1    0    0  501    0  0.00000000000E+00 -0.00000000000E+00 -0.14989863226E+03  0.14989863226E+03  0.00000000000E+00 0. -1.
         25    2    1    2    0    0 -0.22311829723E+02 -0.11792029581E+02 -0.62323294710E+02  0.14201604588E+03  0.12508994571E+03 0.  0.
          5    1    3    3  502    0 -0.19005576729E+02 -0.66237802227E+02 -0.17316760533E+02  0.71175845524E+02  0.41800000000E+01 0. -1.
         -5    1    3    3    0  502 -0.33062529941E+01  0.54445772646E+02 -0.45006534177E+02  0.70840200356E+02  0.41800000000E+01 0. -1.
        -11    1    1    2    0    0  0.39742316947E+02 -0.11622805843E+02  0.32744503788E+02  0.52789619248E+02  0.00000000000E+00 0.  1.
         11    1    1    2    0    0 -0.17430487224E+02  0.23414835424E+02 -0.32056989893E+02  0.43355818569E+02  0.00000000000E+00 0. -1.
</event>
<event>
 7    1  0.2842702E-009  0.1397494E+03  0.7561462E-02  0.1213667E+00
          2   -1    0    0  501    0  0.00000000000E+00  0.00000000000E+00  0.25294155319E+02  0.25294155319E+02  0.00000000000E+00 0. -1.
         -2   -1    0    0    0  501 -0.00000000000E+00 -0.00000000000E+00 -0.11851264392E+04  0.11851264392E+04  0.00000000000E+00 0.  1.
         25    2    1    2    0    0 -0.10250283750E+03  0.36774089158E+02 -0.89637288005E+03  0.91158698174E+03  0.12508924756E+03 0.  0.
          5    1    3    3  502    0 -0.33071586637E+02  0.78104665087E+02 -0.45190397210E+03  0.45981381118E+03  0.41800000000E+01 0. -1.
         -5    1    3    3    0  502 -0.69431250859E+02 -0.41330575929E+02 -0.44446890795E+03  0.45177317055E+03  0.41800000000E+01 0. -1.
        -11    1    1    2    0    0  0.38360095287E+02  0.25263494558E+01 -0.18942947168E+03  0.19329098296E+03  0.00000000000E+00 0.  1.
         11    1    1    2    0    0  0.64142742208E+02 -0.39300438614E+02 -0.74029932112E+02  0.10554262978E+03  0.00000000000E+00 0. -1.
</event>
<event>
 7    1  0.2842702E-009  0.3624311E+03  0.7561462E-02  0.1057625E+00
         -1   -1    0    0    0  501 -0.00000000000E+00  0.00000000000E+00  0.12527132982E+03  0.12527132982E+03  0.00000000000E+00 0.  1.
          1   -1    0    0  501    0  0.00000000000E+00 -0.00000000000E+00 -0.11324444249E+04  0.11324444249E+04  0.00000000000E+00 0. -1.
         25    2    1    2    0    0  0.33961684087E+03  0.73295509784E+02 -0.34838370176E+03  0.50767193061E+03  0.12509098738E+03 0.  0.
          5    1    3    3  502    0  0.54018351005E+02  0.61309585346E+02 -0.58855083248E+02  0.10078809813E+03  0.41800000000E+01 0. -1.
         -5    1    3    3    0  502  0.28559848986E+03  0.11985924438E+02 -0.28952861851E+03  0.40688383248E+03  0.41800000000E+01 0. -1.
        -11    1    1    2    0    0 -0.79313619217E+02  0.17969906215E+02 -0.12365051340E+03  0.14799667965E+03  0.00000000000E+00 0.  1.
         11    1    1    2    0    0 -0.26030322165E+03 -0.91265415999E+02 -0.53513887990E+03  0.60204714445E+03  0.00000000000E+00 0. -1.
</event>
<event>
 7    1  0.2842702E-009  0.9151614E+02  0.7561462E-02  0.1299221E+00
          1   -1    0    0  501    0  0.00000000000E+00  0.00000000000E+00  0.81461840172E+02  0.81461840172E+02  0.00000000000E+00 0. -1.
         -1   -1    0    0    0  501 -0.00000000000E+00 -0.00000000000E+00 -0.18244331741E+03  0.18244331741E+03  0.00000000000E+00 0.  1.
         25    2    1    2    0    0 -0.53745777671E+02 -0.14711375776E+02 -0.62163544382E+02  0.15038804475E+03  0.12508886665E+03 0.  0.
          5    1    3    3  502    0 -0.70117274396E+02  0.30458257541E+02 -0.66461097796E+01  0.76849078045E+02  0.41800000000E+01 0. -1.
         -5    1    3    3    0  502  0.16371496725E+02 -0.45169633317E+02 -0.55517434603E+02  0.73538966704E+02  0.41800000000E+01 0. -1.
        -11    1    1    2    0    0  0.20281431497E+02 -0.28027714622E+01 -0.64612678621E+02  0.67778980739E+02  0.00000000000E+00 0.  1.
         11    1    1    2    0    0  0.33464346174E+02  0.17514147238E+02  0.25794745765E+02  0.45738132093E+02  0.00000000000E+00 0. -1.
</event>
<event>
 7    1  0.2842702E-009  0.1692586E+03  0.7561462E-02  0.1178623E+00
         -2   -1    0    0    0  501 -0.00000000000E+00  0.00000000000E+00  0.96503977911E+02  0.96503977911E+02  0.00000000000E+00 0. -1.
          2   -1    0    0  501    0  0.00000000000E+00 -0.00000000000E+00 -0.39090277973E+03  0.39090277973E+03  0.00000000000E+00 0.  1.
         25    2    1    2    0    0  0.13581862311E+03 -0.83007340742E+02 -0.18592870941E+03  0.27487052395E+03  0.12508957972E+03 0.  0.
          5    1    3    3  502    0  0.87598704695E+02 -0.69935092797E+02 -0.37608333801E+02  0.11830599917E+03  0.41800000000E+01 0. -1.
         -5    1    3    3    0  502  0.48219918416E+02 -0.13072247945E+02 -0.14832037561E+03  0.15656452478E+03  0.41800000000E+01 0. -1.
        -11    1    1    2    0    0 -0.14118545911E+03  0.61416778599E+02 -0.72356798494E+02  0.17012013651E+03  0.00000000000E+00 0. -1.
         11    1    1    2    0    0  0.53668360032E+01  0.21590562143E+02 -0.36113293914E+02  0.42416097176E+02  0.00000000000E+00 0.  1.
</event>
<event>
 7    1  0.2842702E-009  0.1014094E+03  0.7561462E-02  0.1277360E+00
          2   -1    0    0  501    0  0.00000000000E+00  0.00000000000E+00  0.49331541092E+03  0.49331541092E+03  0.00000000000E+00 0. -1.
         -2   -1    0    0    0  501 -0.00000000000E+00 -0.00000000000E+00 -0.31701177427E+02  0.31701177427E+02  0.00000000000E+00 0.  1.
         25    2    1    2    0    0 -0.15985824705E+02 -0.55077201480E+00  0.37890849757E+03  0.39934918438E+03  0.12510903884E+03 0.  0.
          5    1    3    3  502    0 -0.34776151588E+02 -0.50658199352E+02  0.11941033280E+03  0.13435748531E+03  0.41800000000E+01 0.  1.
         -5    1    3    3    0  502  0.18790326883E+02  0.50107427337E+02  0.25949816477E+03  0.26499169907E+03  0.41800000000E+01 0.  1.
        -11    1    1    2    0    0  0.48031447034E+02 -0.17079241214E+02  0.23635052079E+02  0.56190177713E+02  0.00000000000E+00 0.  1.
         11    1    1    2    0    0 -0.32045622329E+02  0.17630013229E+02  0.59070683847E+02  0.69477226248E+02  0.00000000000E+00 0. -1.
</event>
<event>
 7    1  0.2842702E-009  0.1730578E+03  0.7561462E-02  0.1174696E+00
          2   -1    0    0  501    0  0.00000000000E+00  0.00000000000E+00  0.14927563437E+03  0.14927563437E+03  0.00000000000E+00 0. -1.
         -2   -1    0    0    0  501 -0.00000000000E+00 -0.00000000000E+00 -0.25678360879E+03  0.25678360879E+03  0.00000000000E+00 0.  1.
         25    2    1    2    0    0  0.29868179115E+02  0.15942465673E+03 -0.64283838745E+02  0.21468068810E+03  0.12508819537E+03 0.  0.
          5    1    3    3  502    0  0.29977687749E+02  0.16471775900E+02  0.28064669174E+02  0.44441863371E+02  0.41800000000E+01 0. -1.
         -5    1    3    3    0  502 -0.10950863318E+00  0.14295288083E+03 -0.92348507919E+02  0.17023882472E+03  0.41800000000E+01 0. -1.
        -11    1    1    2    0    0  0.12101959606E+02 -0.50026014526E+02  0.23454966208E+02  0.56561426746E+02  0.00000000000E+00 0. -1.
         11    1    1    2    0    0 -0.41970138722E+02 -0.10939864220E+03 -0.66679101879E+02  0.13481712831E+03  0.00000000000E+00 0.  1.
</event>
<event>
 7    1  0.2842702E-009  0.2245919E+03  0.7561462E-02  0.1130505E+00
         -1   -1    0    0    0  501 -0.00000000000E+00  0.00000000000E+00  0.66440005225E+02  0.66440005225E+02  0.00000000000E+00 0.  1.
          1   -1    0    0  501    0  0.00000000000E+00 -0.00000000000E+00 -0.88516746429E+03  0.88516746429E+03  0.00000000000E+00 0. -1.
         25    2    1    2    0    0 -0.19765056816E+03  0.49496343395E+02 -0.28094026508E+03  0.36890742784E+03  0.12509845191E+03 0.  0.
          5    1    3    3  502    0  0.59036075794E+01  0.30841238573E+02 -0.20206985778E+02  0.37574316406E+02  0.41800000000E+01 0.  1.
         -5    1    3    3    0  502 -0.20355417574E+03  0.18655104822E+02 -0.26073327930E+03  0.33133311143E+03  0.41800000000E+01 0.  1.
        -11    1    1    2    0    0  0.99532183565E+02 -0.56917201469E+02 -0.19643680456E+03  0.22745030573E+03  0.00000000000E+00 0.  1.
         11    1    1    2    0    0  0.98118384598E+02  0.74208580741E+01 -0.34135038942E+03  0.35524973595E+03  0.00000000000E+00 0. -1.
</event>
<event>
 7    1  0.2842702E-009  0.1384667E+03  0.7561462E-02  0.1215407E+00
          1   -1    0    0  501    0  0.00000000000E+00  0.00000000000E+00  0.68515037357E+02  0.68515037357E+02  0.00000000000E+00 0. -1.
         -1   -1    0    0    0  501 -0.00000000000E+00 -0.00000000000E+00 -0.52462193607E+03  0.52462193607E+03  0.00000000000E+00 0.  1.
         25    2    1    2    0    0  0.10141387024E+03  0.28318980846E+02 -0.41816332252E+03  0.44899323155E+03  0.12509044697E+03 0.  0.
          5    1    3    3  502    0  0.49202609510E+02 -0.46474618971E+02 -0.23094823607E+03  0.24069762595E+03  0.41800000000E+01 0. -1.
         -5    1    3    3    0  502  0.52211260730E+02  0.74793599816E+02 -0.18721508645E+03  0.20829560560E+03  0.41800000000E+01 0. -1.
        -11    1    1    2    0    0 -0.84242585475E+02  0.52508904370E+00 -0.60485345351E+02  0.10370904458E+03  0.00000000000E+00 0.  1.
         11    1    1    2    0    0 -0.17171284765E+02 -0.28844069889E+02  0.22541769160E+02  0.40434697292E+02  0.00000000000E+00 0. -1.
</event>
<event>
 7    1  0.2842702E-009  0.1088408E+03  0.7561462E-02  0.1262732E+00
         -1   -1    0    0    0  501 -0.00000000000E+00  0.00000000000E+00  0.61898585089E+03  0.61898585089E+03  0.00000000000E+00 0.  1.
          1   -1    0    0  501    0  0.00000000000E+00 -0.00000000000E+00 -0.26086160249E+02  0.26086160249E+02  0.00000000000E+00 0. -1.
         25    2    1    2    0    0  0.48468213897E+02 -0.26109792481E+02  0.45125554395E+03  0.47149716565E+03  0.12508845768E+03 0.  0.
          5    1    3    3  502    0 -0.35826330434E+02 -0.28160615507E+02  0.96004954497E+02  0.10635304371E+03  0.41800000000E+01 0.  1.
         -5    1    3    3    0  502  0.84294544331E+02  0.20508230262E+01  0.35525058945E+03  0.36514412194E+03  0.41800000000E+01 0.  1.
        -11    1    1    2    0    0  0.16169643936E+02 -0.32692774486E+01  0.72913404984E+02  0.74756338771E+02  0.00000000000E+00 0.  1.
         11    1    1    2    0    0 -0.64637857834E+02  0.29379069929E+02  0.68730741706E+02  0.98818506722E+02  0.00000000000E+00 0. -1.
</event>
<event>
 7    1  0.2842702E-009  0.8202100E+02  0.7561462E-02  0.1323412E+00
         -1   -1    0    0    0  501 -0.00000000000E+00  0.00000000000E+00  0.26163509612E+03  0.26163509612E+03  0.00000000000E+00 0.  1.
          1   -1    0    0  501    0  0.00000000000E+00 -0.00000000000E+00 -0.72348037307E+02  0.72348037307E+02  0.00000000000E+00 0. -1.
         25    2    1    2    0    0 -0.15831001451E+02  0.32090468044E+02  0.19561852857E+03  0.23493481975E+03  0.12508933634E+03 0.  0.
          5    1    3    3  502    0  0.10902064787E+02 -0.11808177496E+02  0.18040806148E+03  0.18117071816E+03  0.41800000000E+01 0.  1.
         -5    1    3    3    0  502 -0.26733066238E+02  0.43898645540E+02  0.15210467092E+02  0.53764101591E+02  0.41800000000E+01 0.  1.
        -11    1    1    2    0    0  0.12841675024E+02  0.30559016828E+02  0.92638897119E+01  0.34417753841E+02  0.00000000000E+00 0.  1.
         11    1    1    2    0    0  0.29893264278E+01 -0.62649484872E+02 -0.15595359471E+02  0.64630559832E+02  0.00000000000E+00 0. -1.
</event>
<event>
 7    1  0.2842702E-009  0.1655375E+03  0.7561462E-02  0.1182583E+00
         -1   -1    0    0    0  501 -0.00000000000E+00  0.00000000000E+00  0.33912720107E+02  0.33912720107E+02  0.00000000000E+00 0.  1.
          1   -1    0    0  501    0  0.00000000000E+00 -0.00000000000E+00 -0.11229151398E+04  0.11229151398E+04  0.00000000000E+00 0. -1.
         25    2    1    2    0    0  0.12571945223E+03  0.19668517494E+02 -0.27455985910E+03  0.32744850641E+03  0.12508867603E+03 0.  0.
          5    1    3    3  502    0  0.11538942353E+03  0.64005126642E+02 -0.19071669512E+03  0.23195194652E+03  0.41800000000E+01 0.  1.
         -5    1    3    3    0  502  0.10330028701E+02 -0.44336609147E+02 -0.83843163983E+02  0.95496559887E+02  0.41800000000E+01 0.  1.
        -11    1    1    2    0    0 -0.75795498892E+01 -0.33543437286E+02 -0.12031316336E+03  0.12513140709E+03  0.00000000000E+00 0.  1.
         11    1    1    2    0    0 -0.11813990234E+03  0.13874919792E+02 -0.69412939721E+03  0.70424794639E+03  0.00000000000E+00 0. -1.
</event>
<event>
 7    1  0.2842702E-009  0.1366025E+03  0.7561462E-02  0.1217975E+00
         -1   -1    0    0    0  501 -0.00000000000E+00  0.00000000000E+00  0.11419611022E+03  0.11419611022E+03  0.00000000000E+00 0.  1.
          1   -1    0    0  501    0  0.00000000000E+00 -0.00000000000E+00 -0.19704323650E+03  0.19704323650E+03  0.00000000000E+00 0. -1.
         25    2    1    2    0    0  0.85500713536E+02  0.58278548562E+02 -0.44933043645E+02  0.16844350754E+03  0.12508987003E+03 0.  0.
          5    1    3    3  502    0  0.11202103208E+03  0.19211435424E+02 -0.22234644020E+02  0.11588633515E+03  0.41800000000E+01 0.  1.
         -5    1    3    3    0  502 -0.26520318543E+02  0.39067113138E+02 -0.22698399625E+02  0.52557172395E+02  0.41800000000E+01 0.  1.
        -11    1    1    2    0    0 -0.34307536820E+02 -0.49348844832E+02  0.21527444838E+02  0.63841573055E+02  0.00000000000E+00 0.  1.
         11    1    1    2    0    0 -0.51193176716E+02 -0.89297037303E+01 -0.59441527469E+02  0.78954266122E+02  0.00000000000E+00 0. -1.
</event>
<event>
 7    1  0.2842702E-009  0.3059863E+03  0.7561462E-02  0.1082286E+00
          2   -1    0    0  501    0  0.00000000000E+00  0.00000000000E+00  0.37134183688E+03  0.37134183688E+03  0.00000000000E+00 0.  1.
         -2   -1    0    0    0  501 -0.00000000000E+00 -0.00000000000E+00 -0.26840029422E+03  0.26840029422E+03  0.00000000000E+00 0. -1.
         25    2    1    2    0    0  0.29072447756E+03  0.13648327679E+02  0.11021296902E+03  0.33541268919E+03  0.12509106614E+03 0.  0.
          5    1    3    3  502    0  0.71522080025E+02  0.53003901713E+02  0.55224048370E+01  0.89290485961E+02  0.41800000000E+01 0. -1.
         -5    1    3    3    0  502  0.21920239753E+03 -0.39355574034E+02  0.10469056419E+03  0.24612220323E+03  0.41800000000E+01 0. -1.
        -11    1    1    2    0    0 -0.18343760615E+03 -0.43936956438E+02 -0.28733141828E+02  0.19080200452E+03  0.00000000000E+00 0. -1.
         11    1    1    2    0    0 -0.10728687141E+03  0.30288628759E+02  0.21461715470E+02  0.11352743739E+03  0.00000000000E+00 0.  1.
</event>
<event>
 7    1  0.2842702E-009  0.2064651E+03  0.7561462E-02  0.1144396E+00
         -2   -1    0    0    0  501 -0.00000000000E+00  0.00000000000E+00  0.60214992439E+03  0.60214992439E+03  0.00000000000E+00 0.  1.
          2   -1    0    0  501    0  0.00000000000E+00 -0.00000000000E+00 -0.85717549352E+02  0.85717549352E+02  0.00000000000E+00 0. -1.
         25    2    1    2    0    0 -0.14670016421E+03 -0.13182276747E+03  0.23235575811E+03  0.32944813239E+03  0.12509473774E+03 0.  0.
          5    1    3    3  502    0 -0.37128118035E+02  0.34597020751E+01 -0.18837080834E+01  0.37569767678E+02  0.41800000000E+01 0.  1.
         -5    1    3    3    0  502 -0.10957204617E+03 -0.13528246954E+03  0.23423946619E+03  0.29187836472E+03  0.41800000000E+01 0.  1.
        -11    1    1    2    0    0  0.88921535952E+02  0.52939915805E+02  0.21528077456E+03  0.23886290239E+03  0.00000000000E+00 0.  1.
         11    1    1    2    0    0  0.57778628258E+02  0.78882851662E+02  0.68795842373E+02  0.11955643896E+03  0.00000000000E+00 0. -1.
</event>
<event>
 7    1  0.2842702E-009  0.1376177E+03  0.7561462E-02  0.1216571E+00
          1   -1    0    0  501    0  0.00000000000E+00  0.00000000000E+00  0.11191111000E+03  0.11191111000E+03  0.00000000000E+00 0. -1.
         -1   -1    0    0    0  501 -0.00000000000E+00 -0.00000000000E+00 -0.23782753346E+03  0.23782753346E+03  0.00000000000E+00 0.  1.
         25    2    1    2    0    0 -0.10055459497E+03 -0.46003213222E+02 -0.14645690687E+02  0.16759750522E+03  0.12508759052E+03 0.  0.
          5    1    3    3  502    0 -0.85279909569E+02 -0.86276119676E+02  0.15475874725E+01  0.12139233596E+03  0.41800000000E+01 0. -1.
         -5    1    3    3    0  502 -0.15274685405E+02  0.40272906455E+02 -0.16193278159E+02  0.46205169257E+02  0.41800000000E+01 0. -1.
        -11    1    1    2    0    0  0.53190748317E+02  0.24432450164E+02  0.83932996853E+00  0.58539771116E+02  0.00000000000E+00 0. -1.
         11    1    1    2    0    0  0.47363846657E+02  0.21570763057E+02 -0.11211006273E+03  0.12360136713E+03  0.00000000000E+00 0.  1.
</event>
<event>
 7    1  0.2842702E-009  0.8602729E+02  0.7561462E-02  0.1312768E+00
         -2   -1    0    0    0  501 -0.00000000000E+00  0.00000000000E+00  0.80423016025E+02  0.80423016025E+02  0.00000000000E+00 0.  1.
          2   -1    0    0  501    0  0.00000000000E+00 -0.00000000000E+00 -0.15139398802E+03  0.15139398802E+03  0.00000000000E+00 0. -1.
         25    2    1    2    0    0  0.14631300102E+02  0.10543324250E+02 -0.59958496301E+02  0.13988236173E+03  0.12508723842E+03 0.  0.
          5    1    3    3  502    0 -0.19796528984E+02  0.48332980002E+02  0.97910929276E+01  0.53304009384E+02  0.41800000000E+01 0. -1.
         -5    1    3    3    0  502  0.34427829087E+02 -0.37789655752E+02 -0.69749589229E+02  0.86578352347E+02  0.41800000000E+01 0. -1.
        -11    1    1    2    0    0 -0.31091144163E+02  0.17626436071E+02 -0.36084142259E+02  0.50787949520E+02  0.00000000000E+00 0. -1.
         11    1    1    2    0    0  0.16459844061E+02 -0.28169760320E+02  0.25071666569E+02  0.41146692790E+02  0.00000000000E+00 0.  1.
</event>
<event>
 7    1  0.2842702E-009  0.1263925E+03  0.7561462E-02  0.1232909E+00
          3   -1    0    0  501    0  0.00000000000E+00  0.00000000000E+00  0.16943824071E+03  0.16943824071E+03  0.00000000000E+00 0. -1.
         -3   -1    0    0    0  501 -0.00000000000E+00 -0.00000000000E+00 -0.16483208855E+03  0.16483208855E+03  0.00000000000E+00 0.  1.
         25    2    1    2    0    0 -0.36343561726E+02 -0.11870065903E+03  0.26913902513E+02  0.17828643230E+03  0.12510392823E+03 0.  0.
          5    1    3    3  502    0 -0.34038465307E+02 -0.89203443454E+02 -0.41074478111E+02  0.10402142374E+03  0.41800000000E+01 0. -1.
         -5    1    3    3    0  502 -0.23050964187E+01 -0.29497215573E+02  0.67988380624E+02  0.74265008557E+02  0.41800000000E+01 0. -1.
        -11    1    1    2    0    0  0.14794883309E+02  0.13757893436E+02 -0.42415138346E+02  0.46980976627E+02  0.00000000000E+00 0.  1.
         11    1    1    2    0    0  0.21548678417E+02  0.10494276559E+03  0.20107387989E+02  0.10900292034E+03  0.00000000000E+00 0. -1.
</event>
<event>
 7    1  0.2842702E-009  0.1704338E+03  0.7561462E-02  0.1177396E+00
         -2   -1    0    0    0  501 -0.00000000000E+00  0.00000000000E+00  0.13170711713E+03  0.13170711713E+03  0.00000000000E+00 0.  1.
          2   -1    0    0  501    0  0.00000000000E+00 -0.00000000000E+00 -0.26086978919E+03  0.26086978919E+03  0.00000000000E+00 0. -1.
         25    2    1    2    0    0 -0.99133713893E+02 -0.11103577035E+03 -0.93861547520E+02  0.21590253746E+03  0.12508988788E+03 0.  0.
          5    1    3    3  502    0 -0.11136366139E+03 -0.81663667580E+02 -0.25652179358E+02  0.14052162249E+03  0.41800000000E+01 0. -1.
         -5    1    3    3    0  502  0.12229947496E+02 -0.29372102769E+02 -0.68209368162E+02  0.75380914971E+02  0.41800000000E+01 0. -1.
        -11    1    1    2    0    0  0.21230148381E+02 -0.12450078908E+02 -0.16103768404E+02  0.29411817725E+02  0.00000000000E+00 0.  1.
         11    1    1    2    0    0  0.77903565512E+02  0.12348584926E+03 -0.19197356132E+02  0.14726255114E+03  0.00000000000E+00 0. -1.
</event>
<event>
 7    1  0.2842702E-009  0.1543238E+03  0.7561462E-02  0.1195258E+00
          1   -1    0    0  501    0  0.00000000000E+00  0.00000000000E+00  0.17688748486E+04  0.17688748486E+04  0.00000000000E+00 0. -1.
         -1   -1    0    0    0  501 -0.00000000000E+00 -0.00000000000E+00 -0.15093395969E+02  0.15093395969E+02  0.00000000000E+00 0.  1.
         25    2    1    2    0    0 -0.11281156232E+03 -0.19850257698E+02  0.11642611914E+04  0.11765511994E+04  0.12509245295E+03 0.  0.
          5    1    3    3  502    0 -0.13940687087E+03 -0.19490258009E+02  0.90430520611E+03  0.91520463504E+03  0.41800000000E+01 0.  1.
         -5    1    3    3    0  502  0.26595308545E+02 -0.35999968826E+00  0.25995598526E+03  0.26134656438E+03  0.41800000000E+01 0.  1.
        -11    1    1    2    0    0 -0.95875592505E+01  0.15740373429E+02  0.35242338427E+02  0.39770630695E+02  0.00000000000E+00 0.  1.
         11    1    1    2    0    0  0.12239912157E+03  0.41098842690E+01  0.55427792286E+03  0.56764641448E+03  0.00000000000E+00 0. -1.
</event>
<event>
 7    1  0.2842702E-009  0.6898608E+02  0.7561462E-02  0.1363575E+00
         -1   -1    0    0    0  501 -0.00000000000E+00  0.00000000000E+00  0.34455360184E+03  0.34455360184E+03  0.00000000000E+00 0.  1.
          1   -1    0    0  501    0  0.00000000000E+00 -0.00000000000E+00 -0.43980043588E+02  0.43980043588E+02  0.00000000000E+00 0. -1.
         25    2    1    2    0    0  0.19997000043E+02  0.40301321904E+02  0.22681557086E+03  0.26290043224E+03  0.12508899844E+03 0.  0.
          5    1    3    3  502    0  0.18697342493E+02  0.22179412600E+02  0.23889496728E+03  0.24068609173E+03  0.41800000000E+01 0.  1.
         -5    1    3    3    0  502  0.12996575499E+01  0.18121909304E+02 -0.12079396420E+02  0.22214340513E+02  0.41800000000E+01 0.  1.
        -11    1    1    2    0    0 -0.36984139798E+02 -0.55854192260E+02  0.24628034492E+02  0.71372666144E+02  0.00000000000E+00 0.  1.
         11    1    1    2    0    0  0.16987139755E+02  0.15552870356E+02  0.49129952896E+02  0.54260547039E+02  0.00000000000E+00 0. -1.
</event>
<event>
 7    1  0.2842702E-009  0.1636705E+03  0.7561462E-02  0.1184614E+00
          2   -1    0    0  501    0  0.00000000000E+00  0.00000000000E+00  0.10087047516E+04  0.10087047516E+04  0.00000000000E+00 0. -1.
         -2   -1    0    0    0  501 -0.00000000000E+00 -0.00000000000E+00 -0.28309749400E+02  0.28309749400E+02  0.00000000000E+00 0.  1.
         25    2    1    2    0    0  0.43284255782E+02  0.12044593522E+03  0.57852917847E+03  0.60557867016E+03  0.12509502507E+03 0.  0.
          5    1    3    3  502    0 -0.42447974807E+02  0.33231092884E+02  0.13354681687E+03  0.14407762073E+03  0.41800000000E+01 0.  1.
         -5    1    3    3    0  502  0.85732230590E+02  0.87214842337E+02  0.44498236160E+03  0.46150104943E+03  0.41800000000E+01 0.  1.
        -11    1    1    2    0    0  0.15868074171E+02 -0.74035065755E+02  0.14217341682E+03  0.16107845042E+03  0.00000000000E+00 0.  1.
         11    1    1    2    0    0 -0.59152329953E+02 -0.46410869466E+02  0.25969240690E+03  0.27035738042E+03  0.00000000000E+00 0. -1.
</event>
<event>
 7    1  0.2842702E-009  0.1453723E+03  0.7561462E-02  0.1206278E+00
          1   -1    0    0  501    0  0.00000000000E+00  0.00000000000E+00  0.71574713777E+02  0.71574713777E+02  0.00000000000E+00 0. -1.
         -1   -1    0    0    0  501 -0.00000000000E+00 -0.00000000000E+00 -0.32841365048E+03  0.32841365048E+03  0.00000000000E+00 0.  1.
         25    2    1    2    0    0  0.14173946542E+02 -0.97586827789E+02 -0.13170108326E+03  0.20668343399E+03  0.12509507118E+03 0.  0.
          5    1    3    3  502    0  0.63884291497E+02 -0.21486183360E+02 -0.46195063439E+02  0.81818794062E+02  0.41800000000E+01 0. -1.
         -5    1    3    3    0  502 -0.49710344956E+02 -0.76100644428E+02 -0.85506019821E+02  0.12486463993E+03  0.41800000000E+01 0. -1.
        -11    1    1    2    0    0 -0.38800837101E+02  0.84049196065E+01 -0.82245667860E+02  0.91326324327E+02  0.00000000000E+00 0.  1.
         11    1    1    2    0    0  0.24626890559E+02  0.89181908182E+02 -0.42892185578E+02  0.10197860594E+03  0.00000000000E+00 0. -1.
</event>
<event>
 7    1  0.2842702E-009  0.2212828E+03  0.7561462E-02  0.1132930E+00
          2   -1    0    0  501    0  0.00000000000E+00  0.00000000000E+00  0.79458488816E+03  0.79458488816E+03  0.00000000000E+00 0.  1.
         -2   -1    0    0    0  501 -0.00000000000E+00 -0.00000000000E+00 -0.71483161984E+02  0.71483161984E+02  0.00000000000E+00 0. -1.
         25    2    1    2    0    0 -0.20387288510E+03 -0.41424374625E+02  0.44728146581E+03  0.50890740939E+03  0.12508361037E+03 0.  0.
          5    1    3    3  502    0 -0.69006210530E+02  0.15879921909E+02  0.26848211554E+03  0.27769434235E+03  0.41800000000E+01 0.  1.
         -5    1    3    3    0  502 -0.13486667457E+03 -0.57304296534E+02  0.17879935027E+03  0.23121306704E+03  0.41800000000E+01 0.  1.
        -11    1    1    2    0    0  0.17010771412E+03 -0.18882251402E+01  0.18763577069E+03  0.25327333503E+03  0.00000000000E+00 0. -1.
         11    1    1    2    0    0  0.33765170989E+02  0.43312599765E+02  0.88184489679E+02  0.10388730572E+03  0.00000000000E+00 0.  1.
</event>
<event>
 7    1  0.2842702E-009  0.1568388E+03  0.7561462E-02  0.1192313E+00
         -1   -1    0    0    0  501 -0.00000000000E+00  0.00000000000E+00  0.65596143036E+03  0.65596143036E+03  0.00000000000E+00 0.  1.
          1   -1    0    0  501    0  0.00000000000E+00 -0.00000000000E+00 -0.45263911190E+02  0.45263911190E+02  0.00000000000E+00 0. -1.
         25    2    1    2    0    0  0.76046103313E+02 -0.10402707746E+03  0.23661768663E+03  0.29706372727E+03  0.12511708819E+03 0.  0.
          5    1    3    3  502    0  0.13292551094E+02  0.27368015413E+02  0.22413898649E+02  0.38020460740E+02  0.41800000000E+01 0. -1.
         -5    1    3    3    0  502  0.62753552219E+02 -0.13139509288E+03  0.21420378798E+03  0.25904326653E+03  0.41800000000E+01 0. -1.
        -11    1    1    2    0    0 -0.17692482490E+02  0.64330443059E+02  0.93641683146E+02  0.11497910533E+03  0.00000000000E+00 0. -1.
         11    1    1    2    0    0 -0.58353620823E+02  0.39696634405E+02  0.28043814939E+03  0.28918250894E+03  0.00000000000E+00 0.  1.
</event>
<event>
 7    1  0.2842702E-009  0.1166481E+03  0.7561462E-02  0.1248731E+00
          2   -1    0    0  501    0  0.00000000000E+00  0.00000000000E+00  0.55155215996E+03  0.55155215996E+03  0.00000000000E+00 0.  1.
         -2   -1    0    0    0  501 -0.00000000000E+00 -0.00000000000E+00 -0.27686272325E+02  0.27686272325E+02  0.00000000000E+00 0. -1.
         25    2    1    2    0    0 -0.26778372369E+02  0.52869808762E+02  0.30117333668E+03  0.33146028794E+03  0.12509294883E+03 0.  0.
          5    1    3    3  502    0  0.22711184834E+02 -0.31171966814E+02  0.62061164495E+02  0.73188455170E+02  0.41800000000E+01 0.  1.
         -5    1    3    3    0  502 -0.49489557202E+02  0.84041775575E+02  0.23911217219E+03  0.25827183277E+03  0.41800000000E+01 0.  1.
        -11    1    1    2    0    0  0.52885035578E+02 -0.45475496704E+02  0.20185748767E+03  0.21356800584E+03  0.00000000000E+00 0.  1.
         11    1    1    2    0    0 -0.26106663210E+02 -0.73943120583E+01  0.20835063279E+02  0.34210138506E+02  0.00000000000E+00 0. -1.
</event>
<event>
 7    1  0.2842702E-009  0.8138778E+02  0.7561462E-02  0.1325159E+00
          2   -1    0    0  501    0  0.00000000000E+00  0.00000000000E+00  0.17061558223E+03  0.17061558223E+03  0.00000000000E+00 0. -1.
         -2   -1    0    0    0  501 -0.00000000000E+00 -0.00000000000E+00 -0.85608920519E+02  0.85608920519E+02  0.00000000000E+00 0.  1.
         25    2    1    2    0    0 -0.35349876347E+02 -0.23537097413E+02  0.15734229773E+02  0.13303448380E+03  0.12508796577E+03 0.  0.
          5    1    3    3  502    0 -0.34024542910E+02 -0.51345563031E+02 -0.37912981474E+02  0.72449312815E+02  0.41800000000E+01 0. -1.
         -5    1    3    3    0  502 -0.13253334376E+01  0.27808465618E+02  0.53647211247E+02  0.60585170986E+02  0.41800000000E+01 0. -1.
        -11    1    1    2    0    0  0.51934075004E+02  0.21377755709E+02  0.45546674688E+01  0.56346265018E+02  0.00000000000E+00 0.  1.
         11    1    1    2    0    0 -0.16584198657E+02  0.21593417037E+01  0.64717764471E+02  0.66843753933E+02  0.00000000000E+00 0. -1.
</event>
<event>
 7    1  0.2842702E-009  0.1351740E+03  0.7561462E-02  0.1219974E+00
          2   -1    0    0  501    0  0.00000000000E+00  0.00000000000E+00  0.80417728121E+03  0.80417728121E+03  0.00000000000E+00 0. -1.
         -2   -1    0    0    0  501 -0.00000000000E+00 -0.00000000000E+00 -0.34858714468E+02  0.34858714468E+02  0.00000000000E+00 0.  1.
         25    2    1    2    0    0  0.10076424069E+03  0.69902629348E+02  0.48462302668E+03  0.51531314523E+03  0.12509336458E+03 0.  0.
          5    1    3    3  502    0  0.20553973105E+02  0.38119510590E+02  0.36597666219E+03  0.36855386657E+03  0.41800000000E+01 0. -1.
         -5    1    3    3    0  502  0.80210267589E+02  0.31783118758E+02  0.11864636449E+03  0.14675927866E+03  0.41800000000E+01 0. -1.
        -11    1    1    2    0    0 -0.69850408342E+02 -0.67858929220E+01  0.75696672725E+02  0.10322361237E+03  0.00000000000E+00 0.  1.
         11    1    1    2    0    0 -0.30913832351E+02 -0.63116736426E+02  0.20899886734E+03  0.22049923809E+03  0.00000000000E+00 0. -1.
</event>
<event>
 7    1  0.2842702E-009  0.1212383E+03  0.7561462E-02  0.1241068E+00
         -2   -1    0    0    0  501 -0.00000000000E+00  0.00000000000E+00  0.65831194191E+02  0.65831194191E+02  0.00000000000E+00 0.  1.
          2   -1    0    0  501    0  0.00000000000E+00 -0.00000000000E+00 -0.48481586776E+03  0.48481586776E+03  0.00000000000E+00 0. -1.
         25    2    1    2    0    0  0.21872511826E+02 -0.10680317298E+03 -0.94325135806E+02  0.19086353310E+03  0.12508530085E+03 0.  0.
          5    1    3    3  502    0  0.14115857958E+02 -0.17147949773E+02  0.29856917529E+02  0.37446195423E+02  0.41800000000E+01 0. -1.
         -5    1    3    3    0  502  0.77566538681E+01 -0.89655223210E+02 -0.12418205334E+03  0.15341733767E+03  0.41800000000E+01 0. -1.
        -11    1    1    2    0    0  0.20768683487E+02  0.71422346433E+02 -0.81281323760E+02  0.11017778077E+03  0.00000000000E+00 0.  1.
         11    1    1    2    0    0 -0.42641195313E+02  0.35380826550E+02 -0.24337821401E+03  0.24960574809E+03  0.00000000000E+00 0. -1.
</event>
<event>
 7    1  0.2842702E-009  0.1843922E+03  0.7561462E-02  0.1163619E+00
          1   -1    0    0  501    0  0.00000000000E+00  0.00000000000E+00  0.21487988528E+03  0.21487988528E+03  0.00000000000E+00 0. -1.
         -1   -1    0    0    0  501 -0.00000000000E+00 -0.00000000000E+00 -0.16095299988E+03  0.16095299988E+03  0.00000000000E+00 0.  1.
         25    2    1    2    0    0  0.91580415236E+02  0.12855878378E+03  0.22078098779E+02  0.20260673646E+03  0.12509082250E+03 0.  0.
          5    1    3    3  502    0  0.69385080071E+02  0.10275770799E+01  0.22568729675E+02  0.73090117049E+02  0.41800000000E+01 0.  1.
         -5    1    3    3    0  502  0.22195335164E+02  0.12753120670E+03 -0.49063089625E+00  0.12951661941E+03  0.41800000000E+01 0.  1.
        -11    1    1    2    0    0  0.17988400183E+01 -0.43196405542E+02  0.14075173425E+02  0.45467304561E+02  0.00000000000E+00 0.  1.
         11    1    1    2    0    0 -0.93379255254E+02 -0.85362378239E+02  0.17773613194E+02  0.12775884414E+03  0.00000000000E+00 0. -1.
</event>
<event>
 7    1  0.2842702E-009  0.1201801E+03  0.7561462E-02  0.1242800E+00
         -3   -1    0    0    0  501 -0.00000000000E+00  0.00000000000E+00  0.45297761429E+03  0.45297761429E+03  0.00000000000E+00 0.  1.
          3   -1    0    0  501    0  0.00000000000E+00 -0.00000000000E+00 -0.50679203646E+02  0.50679203646E+02  0.00000000000E+00 0. -1.
         25    2    1    2    0    0 -0.41411348272E+02 -0.32961302445E+02  0.65974026941E+02  0.15100060103E+03  0.12508901652E+03 0.  0.
          5    1    3    3  502    0 -0.82717227803E+02 -0.41662643019E+02  0.38050493707E+02  0.10021590727E+03  0.41800000000E+01 0.  1.
         -5    1    3    3    0  502  0.41305879531E+02  0.87013405743E+01  0.27923533234E+02  0.50784693756E+02  0.41800000000E+01 0.  1.
        -11    1    1    2    0    0  0.68389792588E+02  0.37307358769E+02  0.22815580918E+03  0.24108935276E+03  0.00000000000E+00 0. -1.
         11    1    1    2    0    0 -0.26978444316E+02 -0.43460563242E+01  0.10816857452E+03  0.11156686415E+03  0.00000000000E+00 0.  1.
</event>
<event>
 7    1  0.2842702E-009  0.1398652E+03  0.7561462E-02  0.1213511E+00
          2   -1    0    0  501    0  0.00000000000E+00  0.00000000000E+00  0.88809408018E+03  0.88809408018E+03  0.00000000000E+00 0. -1.
         -2   -1    0    0    0  501 -0.00000000000E+00 -0.00000000000E+00 -0.32243562841E+02  0.32243562841E+02  0.00000000000E+00 0.  1.
         25    2    1    2    0    0  0.35702765809E+02 -0.12143887830E+03  0.52199468555E+03  0.55149579510E+03  0.12508825529E+03 0.  0.
          5    1    3    3  502    0 -0.17230784205E+02 -0.37746813278E+02  0.34784488079E+02  0.54306121643E+02  0.41800000000E+01 0. -1.
         -5    1    3    3    0  502  0.52933550014E+02 -0.83692065019E+02  0.48721019748E+03  0.49718967345E+03  0.41800000000E+01 0. -1.
        -11    1    1    2    0    0 -0.49069041458E+02  0.68183643980E+02  0.27841952790E+03  0.29081646042E+03  0.00000000000E+00 0.  1.
         11    1    1    2    0    0  0.13366275649E+02  0.53255234317E+02  0.55436303886E+02  0.78025387506E+02  0.00000000000E+00 0. -1.
</event>
<event>
 7    1  0.2842702E-009  0.1142196E+03  0.7561462E-02  0.1252950E+00
          3   -1    0    0  501    0  0.00000000000E+00  0.00000000000E+00  0.34467526129E+02  0.34467526129E+02  0.00000000000E+00 0. -1.
         -3   -1    0    0    0  501 -0.00000000000E+00 -0.00000000000E+00 -0.40298935373E+03  0.40298935373E+03  0.00000000000E+00 0.  1.
         25    2    1    2    0    0 -0.18162395934E+02 -0.32167239085E+02 -0.15676800772E+03  0.20392266226E+03  0.12507453794E+03 0.  0.
          5    1    3    3  502    0  0.23194888828E+02 -0.70130000955E+02 -0.84379811646E+02  0.11222141024E+03  0.41800000000E+01 0. -1.
         -5    1    3    3    0  502 -0.41357284763E+02  0.37962761870E+02 -0.72388196073E+02  0.91701252022E+02  0.41800000000E+01 0. -1.
        -11    1    1    2    0    0 -0.35018904129E+01 -0.31094906480E+02 -0.76535200618E+02  0.82684904179E+02  0.00000000000E+00 0.  1.
         11    1    1    2    0    0  0.21664286347E+02  0.63262145565E+02 -0.13521861927E+03  0.15084931342E+03  0.00000000000E+00 0. -1.
</event>
<event>
 7    1  0.2842702E-009  0.1226464E+03  0.7561462E-02  0.1238794E+00
          2   -1    0    0  501    0  0.00000000000E+00  0.00000000000E+00  0.15916475853E+03  0.15916475853E+03  0.00000000000E+00 0. -1.
         -2   -1    0    0    0  501 -0.00000000000E+00 -0.00000000000E+00 -0.10403941064E+03  0.10403941064E+03  0.00000000000E+00 0.  1.
         25    2    1    2    0    0 -0.37582709879E+02  0.49777803273E+02 -0.14887853250E+01  0.13978901213E+03  0.12509381140E+03 0.  0.
          5    1    3    3  502    0  0.18076038195E+02  0.75525715227E+02  0.52755920056E+01  0.77949862658E+02  0.41800000000E+01 0.  1.
         -5    1    3    3    0  502 -0.55658748074E+02 -0.25747911955E+02 -0.67643773307E+01  0.61839149475E+02  0.41800000000E+01 0.  1.
        -11    1    1    2    0    0 -0.10422556294E+02  0.19299271280E+02  0.25717727502E+02  0.33800784894E+02  0.00000000000E+00 0. -1.
         11    1    1    2    0    0  0.48005266172E+02 -0.69077074552E+02  0.30896405704E+02  0.89614372142E+02  0.00000000000E+00 0.  1.
</event>
<event>
 7    1  0.2842702E-009  0.1080494E+03  0.7561462E-02  0.1264225E+00
          2   -1    0    0  501    0  0.00000000000E+00  0.00000000000E+00  0.33063611718E+02  0.33063611718E+02  0.00000000000E+00 0.  1.
         -2   -1    0    0    0  501 -0.00000000000E+00 -0.00000000000E+00 -0.44625446121E+03  0.44625446121E+03  0.00000000000E+00 0. -1.
         25    2    1    2    0    0  0.35127038940E+02 -0.12575805460E+02 -0.29861331762E+03  0.32589948224E+03  0.12509396195E+03 0.  0.
          5    1    3    3  502    0 -0.17545261251E+02 -0.52772087075E+02 -0.80684633902E+02  0.98082678973E+02  0.41800000000E+01 0.  1.
         -5    1    3    3    0  502  0.52672300191E+02  0.40196281615E+02 -0.21792868372E+03  0.22781680327E+03  0.41800000000E+01 0.  1.
        -11    1    1    2    0    0 -0.21495182227E+02 -0.36854208644E+02 -0.23014966943E+02  0.48476429913E+02  0.00000000000E+00 0.  1.
         11    1    1    2    0    0 -0.13631856713E+02  0.49430014104E+02 -0.91562564926E+02  0.10494216077E+03  0.00000000000E+00 0. -1.
</event>
<event>
 6    1  0.2842702E-009  0.9538215E+02  0.7561462E-02  0.1290318E+00
          1   -1    0    0  501    0  0.00000000000E+00  0.00000000000E+00  0.87951400062E+02  0.87951400062E+02  0.00000000000E+00 0. -1.
         -1   -1    0    0    0  501 -0.00000000000E+00 -0.00000000000E+00 -0.16973762659E+03  0.16973762659E+03  0.00000000000E+00 0.  1.
          5    1    1    2  502    0 -0.37994001743E+02 -0.52891649609E+01  0.19237437476E+02  0.43116943712E+02  0.41800000000E+01 0.  1.
         -5    1    1    2    0  502  0.30870567869E+02 -0.42180301020E+02 -0.10084993197E+03  0.11366772160E+03  0.41800000000E+01 0.  1.
        -11    1    1    2    0    0 -0.13691211077E+02 -0.22721505484E+02 -0.68224560917E+01  0.27390910524E+02  0.00000000000E+00 0.  1.
         11    1    1    2    0    0  0.20814644951E+02  0.70190971465E+02  0.66487240577E+01  0.73513450818E+02  0.00000000000E+00 0. -1.
</event>
<event>
 7    1  0.2842702E-009  0.1146791E+03  0.7561462E-02  0.1252142E+00
         -1   -1    0    0    0  501 -0.00000000000E+00  0.00000000000E+00  0.30451232283E+03  0.30451232283E+03  0.00000000000E+00 0.  1.
          1   -1    0    0  501    0  0.00000000000E+00 -0.00000000000E+00 -0.87519960840E+02  0.87519960840E+02  0.00000000000E+00 0. -1.
         25    2    1    2    0    0 -0.41175264397E+02  0.86918277956E+02  0.20174075047E+03  0.25611969024E+03  0.12509107038E+03 0.  0.
          5    1    3    3  502    0 -0.25739398241E+02  0.92411081609E+02  0.59678080222E+02  0.11305428026E+03  0.41800000000E+01 0.  1.
         -5    1    3    3    0  502 -0.15435866156E+02 -0.54928036532E+01  0.14206267024E+03  0.14306540998E+03  0.41800000000E+01 0.  1.
        -11    1    1    2    0    0  0.26674212108E+02 -0.95786838218E+02 -0.15639175378E+02  0.10065394068E+03  0.00000000000E+00 0. -1.
         11    1    1    2    0    0  0.14501052289E+02  0.88685602616E+01  0.30890786902E+02  0.35258652755E+02  0.00000000000E+00 0.  1.
</event>
<event>
 7    1  0.2842702E-009  0.1201884E+03  0.7561462E-02  0.1242787E+00
          1   -1    0    0  501    0  0.00000000000E+00  0.00000000000E+00  0.21506015865E+03  0.21506015865E+03  0.00000000000E+00 0. -1.
         -1   -1    0    0    0  501 -0.00000000000E+00 -0.00000000000E+00 -0.12173117717E+03  0.12173117717E+03  0.00000000000E+00 0.  1.
         25    2    1    2    0    0  0.61542189422E+01 -0.56486802850E+02 -0.60636182842E+02  0.15017513329E+03  0.12508873124E+03 0.  0.
          5    1    3    3  502    0  0.37810073162E+02 -0.84679147967E+02 -0.29474591440E+02  0.97398068120E+02  0.41800000000E+01 0.  1.
         -5    1    3    3    0  502 -0.31655854220E+02  0.28192345118E+02 -0.31161591402E+02  0.52777065173E+02  0.41800000000E+01 0.  1.
        -11    1    1    2    0    0  0.38643653595E+01 -0.23764068556E+02  0.43386359315E+02  0.49618952514E+02  0.00000000000E+00 0.  1.
         11    1    1    2    0    0 -0.10018584302E+02  0.80250871406E+02  0.11057880501E+03  0.13699725001E+03  0.00000000000E+00 0. -1.
</event>
<event>
 7    1  0.2842702E-009  0.9544104E+02  0.7561462E-02  0.1290186E+00
          1   -1    0    0  501    0  0.00000000000E+00  0.00000000000E+00  0.20717487808E+02  0.20717487808E+02  0.00000000000E+00 0. -1.
         -1   -1    0    0    0  501 -0.00000000000E+00 -0.00000000000E+00 -0.94776978587E+03  0.94776978587E+03  0.00000000000E+00 0.  1.
         25    2    1    2    0    0  0.73658845372E+02  0.12989686485E+02 -0.65713988984E+03  0.67310801723E+03  0.12508881077E+03 0.  0.
          5    1    3    3  502    0  0.22940429363E+02  0.60399918310E+01 -0.13879549460E+02  0.27800343413E+02  0.41800000000E+01 0. -1.
         -5    1    3    3    0  502  0.50718416009E+02  0.69496946537E+01 -0.64326034038E+03  0.64530767382E+03  0.41800000000E+01 0. -1.
        -11    1    1    2    0    0 -0.17932155998E+02  0.36650247084E+02 -0.13701298968E+03  0.14295930250E+03  0.00000000000E+00 0.  1.
         11    1    1    2    0    0 -0.55726689374E+02 -0.49639933569E+02 -0.13289941854E+03  0.15241995395E+03  0.00000000000E+00 0. -1.
</event>
<event>
 7    1  0.2842702E-009  0.1034456E+03  0.7561462E-02  0.1273213E+00
         -2   -1    0    0    0  501 -0.00000000000E+00  0.00000000000E+00  0.12969811383E+03  0.12969811383E+03  0.00000000000E+00 0.  1.
          2   -1    0    0  501    0  0.00000000000E+00 -0.00000000000E+00 -0.96742823467E+02  0.96742823467E+02  0.00000000000E+00 0. -1.
         25    2    1    2    0    0 -0.82206179700E+01  0.22062977732E+02  0.47833976259E+02  0.13597791520E+03  0.12509016984E+03 0.  0.
          5    1    3    3  502    0  0.38786074335E+02 -0.30711826430E+02  0.41838663376E+02  0.64927051358E+02  0.41800000000E+01 0.  1.
         -5    1    3    3    0  502 -0.47006692305E+02  0.52774804162E+02  0.59953128831E+01  0.71050863840E+02  0.41800000000E+01 0.  1.
        -11    1    1    2    0    0  0.36927775664E+02  0.14747393425E+02 -0.18062300852E+02  0.43673709946E+02  0.00000000000E+00 0.  1.
         11    1    1    2    0    0 -0.28707157694E+02 -0.36810371157E+02  0.31836149577E+01  0.46789312154E+02  0.00000000000E+00 0. -1.
</event>
<event>
 7    1  0.2842702E-009  0.1467998E+03  0.7561462E-02  0.1204461E+00
         -1   -1    0    0    0  501 -0.00000000000E+00  0.00000000000E+00  0.24614518879E+02  0.24614518879E+02  0.00000000000E+00 0.  1.
          1   -1    0    0  501    0  0.00000000000E+00 -0.00000000000E+00 -0.95296745041E+03  0.95296745041E+03  0.00000000000E+00 0. -1.
         25    2    1    2    0    0  0.63416669620E+02  0.77889678538E+02 -0.37576123894E+03  0.40857251556E+03  0.12508603349E+03 0.  0.
          5    1    3    3  502    0 -0.22714310154E+02  0.69907415177E+02 -0.16262514989E+03  0.17851442059E+03  0.41800000000E+01 0. -1.
         -5    1    3    3    0  502  0.86130979774E+02  0.79822633606E+01 -0.21313608906E+03  0.23005809498E+03  0.41800000000E+01 0. -1.
        -11    1    1    2    0    0 -0.39737603880E+02 -0.95780722250E+02 -0.46836609945E+03  0.47970806438E+03  0.00000000000E+00 0. -1.
         11    1    1    2    0    0 -0.23679065740E+02  0.17891043712E+02 -0.84225593140E+02  0.89301389346E+02  0.00000000000E+00 0.  1.
</event>
<event>
 7    1  0.2842702E-009  0.1206870E+03  0.7561462E-02  0.1241968E+00
          2   -1    0    0  501    0  0.00000000000E+00  0.00000000000E+00  0.15027346277E+03  0.15027346277E+03  0.00000000000E+00 0. -1.
         -2   -1    0    0    0  501 -0.00000000000E+00 -0.00000000000E+00 -0.11449786655E+03  0.11449786655E+03  0.00000000000E+00 0.  1.
         25    2    1    2    0    0  0.14761135519E+02 -0.68016692361E+02  0.44522740827E+02  0.14991089653E+03  0.12508733304E+03 0.  0.
          5    1    3    3  502    0  0.64710709678E+02 -0.36093819507E+02 -0.23077431659E+01  0.74249833886E+02  0.41800000000E+01 0. -1.
         -5    1    3    3    0  502 -0.49949574158E+02 -0.31922872854E+02  0.46830483993E+02  0.75661062647E+02  0.41800000000E+01 0. -1.
        -11    1    1    2    0    0 -0.56998254490E+01  0.86743049545E+02  0.91600142966E+01  0.87411386652E+02  0.00000000000E+00 0. -1.
         11    1    1    2    0    0 -0.90613100703E+01 -0.18726357183E+02 -0.17907158907E+02  0.27449046134E+02  0.00000000000E+00 0.  1.
</event>
<event>
 7    1  0.2842702E-009  0.2260540E+03  0.7561462E-02  0.1129448E+00
          2   -1    0    0  501    0  0.00000000000E+00  0.00000000000E+00  0.37978757551E+03  0.37978757551E+03  0.00000000000E+00 0. -1.
         -2   -1    0    0    0  501 -0.00000000000E+00 -0.00000000000E+00 -0.20062810143E+03  0.20062810143E+03  0.00000000000E+00 0.  1.
         25    2    1    2    0    0  0.15211557086E+03  0.14072390696E+03  0.24688801455E+03  0.34575056205E+03  0.12508954610E+03 0.  0.
          5    1    3    3  502    0  0.10297947834E+03  0.29818592690E+02  0.17325851264E+03  0.20378887612E+03  0.41800000000E+01 0. -1.
         -5    1    3    3    0  502  0.49136092517E+02  0.11090531427E+03  0.73629501915E+02  0.14196168593E+03  0.41800000000E+01 0. -1.
        -11    1    1    2    0    0 -0.70249692171E+02 -0.12560720682E+02 -0.33238579801E+02  0.78724800040E+02  0.00000000000E+00 0. -1.
         11    1    1    2    0    0 -0.81865878687E+02 -0.12816318627E+03 -0.34489960667E+02  0.15594031485E+03  0.00000000000E+00 0.  1.
</event>
<event>
 7    1  0.2842702E-009  0.9978361E+02  0.7561462E-02  0.1280752E+00
          1   -1    0    0  501    0  0.00000000000E+00  0.00000000000E+00  0.44670851005E+03  0.44670851005E+03  0.00000000000E+00 0. -1.
         -1   -1    0    0    0  501 -0.00000000000E+00 -0.00000000000E+00 -0.26128389800E+02  0.26128389800E+02  0.00000000000E+00 0.  1.
         25    2    1    2    0    0  0.41704154216E+01 -0.51684627307E+01  0.25177511577E+03  0.28121458199E+03  0.12508727687E+03 0.  0.
          5    1    3    3  502    0 -0.43066512621E+02  0.27622695843E+02  0.51141892988E+02  0.72461737857E+02  0.41800000000E+01 0.  1.
         -5    1    3    3    0  502  0.47236928042E+02 -0.32791158573E+02  0.20063322278E+03  0.20875284414E+03  0.41800000000E+01 0.  1.
        -11    1    1    2    0    0 -0.47225692592E+02  0.53054394813E+01  0.93222340009E+02  0.10463660165E+03  0.00000000000E+00 0.  1.
         11    1    1    2    0    0  0.43055277170E+02 -0.13697675055E+00  0.75582664474E+02  0.86985716206E+02  0.00000000000E+00 0. -1.
</event>
<event>
 7    1  0.2842702E-009  0.8246466E+02  0.7561462E-02  0.1322199E+00
         -1   -1    0    0    0  501 -0.00000000000E+00  0.00000000000E+00  0.98630795052E+02  0.98630795052E+02  0.00000000000E+00 0.  1.
          1   -1    0    0  501    0  0.00000000000E+00 -0.00000000000E+00 -0.18130077732E+03  0.18130077732E+03  0.00000000000E+00 0. -1.
         25    2    1    2    0    0 -0.68019659122E+02  0.10321833354E+02 -0.86819410315E+02  0.16708729020E+03  0.12508932115E+03 0.  0.
          5    1    3    3  502    0 -0.72947550867E+02  0.26629520662E+02 -0.11202855838E+03  0.13637575606E+03  0.41800000000E+01 0. -1.
         -5    1    3    3    0  502  0.49278917457E+01 -0.16307687309E+02  0.25209148069E+02  0.30711534132E+02  0.41800000000E+01 0. -1.
        -11    1    1    2    0    0  0.26328540165E+02  0.12308933219E+01  0.45766945744E+02  0.52814017536E+02  0.00000000000E+00 0.  1.
         11    1    1    2    0    0  0.41691118957E+02 -0.11552726676E+02 -0.41617517694E+02  0.60030264638E+02  0.00000000000E+00 0. -1.
</event>
<event>
 7    1  0.2842702E-009  0.1237430E+03  0.7561462E-02  0.1237047E+00
          4   -1    0    0  501    0  0.00000000000E+00  0.00000000000E+00  0.11046030447E+03  0.11046030447E+03  0.00000000000E+00 0.  1.
         -4   -1    0    0    0  501 -0.00000000000E+00 -0.00000000000E+00 -0.17255907694E+03  0.17255907694E+03  0.00000000000E+00 0. -1.
         25    2    1    2    0    0  0.74060721382E+02  0.33746509679E+02 -0.59456334170E+01  0.14935211561E+03  0.12508751542E+03 0.  0.
          5    1    3    3  502    0 -0.19838201056E+02 -0.26934125275E+02 -0.15426164993E+02  0.37073444564E+02  0.41800000000E+01 0. -1.
         -5    1    3    3    0  502  0.93898922439E+02  0.60680634955E+02  0.94805315757E+01  0.11227867105E+03  0.41800000000E+01 0. -1.
        -11    1    1    2    0    0 -0.11447403658E+02  0.17550160928E+02 -0.47927050050E+02  0.52307297058E+02  0.00000000000E+00 0. -1.
         11    1    1    2    0    0 -0.62613317724E+02 -0.51296670607E+02 -0.82260890016E+01  0.81359968732E+02  0.00000000000E+00 0.  1.
</event>
<event>
 7    1  0.2842702E-009  0.1222529E+03  0.7561462E-02  0.1239426E+00
         -2   -1    0    0    0  501 -0.00000000000E+00  0.00000000000E+00  0.25730232875E+02  0.25730232875E+02  0.00000000000E+00 0.  1.
          2   -1    0    0  501    0  0.00000000000E+00 -0.00000000000E+00 -0.78275942324E+03  0.78275942324E+03  0.00000000000E+00 0. -1.
         25    2    1    2    0    0  0.10986993070E+02 -0.86427247591E+02 -0.52023368858E+03  0.54211173110E+03  0.12510657504E+03 0.  0.
          5    1    3    3  502    0  0.20963893582E+02 -0.11446632743E+03 -0.46357088426E+03  0.47797223986E+03  0.41800000000E+01 0.  1.
         -5    1    3    3    0  502 -0.99769005123E+01  0.28039079839E+02 -0.56662804325E+02  0.64139491236E+02  0.41800000000E+01 0.  1.
        -11    1    1    2    0    0 -0.28335876039E+02  0.46185540435E+02 -0.20551208658E+03  0.21253527647E+03  0.00000000000E+00 0. -1.
         11    1    1    2    0    0  0.17348882969E+02  0.40241707156E+02 -0.31283415205E+02  0.53842648542E+02  0.00000000000E+00 0.  1.
</event>
<event>
 7    1  0.2842702E-009  0.1302752E+03  0.7561462E-02  0.1227048E+00
         -1   -1    0    0    0  501 -0.00000000000E+00  0.00000000000E+00  0.49593343311E+02  0.49593343311E+02  0.00000000000E+00 0.  1.
          1   -1    0    0  501    0  0.00000000000E+00 -0.00000000000E+00 -0.45736620451E+03  0.45736620451E+03  0.00000000000E+00 0. -1.
         25    2    1    2    0    0 -0.16930054576E+02 -0.89585198234E+02 -0.30848015181E+03  0.34513502357E+03  0.12508415544E+03 0.  0.
          5    1    3    3  502    0 -0.62613060279E+02 -0.86406984539E+02 -0.23954168610E+03  0.26226752386E+03  0.41800000000E+01 0. -1.
         -5    1    3    3    0  502  0.45683005704E+02 -0.31782136951E+01 -0.68938465709E+02  0.82867499701E+02  0.41800000000E+01 0. -1.
        -11    1    1    2    0    0  0.30818995987E+02  0.88652624709E+02 -0.10975314140E+03  0.14441208546E+03  0.00000000000E+00 0. -1.
         11    1    1    2    0    0 -0.13888941411E+02  0.93257352552E+00  0.10460432006E+02  0.17412438791E+02  0.00000000000E+00 0.  1.
</event>
<event>
 7    1  0.2842702E-009  0.7606223E+02  0.7561462E-02  0.1340613E+00
          2   -1    0    0  501    0  0.00000000000E+00  0.00000000000E+00  0.56805655936E+03  0.56805655936E+03  0.00000000000E+00 0.  1.
         -2   -1    0    0    0  501 -0.00000000000E+00 -0.00000000000E+00 -0.21963404487E+02  0.21963404487E+02  0.00000000000E+00 0. -1.
         25    2    1    2    0    0 -0.25128337439E+02  0.58375760971E+01  0.33537211264E+03  0.35887177468E+03  0.12509590756E+03 0.  0.
          5    1    3    3  502    0 -0.38858320683E+02 -0.21654983237E+02  0.34616870878E+02  0.56521743911E+02  0.41800000000E+01 0. -1.
         -5    1    3    3    0  502  0.13729983244E+02  0.27492559334E+02  0.30075524177E+03  0.30235003077E+03  0.41800000000E+01 0. -1.
        -11    1    1    2    0    0  0.37217313068E+01 -0.37788402615E+02  0.36277394359E+02  0.52515369156E+02  0.00000000000E+00 0. -1.
         11    1    1    2    0    0  0.21406606132E+02  0.31950826518E+02  0.17444364787E+03  0.17863282001E+03  0.00000000000E+00 0.  1.
</event>
<event>
 7    1  0.2842702E-009  0.1009193E+03  0.7561462E-02  0.1278375E+00
          3   -1    0    0  501    0  0.00000000000E+00  0.00000000000E+00  0.21359174968E+03  0.21359174968E+03  0.00000000000E+00 0. -1.
         -3   -1    0    0    0  501 -0.00000000000E+00 -0.00000000000E+00 -0.64975883753E+02  0.64975883753E+02  0.00000000000E+00 0.  1.
         25    2    1    2    0    0 -0.93126183064E+01 -0.15466393795E+02  0.13671755922E+03  0.18618455610E+03  0.12508822381E+03 0.  0.
          5    1    3    3  502    0 -0.16615099576E+02  0.46299405404E+02  0.18842020759E+02  0.52841183001E+02  0.41800000000E+01 0.  1.
         -5    1    3    3    0  502  0.73024812694E+01 -0.61765799199E+02  0.11787553846E+03  0.13334337310E+03  0.41800000000E+01 0.  1.
        -11    1    1    2    0    0  0.30782818683E+02 -0.28027060474E+02 -0.27333161893E+01  0.41720127784E+02  0.00000000000E+00 0.  1.
         11    1    1    2    0    0 -0.21470200377E+02  0.43493454269E+02  0.14631622904E+02  0.50662949552E+02  0.00000000000E+00 0. -1.
</event>
<event>
 7    1  0.2842702E-009  0.1896520E+03  0.7561462E-02  0.1158776E+00
         -2   -1    0    0    0  501 -0.00000000000E+00  0.00000000000E+00  0.46250714127E+03  0.46250714127E+03  0.00000000000E+00 0.  1.
          2   -1    0    0  501    0  0.00000000000E+00 -0.00000000000E+00 -0.84646606780E+02  0.84646606780E+02  0.00000000000E+00 0. -1.
         25    2    1    2    0    0  0.87366786960E+02 -0.13171630317E+03  0.13219621402E+03  0.24105141260E+03  0.12509118487E+03 0.  0.
          5    1    3    3  502    0  0.99110136565E+02 -0.14852540853E+03  0.12792656193E+03  0.21969363622E+03  0.41800000000E+01 0.  1.
         -5    1    3    3    0  502 -0.11743349605E+02  0.16809105359E+02  0.42696520843E+01  0.21357776378E+02  0.41800000000E+01 0.  1.
        -11    1    1    2    0    0  0.17470246729E+02  0.17258436890E+02  0.55106835480E+02  0.60330974477E+02  0.00000000000E+00 0.  1.
         11    1    1    2    0    0 -0.10483703369E+03  0.11445786628E+03  0.19055748500E+03  0.24577136098E+03  0.00000000000E+00 0. -1.
</event>
<event>
 7    1  0.2842702E-009  0.2519310E+03  0.7561462E-02  0.1112091E+00
         -2   -1    0    0    0  501 -0.00000000000E+00  0.00000000000E+00  0.43131344578E+03  0.43131344578E+03  0.00000000000E+00 0.  1.
          2   -1    0    0  501    0  0.00000000000E+00 -0.00000000000E+00 -0.23493971176E+03  0.23493971176E+03  0.00000000000E+00 0. -1.
         25    2    1    2    0    0 -0.23992063409E+03  0.48322738862E+02  0.27973697227E+03  0.39216885938E+03  0.12508654149E+03 0.  0.
          5    1    3    3  502    0 -0.17701064572E+03  0.72509093527E+02  0.25804876951E+03  0.32124286324E+03  0.41800000000E+01 0.  1.
         -5    1    3    3    0  502 -0.62909988371E+02 -0.24186354666E+02  0.21688202763E+02  0.70925996137E+02  0.41800000000E+01 0.  1.
        -11    1    1    2    0    0  0.17069376287E+03 -0.29110173152E+02 -0.13195543002E+02  0.17366025803E+03  0.00000000000E+00 0.  1.
         11    1    1    2    0    0  0.69226871219E+02 -0.19212565710E+02 -0.70167695252E+02  0.10042404013E+03  0.00000000000E+00 0. -1.
</event>
<event>
 7    1  0.2842702E-009  0.1248331E+03  0.7561462E-02  0.1235330E+00
         -2   -1    0    0    0  501 -0.00000000000E+00  0.00000000000E+00  0.40629598129E+02  0.40629598129E+02  0.00000000000E+00 0. -1.
          2   -1    0    0  501    0  0.00000000000E+00 -0.00000000000E+00 -0.55599468688E+03  0.55599468688E+03  0.00000000000E+00 0.  1.
         25    2    1    2    0    0  0.79824996423E+02 -0.34645037874E+02 -0.16838719630E+03  0.22710087815E+03  0.12509297453E+03 0.  0.
          5    1    3    3  502    0  0.62701776940E+01  0.26256125757E+02  0.62442971239E+01  0.28020758638E+02  0.41800000000E+01 0.  1.
         -5    1    3    3    0  502  0.73554818729E+02 -0.60901163631E+02 -0.17463149342E+03  0.19908011951E+03  0.41800000000E+01 0.  1.
        -11    1    1    2    0    0 -0.90586975249E+02  0.53389511313E+02 -0.29730524124E+03  0.31535194065E+03  0.00000000000E+00 0.  1.
         11    1    1    2    0    0  0.10761978826E+02 -0.18744473439E+02 -0.49672651208E+02  0.54171466205E+02  0.00000000000E+00 0. -1.
</event>
<event>
 7    1  0.2842702E-009  0.1044515E+03  0.7561462E-02  0.1271204E+00
         -1   -1    0    0    0  501 -0.00000000000E+00  0.00000000000E+00  0.20407419754E+03  0.20407419754E+03  0.00000000000E+00 0.  1.
          1   -1    0    0  501    0  0.00000000000E+00 -0.00000000000E+00 -0.76109827633E+02  0.76109827633E+02  0.00000000000E+00 0. -1.
         25    2    1    2    0    0 -0.26774317563E+02 -0.52195660893E+02  0.93336695394E+02  0.16673399827E+03  0.12508891387E+03 0.  0.
          5    1    3    3  502    0  0.27940506865E+02  0.10320103627E+02 -0.12112654608E+02  0.32424763135E+02  0.41800000000E+01 0.  1.
         -5    1    3    3    0  502 -0.54714824427E+02 -0.62515764520E+02  0.10544935000E+03  0.13430923513E+03  0.41800000000E+01 0.  1.
        -11    1    1    2    0    0  0.34299797516E+02 -0.78011486452E+01  0.39372710534E+02  0.52797200348E+02  0.00000000000E+00 0.  1.
         11    1    1    2    0    0 -0.75254799531E+01  0.59996809538E+02 -0.47450360174E+01  0.60652826563E+02  0.00000000000E+00 0. -1.
</event>
<event>
 7    1  0.2842702E-009  0.1058514E+03  0.7561462E-02  0.1268451E+00
          2   -1    0    0  501    0  0.00000000000E+00  0.00000000000E+00  0.11794530315E+04  0.11794530315E+04  0.00000000000E+00 0. -1.
         -2   -1    0    0    0  501 -0.00000000000E+00 -0.00000000000E+00 -0.14006949116E+02  0.14006949116E+02  0.00000000000E+00 0.  1.
         25    2    1    2    0    0 -0.13974387465E+01  0.28955107757E+02  0.92060333205E+03  0.92950719714E+03  0.12503112995E+03 0.  0.
          5    1    3    3  502    0  0.91968736017E+01  0.77091268540E+02  0.62092827102E+03  0.62577714589E+03  0.41800000000E+01 0.  1.
         -5    1    3    3    0  502 -0.10594312348E+02 -0.48136160783E+02  0.29967506103E+03  0.30373005125E+03  0.41800000000E+01 0.  1.
        -11    1    1    2    0    0  0.26582671981E+01 -0.56675743689E+02  0.88216390840E+02  0.10488726291E+03  0.00000000000E+00 0.  1.
         11    1    1    2    0    0 -0.12608284516E+01  0.27720635932E+02  0.15662635949E+03  0.15906552056E+03  0.00000000000E+00 0. -1.
</event>
<event>
 7    1  0.2842702E-009  0.1949628E+03  0.7561462E-02  0.1154060E+00
          1   -1    0    0  501    0  0.00000000000E+00  0.00000000000E+00  0.65256241403E+03  0.65256241403E+03  0.00000000000E+00 0. -1.
         -1   -1    0    0    0  501 -0.00000000000E+00 -0.00000000000E+00 -0.63403540061E+02  0.63403540061E+02  0.00000000000E+00 0.  1.
         25    2    1    2    0    0 -0.12702505904E+03  0.10617652551E+03  0.38204411725E+03  0.43475923368E+03  0.12509621718E+03 0.  0.
          5    1    3    3  502    0 -0.19512933566E+02  0.89986535635E+02  0.12227602054E+03  0.15312487966E+03  0.41800000000E+01 0. -1.
         -5    1    3    3    0  502 -0.10751212548E+03  0.16189989875E+02  0.25976809671E+03  0.28163435402E+03  0.41800000000E+01 0. -1.
        -11    1    1    2    0    0  0.82128646081E+02 -0.11682645995E+03  0.14189712752E+03  0.20131649473E+03  0.00000000000E+00 0. -1.
         11    1    1    2    0    0  0.44896412961E+02  0.10649934445E+02  0.65217629202E+02  0.79890225680E+02  0.00000000000E+00 0.  1.
</event>
<event>
 7    1  0.3561017E-009  0.1835358E+03  0.7561462E-02  0.1164424E+00
          2   -1    0    0  501    0  0.00000000000E+00  0.00000000000E+00  0.19433682217E+04  0.19433682217E+04  0.00000000000E+00 0. -1.
         -2   -1    0    0    0  501 -0.00000000000E+00 -0.00000000000E+00 -0.20641109441E+02  0.20641109441E+02  0.00000000000E+00 0.  1.
         25    2    1    2    0    0  0.20073017898E+02  0.16556877399E+03  0.90723216519E+03  0.93087705179E+03  0.12508372811E+03 0.  0.
          5    1    3    3  502    0  0.40763993719E+02  0.97163583548E+02  0.27367424960E+03  0.29328745702E+03  0.41800000000E+01 0.  1.
         -5    1    3    3    0  502 -0.20690975821E+02  0.68405190445E+02  0.63355791558E+03  0.63758959477E+03  0.41800000000E+01 0.  1.
        -11    1    1    2    0    0 -0.56503843918E+02 -0.92676508873E+02  0.59202941670E+03  0.60189737490E+03  0.00000000000E+00 0.  1.
         11    1    1    2    0    0  0.36430826020E+02 -0.72892265120E+02  0.42346553040E+03  0.43123490447E+03  0.00000000000E+00 0. -1.
</event>
<event>
 7    1  0.2842702E-009  0.1437479E+03  0.7561462E-02  0.1208373E+00
          1   -1    0    0  501    0  0.00000000000E+00  0.00000000000E+00  0.58732238390E+03  0.58732238390E+03  0.00000000000E+00 0. -1.
         -1   -1    0    0    0  501 -0.00000000000E+00 -0.00000000000E+00 -0.42277232673E+02  0.42277232673E+02  0.00000000000E+00 0.  1.
         25    2    1    2    0    0 -0.24023183090E+01  0.10281714624E+03  0.39075445764E+03  0.42298226080E+03  0.12509120710E+03 0.  0.
          5    1    3    3  502    0  0.53732816887E+02  0.82831229688E+02  0.19979788432E+03  0.22290108838E+03  0.41800000000E+01 0. -1.
         -5    1    3    3    0  502 -0.56135135196E+02  0.19985916554E+02  0.19095657332E+03  0.20008117243E+03  0.41800000000E+01 0. -1.
        -11    1    1    2    0    0 -0.32222726183E+02 -0.83023986423E+02  0.69679699990E+02  0.11307761492E+03  0.00000000000E+00 0.  1.
         11    1    1    2    0    0  0.34625044492E+02 -0.19793159818E+02  0.84610993596E+02  0.93539740854E+02  0.00000000000E+00 0. -1.
</event>
<event>
 7    1  0.2842702E-009  0.8566323E+02  0.7561462E-02  0.1313707E+00
          2   -1    0    0  501    0  0.00000000000E+00  0.00000000000E+00  0.10152211976E+03  0.10152211976E+03  0.00000000000E+00 0. -1.
         -2   -1    0    0    0  501 -0.00000000000E+00 -0.00000000000E+00 -0.14585771718E+03  0.14585771718E+03  0.00000000000E+00 0.  1.
         25    2    1    2    0    0 -0.21079500236E+02 -0.75446857680E+01 -0.83079704063E+02  0.15183099159E+03  0.12509654338E+03 0.  0.
          5    1    3    3  502    0  0.23012703451E+02  0.40046367209E+02 -0.72353286706E+02  0.85940482568E+02  0.41800000000E+01 0. -1.
         -5    1    3    3    0  502 -0.44092203687E+02 -0.47591052977E+02 -0.10726417357E+02  0.65890509019E+02  0.41800000000E+01 0. -1.
        -11    1    1    2    0    0  0.23368932235E+02  0.29629074065E+02 -0.12458856360E+02  0.39739302026E+02  0.00000000000E+00 0.  1.
         11    1    1    2    0    0 -0.22894319992E+01 -0.22084388297E+02  0.51202963005E+02  0.55809543322E+02  0.00000000000E+00 0. -1.
</event>
<event>
 7    1  0.2842702E-009  0.8647838E+02  0.7561462E-02  0.1311611E+00
         -2   -1    0    0    0  501 -0.00000000000E+00  0.00000000000E+00  0.15947562453E+03  0.15947562453E+03  0.00000000000E+00 0.  1.
          2   -1    0    0  501    0  0.00000000000E+00 -0.00000000000E+00 -0.12388912096E+03  0.12388912096E+03  0.00000000000E+00 0. -1.
         25    2    1    2    0    0 -0.29772790656E+02 -0.78584981520E+01 -0.63273623307E+02  0.14351852563E+03  0.12508333517E+03 0.  0.
          5    1    3    3  502    0  0.35303671652E+02  0.80020547043E+01  0.15874705827E+02  0.39747462770E+02  0.41800000000E+01 0. -1.
         -5    1    3    3    0  502 -0.65076462307E+02 -0.15860552856E+02 -0.79148329134E+02  0.10377106286E+03  0.41800000000E+01 0. -1.
        -11    1    1    2    0    0  0.45563979731E+02  0.19727195047E+02  0.10740271873E+03  0.11832405700E+03  0.00000000000E+00 0.  1.
         11    1    1    2    0    0 -0.15791189076E+02 -0.11868696895E+02 -0.85425918553E+01  0.21522162856E+02  0.00000000000E+00 0. -1.
</event>
<event>
 7    1  0.2842702E-009  0.9333765E+02  0.7561462E-02  0.1294965E+00
          2   -1    0    0  501    0  0.00000000000E+00  0.00000000000E+00  0.14825290188E+03  0.14825290188E+03  0.00000000000E+00 0.  1.
         -2   -1    0    0    0  501 -0.00000000000E+00 -0.00000000000E+00 -0.23193688363E+03  0.23193688363E+03  0.00000000000E+00 0. -1.
         25    2    1    2    0    0  0.39662878940E+02 -0.10596349037E+02 -0.19132128286E+03  0.23225766094E+03  0.12511738973E+03 0.  0.
          5    1    3    3  502    0  0.80443961401E+02 -0.30412277105E+02 -0.12221978462E+03  0.14950346376E+03  0.41800000000E+01 0. -1.
         -5    1    3    3    0  502 -0.40781082461E+02  0.19815928068E+02 -0.69101498238E+02  0.82754197179E+02  0.41800000000E+01 0. -1.
        -11    1    1    2    0    0 -0.12332782769E+02 -0.13727281664E+02 -0.12538617530E+02  0.22310372527E+02  0.00000000000E+00 0. -1.
         11    1    1    2    0    0 -0.27330096171E+02  0.24323630701E+02  0.12017591863E+03  0.12562175204E+03  0.00000000000E+00 0.  1.
</event>
<event>
 7    1  0.2842702E-009  0.3434885E+03  0.7561462E-02  0.1065320E+00
         -2   -1    0    0    0  501 -0.00000000000E+00  0.00000000000E+00  0.13787967527E+03  0.13787967527E+03  0.00000000000E+00 0.  1.
          2   -1    0    0  501    0  0.00000000000E+00 -0.00000000000E+00 -0.10294128174E+04  0.10294128174E+04  0.00000000000E+00 0. -1.
         25    2    1    2    0    0  0.30494010096E+03  0.14358294051E+03 -0.25341947835E+03  0.43985631994E+03  0.12509046409E+03 0.  0.
          5    1    3    3  502    0  0.27361504925E+03  0.12291340615E+03 -0.26509355994E+03  0.40033107363E+03  0.41800000000E+01 0.  1.
         -5    1    3    3    0  502  0.31325051711E+02  0.20669534364E+02  0.11674081590E+02  0.39525246318E+02  0.41800000000E+01 0.  1.
        -11    1    1    2    0    0 -0.14927896092E+03 -0.12054767570E+03 -0.34700939964E+03  0.39652424103E+03  0.00000000000E+00 0.  1.
         11    1    1    2    0    0 -0.15566114005E+03 -0.23035264817E+02 -0.29110426416E+03  0.33091193173E+03  0.00000000000E+00 0. -1.
</event>
<event>
 7    1  0.2842702E-009  0.1015720E+03  0.7561462E-02  0.1277025E+00
          1   -1    0    0  501    0  0.00000000000E+00  0.00000000000E+00  0.19308287952E+04  0.19308287952E+04  0.00000000000E+00 0. -1.
         -1   -1    0    0    0  501 -0.00000000000E+00 -0.00000000000E+00 -0.99549102114E+01  0.99549102114E+01  0.00000000000E+00 0.  1.
         25    2    1    2    0    0 -0.11945441719E+01  0.35625228608E+02  0.16129766354E+04  0.16182123404E+04  0.12508784274E+03 0.  0.
          5    1    3    3  502    0  0.10510756590E+02 -0.37324540695E+02  0.23207367665E+03  0.23532798630E+03  0.41800000000E+01 0.  1.
         -5    1    3    3    0  502 -0.11705300762E+02  0.72949769304E+02  0.13809029588E+04  0.13828843541E+04  0.41800000000E+01 0.  1.
        -11    1    1    2    0    0  0.36301186183E+02 -0.40849826961E+02  0.12754156609E+03  0.13875638927E+03  0.00000000000E+00 0.  1.
         11    1    1    2    0    0 -0.35106642011E+02  0.52245983531E+01  0.18035568346E+03  0.18381497571E+03  0.00000000000E+00 0. -1.
</event>
<event>
 7    1  0.2842702E-009  0.4156418E+03  0.7561462E-02  0.1038494E+00
         -1   -1    0    0    0  501 -0.00000000000E+00  0.00000000000E+00  0.15742453252E+04  0.15742453252E+04  0.00000000000E+00 0.  1.
          1   -1    0    0  501    0  0.00000000000E+00 -0.00000000000E+00 -0.11753510717E+03  0.11753510717E+03  0.00000000000E+00 0. -1.
         25    2    1    2    0    0 -0.40757642447E+03  0.29026642738E+02  0.89027257457E+03  0.98751919600E+03  0.12509123735E+03 0.  0.
          5    1    3    3  502    0 -0.35288414233E+03  0.51681764434E+02  0.82770460245E+03  0.90128275475E+03  0.41800000000E+01 0. -1.
         -5    1    3    3    0  502 -0.54692282139E+02 -0.22655121696E+02  0.62567972114E+02  0.86236441248E+02  0.41800000000E+01 0. -1.
        -11    1    1    2    0    0  0.15743656984E+03  0.24856772949E+02  0.26086779393E+03  0.30570596755E+03  0.00000000000E+00 0. -1.
         11    1    1    2    0    0  0.25013985463E+03 -0.53883415687E+02  0.30556984955E+03  0.39855526883E+03  0.00000000000E+00 0.  1.
</event>
<event>
 7    1  0.2842702E-009  0.1094656E+03  0.7561462E-02  0.1261563E+00
         -2   -1    0    0    0  501 -0.00000000000E+00  0.00000000000E+00  0.86329685488E+02  0.86329685488E+02  0.00000000000E+00 0.  1.
          2   -1    0    0  501    0  0.00000000000E+00 -0.00000000000E+00 -0.17947395479E+03  0.17947395479E+03  0.00000000000E+00 0. -1.
         25    2    1    2    0    0  0.31483953568E+02 -0.32729453576E+01 -0.10260948689E+03  0.16487535922E+03  0.12511285216E+03 0.  0.
          5    1    3    3  502    0 -0.17982861380E+01  0.57612643854E+02 -0.60176428115E+02  0.83433359428E+02  0.41800000000E+01 0.  1.
         -5    1    3    3    0  502  0.33282239706E+02 -0.60885589211E+02 -0.42433058777E+02  0.81441999795E+02  0.41800000000E+01 0.  1.
        -11    1    1    2    0    0 -0.22517409255E+02 -0.40825780286E+02 -0.15912817442E+02  0.49264549267E+02  0.00000000000E+00 0. -1.
         11    1    1    2    0    0 -0.89665443132E+01  0.44098725644E+02  0.25378035030E+02  0.51663731789E+02  0.00000000000E+00 0.  1.
</event>
<event>
 7    1  0.2842702E-009  0.8242995E+02  0.7561462E-02  0.1322294E+00
          2   -1    0    0  501    0  0.00000000000E+00  0.00000000000E+00  0.22252901023E+03  0.22252901023E+03  0.00000000000E+00 0.  1.
         -2   -1    0    0    0  501 -0.00000000000E+00 -0.00000000000E+00 -0.40131673025E+02  0.40131673025E+02  0.00000000000E+00 0. -1.
         25    2    1    2    0    0  0.23254308621E+02  0.19331256689E+02  0.18611311045E+03  0.22627072578E+03  0.12508353652E+03 0.  0.
          5    1    3    3  502    0  0.75059617606E+02  0.95291124846E+01  0.11154987362E+03  0.13485398357E+03  0.41800000000E+01 0.  1.
         -5    1    3    3    0  502 -0.51805308985E+02  0.98021442046E+01  0.74563236835E+02  0.91416742215E+02  0.41800000000E+01 0.  1.
        -11    1    1    2    0    0 -0.14777561222E+02  0.33055509794E+00 -0.18752420876E+01  0.14899735408E+02  0.00000000000E+00 0.  1.
         11    1    1    2    0    0 -0.84767473984E+01 -0.19661811787E+02 -0.18405311629E+01  0.21490222060E+02  0.00000000000E+00 0. -1.
</event>
<event>
 7    1  0.2842702E-009  0.7927721E+02  0.7561462E-02  0.1331115E+00
          1   -1    0    0  501    0  0.00000000000E+00  0.00000000000E+00  0.43852649661E+02  0.43852649661E+02  0.00000000000E+00 0. -1.
         -1   -1    0    0    0  501 -0.00000000000E+00 -0.00000000000E+00 -0.29483300026E+03  0.29483300026E+03  0.00000000000E+00 0.  1.
         25    2    1    2    0    0  0.17538235856E+02  0.22565588267E+02 -0.11135260229E+03  0.16992361668E+03  0.12513128297E+03 0.  0.
          5    1    3    3  502    0  0.43979141831E+01  0.40609152017E+02 -0.13260776200E+03  0.13881907585E+03  0.41800000000E+01 0. -1.
         -5    1    3    3    0  502  0.13140321673E+02 -0.18043563750E+02  0.21255159706E+02  0.31104540836E+02  0.41800000000E+01 0. -1.
        -11    1    1    2    0    0 -0.45829621897E+02 -0.40606570676E+02 -0.89610922831E+02  0.10853278452E+03  0.00000000000E+00 0. -1.
         11    1    1    2    0    0  0.28291386041E+02  0.18040982409E+02 -0.50016825482E+02  0.60229248722E+02  0.00000000000E+00 0.  1.
</event>
<event>
 7    1  0.2842702E-009  0.1370930E+03  0.7561462E-02  0.1217295E+00
          1   -1    0    0  501    0  0.00000000000E+00  0.00000000000E+00  0.34224504444E+03  0.34224504444E+03  0.00000000000E+00 0. -1.
         -1   -1    0    0    0  501 -0.00000000000E+00 -0.00000000000E+00 -0.19183560594E+03  0.19183560594E+03  0.00000000000E+00 0.  1.
         25    2    1    2    0    0  0.10967294651E+02 -0.11350769317E+03 -0.13295526931E+03  0.21523998769E+03  0.12508745221E+03 0.  0.
          5    1    3    3  502    0 -0.50829355985E+02 -0.51944195011E+02 -0.26318797906E+02  0.77407844230E+02  0.41800000000E+01 0. -1.
         -5    1    3    3    0  502  0.61796650636E+02 -0.61563498162E+02 -0.10663647141E+03  0.13783214346E+03  0.41800000000E+01 0. -1.
        -11    1    1    2    0    0 -0.53912055878E+01  0.67831227509E+02  0.59795333430E+02  0.90584890700E+02  0.00000000000E+00 0.  1.
         11    1    1    2    0    0 -0.55760890635E+01  0.45676465664E+02  0.22356937438E+03  0.22825577199E+03  0.00000000000E+00 0. -1.
</event>
<event>
 7    1  0.2842702E-009  0.1032713E+03  0.7561462E-02  0.1273563E+00
         -2   -1    0    0    0  501 -0.00000000000E+00  0.00000000000E+00  0.24922829603E+02  0.24922829603E+02  0.00000000000E+00 0. -1.
          2   -1    0    0  501    0  0.00000000000E+00 -0.00000000000E+00 -0.84730661086E+03  0.84730661086E+03  0.00000000000E+00 0.  1.
         25    2    1    2    0    0  0.15330557367E+02  0.36353339452E+02 -0.72126649480E+03  0.73309576916E+03  0.12508980359E+03 0.  0.
          5    1    3    3  502    0  0.64665431385E+02  0.30435482261E+02 -0.27946954436E+03  0.28849373515E+03  0.41800000000E+01 0. -1.
         -5    1    3    3    0  502 -0.49334874018E+02  0.59178571905E+01 -0.44179695044E+03  0.44460203401E+03  0.41800000000E+01 0. -1.
        -11    1    1    2    0    0 -0.28499047641E+02  0.14906641241E+02 -0.71700151799E+02  0.78583175283E+02  0.00000000000E+00 0.  1.
         11    1    1    2    0    0  0.13168490274E+02 -0.51259980693E+02 -0.29417134660E+02  0.60550496021E+02  0.00000000000E+00 0. -1.
</event>
<event>
 7    1  0.2842702E-009  0.1078146E+03  0.7561462E-02  0.1264671E+00
         -2   -1    0    0    0  501 -0.00000000000E+00  0.00000000000E+00  0.28831891013E+03  0.28831891013E+03  0.00000000000E+00 0.  1.
          2   -1    0    0  501    0  0.00000000000E+00 -0.00000000000E+00 -0.55376938904E+02  0.55376938904E+02  0.00000000000E+00 0. -1.
         25    2    1    2    0    0 -0.78268105385E+01 -0.57793116520E+02  0.91753000794E+02  0.16573221685E+03  0.12508897341E+03 0.  0.
          5    1    3    3  502    0 -0.63310834045E+02 -0.17266554581E+02  0.63219049131E+02  0.91216863504E+02  0.41800000000E+01 0. -1.
         -5    1    3    3    0  502  0.55484023506E+02 -0.40526561938E+02  0.28533951664E+02  0.74515353348E+02  0.41800000000E+01 0. -1.
        -11    1    1    2    0    0  0.31724314912E+02  0.40949222356E+02  0.13935272231E+03  0.14866893483E+03  0.00000000000E+00 0.  1.
         11    1    1    2    0    0 -0.23897504373E+02  0.16843894164E+02  0.18362481220E+01  0.29294697354E+02  0.00000000000E+00 0. -1.
</event>
<event>
 7    1  0.2842702E-009  0.8329486E+02  0.7561462E-02  0.1319953E+00
         -1   -1    0    0    0  501 -0.00000000000E+00  0.00000000000E+00  0.14456397323E+02  0.14456397323E+02  0.00000000000E+00 0.  1.
          1   -1    0    0  501    0  0.00000000000E+00 -0.00000000000E+00 -0.10137892971E+04  0.10137892971E+04  0.00000000000E+00 0. -1.
         25    2    1    2    0    0  0.85856072074E+01 -0.42214152614E+02 -0.70069697785E+03  0.71307786412E+03  0.12509211883E+03 0.  0.
          5    1    3    3  502    0 -0.17004229787E+02 -0.39426396805E+02 -0.72674281683E+02  0.84513952776E+02  0.41800000000E+01 0.  1.
         -5    1    3    3    0  502  0.25589836994E+02 -0.27877558093E+01 -0.62802269617E+03  0.62856391134E+03  0.41800000000E+01 0.  1.
        -11    1    1    2    0    0  0.18234452356E+02  0.61623613492E+02 -0.23235844859E+03  0.24108175714E+03  0.00000000000E+00 0. -1.
         11    1    1    2    0    0 -0.26820059563E+02 -0.19409460878E+02 -0.66277473377E+02  0.74086073211E+02  0.00000000000E+00 0.  1.
</event>
<event>
 7    1  0.2842702E-009  0.1014449E+03  0.7561462E-02  0.1277287E+00
         -1   -1    0    0    0  501 -0.00000000000E+00  0.00000000000E+00  0.14055433971E+03  0.14055433971E+03  0.00000000000E+00 0.  1.
          1   -1    0    0  501    0  0.00000000000E+00 -0.00000000000E+00 -0.14443566220E+03  0.14443566220E+03  0.00000000000E+00 0. -1.
         25    2    1    2    0    0 -0.30429331902E+02  0.50602637189E+02 -0.60922958030E+02  0.15114553354E+03  0.12508714708E+03 0.  0.
          5    1    3    3  502    0  0.43605331428E+02 -0.27269522034E+01 -0.53129836328E+01  0.44210421762E+02  0.41800000000E+01 0. -1.
         -5    1    3    3    0  502 -0.74034663330E+02  0.53329589393E+02 -0.55609974398E+02  0.10693511178E+03  0.41800000000E+01 0. -1.
        -11    1    1    2    0    0  0.30814440449E+02 -0.19306272724E+02 -0.26262191028E+02  0.44854928205E+02  0.00000000000E+00 0. -1.
         11    1    1    2    0    0 -0.38510854721E+00 -0.31296364465E+02  0.83303826566E+02  0.88989540160E+02  0.00000000000E+00 0.  1.
</event>
<event>
 7    1  0.2842702E-009  0.7032276E+02  0.7561462E-02  0.1358999E+00
          1   -1    0    0  501    0  0.00000000000E+00  0.00000000000E+00  0.42187976063E+03  0.42187976063E+03  0.00000000000E+00 0. -1.
         -1   -1    0    0    0  501 -0.00000000000E+00 -0.00000000000E+00 -0.57127925925E+02  0.57127925925E+02  0.00000000000E+00 0.  1.
         25    2    1    2    0    0 -0.16477488260E+02 -0.21836009234E+02  0.37655246945E+03  0.39772054776E+03  0.12506619423E+03 0.  0.
          5    1    3    3  502    0 -0.36624778988E+02  0.34700251754E+02  0.76765172944E+02  0.91955674566E+02  0.41800000000E+01 0.  1.
         -5    1    3    3    0  502  0.20147290728E+02 -0.56536260989E+02  0.29978729651E+03  0.30576487319E+03  0.41800000000E+01 0.  1.
        -11    1    1    2    0    0  0.45242683893E+01  0.15858337736E+02  0.31725405970E+02  0.35755520751E+02  0.00000000000E+00 0. -1.
         11    1    1    2    0    0  0.11953219871E+02  0.59776714986E+01 -0.43526040715E+02  0.45531618049E+02  0.00000000000E+00 0.  1.
</event>
<event>
 7    1  0.2842702E-009  0.1316995E+03  0.7561462E-02  0.1224955E+00
          2   -1    0    0  501    0  0.00000000000E+00  0.00000000000E+00  0.40719014396E+03  0.40719014396E+03  0.00000000000E+00 0. -1.
         -2   -1    0    0    0  501 -0.00000000000E+00 -0.00000000000E+00 -0.46164346304E+02  0.46164346304E+02  0.00000000000E+00 0.  1.
         25    2    1    2    0    0  0.81179549222E+02  0.17408642740E+02  0.23660737148E+03  0.28022210275E+03  0.12509275990E+03 0.  0.
          5    1    3    3  502    0  0.56642962685E+01  0.59637511137E+02  0.12730458330E+03  0.14075740235E+03  0.41800000000E+01 0. -1.
         -5    1    3    3    0  502  0.75515252954E+02 -0.42228868397E+02  0.10930278817E+03  0.13946470040E+03  0.41800000000E+01 0. -1.
        -11    1    1    2    0    0 -0.57473566010E+02 -0.50167847123E+02  0.10041504782E+03  0.12610791214E+03  0.00000000000E+00 0.  1.
         11    1    1    2    0    0 -0.23705983212E+02  0.32759204383E+02  0.24003378360E+02  0.47024475377E+02  0.00000000000E+00 0. -1.
</event>
<event>
 7    1  0.2842702E-009  0.8289516E+02  0.7561462E-02  0.1321031E+00
          3   -1    0    0  501    0  0.00000000000E+00  0.00000000000E+00  0.44494402342E+02  0.44494402342E+02  0.00000000000E+00 0. -1.
         -3   -1    0    0    0  501 -0.00000000000E+00 -0.00000000000E+00 -0.26642615269E+03  0.26642615269E+03  0.00000000000E+00 0.  1.
         25    2    1    2    0    0  0.72827883203E+01 -0.83064790021E+01 -0.11935402286E+03  0.17324792690E+03  0.12508966705E+03 0.  0.
          5    1    3    3  502    0  0.81769555900E+01  0.45428987740E+02 -0.47391524899E+01  0.46589564240E+02  0.41800000000E+01 0.  1.
         -5    1    3    3    0  502 -0.89416726967E+00 -0.53735466742E+02 -0.11461487037E+03  0.12665836266E+03  0.41800000000E+01 0.  1.
        -11    1    1    2    0    0  0.16977112550E+02  0.29030782076E+02 -0.37701429113E+01  0.33841138220E+02  0.00000000000E+00 0. -1.
         11    1    1    2    0    0 -0.24259900870E+02 -0.20724303074E+02 -0.98807584575E+02  0.10383148991E+03  0.00000000000E+00 0.  1.
</event>
<event>
 7    1  0.2842702E-009  0.2085292E+03  0.7561462E-02  0.1142736E+00
          1   -1    0    0  501    0  0.00000000000E+00  0.00000000000E+00  0.63918632140E+03  0.63918632140E+03  0.00000000000E+00 0. -1.
         -1   -1    0    0    0  501 -0.00000000000E+00 -0.00000000000E+00 -0.76021931061E+02  0.76021931061E+02  0.00000000000E+00 0.  1.
         25    2    1    2    0    0 -0.40481067659E+01  0.18968552478E+03  0.32667209947E+03  0.39794242516E+03  0.12508608111E+03 0.  0.
          5    1    3    3  502    0 -0.43960259981E+02  0.83485456536E+02  0.23069892331E+03  0.24928255360E+03  0.41800000000E+01 0. -1.
         -5    1    3    3    0  502  0.39912153215E+02  0.10620006825E+03  0.95973176157E+02  0.14865987156E+03  0.41800000000E+01 0. -1.
        -11    1    1    2    0    0 -0.41345170542E+02 -0.73245882408E+02  0.72238102250E+02  0.11087256574E+03  0.00000000000E+00 0.  1.
         11    1    1    2    0    0  0.45393277308E+02 -0.11643964238E+03  0.16425418862E+03  0.20639326157E+03  0.00000000000E+00 0. -1.
</event>
<event>
 7    1  0.2842702E-009  0.1038389E+03  0.7561462E-02  0.1272424E+00
          3   -1    0    0  501    0  0.00000000000E+00  0.00000000000E+00  0.40667346103E+03  0.40667346103E+03  0.00000000000E+00 0. -1.
         -3   -1    0    0    0  501 -0.00000000000E+00 -0.00000000000E+00 -0.47930048577E+02  0.47930048577E+02  0.00000000000E+00 0.  1.
         25    2    1    2    0    0  0.78246394701E+02  0.25442158016E+02  0.23936575826E+03  0.28233489473E+03  0.12508886786E+03 0.  0.
          5    1    3    3  502    0 -0.84120762197E+00 -0.69846054639E+01 -0.13274203731E+02  0.15593884329E+02  0.41800000000E+01 0.  1.
         -5    1    3    3    0  502  0.79087602323E+02  0.32426763480E+02  0.25263996200E+03  0.26674101040E+03  0.41800000000E+01 0.  1.
        -11    1    1    2    0    0 -0.93713158769E+02 -0.14173592371E+02  0.12025111396E+03  0.15311230275E+03  0.00000000000E+00 0. -1.
         11    1    1    2    0    0  0.15466764068E+02 -0.11268565645E+02 -0.87345976451E+00  0.19156312129E+02  0.00000000000E+00 0.  1.
</event>
<event>
 7    1  0.2842702E-009  0.1574190E+03  0.7561462E-02  0.1191642E+00
          1   -1    0    0  501    0  0.00000000000E+00  0.00000000000E+00  0.10057489444E+04  0.10057489444E+04  0.00000000000E+00 0. -1.
         -1   -1    0    0    0  501 -0.00000000000E+00 -0.00000000000E+00 -0.26555628612E+02  0.26555628612E+02  0.00000000000E+00 0.  1.
         25    2    1    2    0    0  0.73322223751E+02 -0.94585810809E+02  0.60113645253E+03  0.62556928731E+03  0.12509706056E+03 0.  0.
          5    1    3    3  502    0  0.68102510169E+02  0.18797251743E+01  0.34718638049E+03  0.35383236208E+03  0.41800000000E+01 0.  1.
         -5    1    3    3    0  502  0.52197135819E+01 -0.96465535983E+02  0.25395007204E+03  0.27173692523E+03  0.41800000000E+01 0.  1.
        -11    1    1    2    0    0 -0.68579559721E+02  0.15055374771E+02  0.16843001407E+03  0.18247873838E+03  0.00000000000E+00 0.  1.
         11    1    1    2    0    0 -0.47426640296E+01  0.79530436038E+02  0.20962684921E+03  0.22425654735E+03  0.00000000000E+00 0. -1.
</event>
<event>
 7    1  0.2842702E-009  0.1058406E+03  0.7561462E-02  0.1268472E+00
         -2   -1    0    0    0  501 -0.00000000000E+00  0.00000000000E+00  0.28035710027E+03  0.28035710027E+03  0.00000000000E+00 0. -1.
          2   -1    0    0  501    0  0.00000000000E+00 -0.00000000000E+00 -0.73490079242E+02  0.73490079242E+02  0.00000000000E+00 0.  1.
         25    2    1    2    0    0 -0.72372688822E+02  0.18404352335E+02  0.17736489316E+03  0.22952568394E+03  0.12508880041E+03 0.  0.
          5    1    3    3  502    0 -0.49982321675E+02 -0.39051301088E+02  0.14805122612E+03  0.16112068320E+03  0.41800000000E+01 0. -1.
         -5    1    3    3    0  502 -0.22390367147E+02  0.57455653423E+02  0.29313667035E+02  0.68405000740E+02  0.41800000000E+01 0. -1.
        -11    1    1    2    0    0  0.73272305658E+02 -0.56142408005E+01 -0.17550038031E+02  0.75553651872E+02  0.00000000000E+00 0.  1.
         11    1    1    2    0    0 -0.89961683613E+00 -0.12790111535E+02  0.47052165901E+02  0.48767843703E+02  0.00000000000E+00 0. -1.
</event>
<event>
 7    1  0.2842702E-009  0.6615566E+02  0.7561462E-02  0.1373676E+00
         -2   -1    0    0    0  501 -0.00000000000E+00  0.00000000000E+00  0.11217636433E+03  0.11217636433E+03  0.00000000000E+00 0.  1.
          2   -1    0    0  501    0  0.00000000000E+00 -0.00000000000E+00 -0.11752520871E+03  0.11752520871E+03  0.00000000000E+00 0. -1.
         25    2    1    2    0    0 -0.21247860572E+01 -0.14297479150E+02 -0.41929849943E+02  0.13275270310E+03  0.12512487857E+03 0.  0.
          5    1    3    3  502    0  0.33582650315E+01 -0.60299565984E+02 -0.57705584560E+02  0.83634457559E+02  0.41800000000E+01 0.  1.
         -5    1    3    3    0  502 -0.54830510888E+01  0.46002086834E+02  0.15775734617E+02  0.49118245541E+02  0.41800000000E+01 0.  1.
        -11    1    1    2    0    0  0.11427097174E+02  0.66931479880E+01 -0.28151465434E+02  0.31110798542E+02  0.00000000000E+00 0. -1.
         11    1    1    2    0    0 -0.93023111170E+01  0.76043311621E+01  0.64732470992E+02  0.65838071397E+02  0.00000000000E+00 0.  1.
</event>
<event>
 7    1  0.2842702E-009  0.2068467E+03  0.7561462E-02  0.1144088E+00
          2   -1    0    0  501    0  0.00000000000E+00  0.00000000000E+00  0.30788280122E+03  0.30788280122E+03  0.00000000000E+00 0. -1.
         -2   -1    0    0    0  501 -0.00000000000E+00 -0.00000000000E+00 -0.18190589172E+03  0.18190589172E+03  0.00000000000E+00 0.  1.
         25    2    1    2    0    0 -0.10834288926E+03 -0.14215722467E+03  0.17905349927E+03  0.28222900589E+03  0.12508476321E+03 0.  0.
          5    1    3    3  502    0 -0.26673541378E+02 -0.12714349195E+03  0.78858336745E+02  0.15202978336E+03  0.41800000000E+01 0.  1.
         -5    1    3    3    0  502 -0.81669347880E+02 -0.15013732719E+02  0.10019516252E+03  0.13019922252E+03  0.41800000000E+01 0.  1.
        -11    1    1    2    0    0  0.96613643164E+02  0.52123693929E+02 -0.32088686748E+02  0.11437114729E+03  0.00000000000E+00 0. -1.
         11    1    1    2    0    0  0.11729246094E+02  0.90033530741E+02 -0.20987903020E+02  0.93188539772E+02  0.00000000000E+00 0.  1.
</event>
<event>
 7    1  0.2842702E-009  0.1070068E+03  0.7561462E-02  0.1266215E+00
          2   -1    0    0  501    0  0.00000000000E+00  0.00000000000E+00  0.40377650756E+03  0.40377650756E+03  0.00000000000E+00 0.  1.
         -2   -1    0    0    0  501 -0.00000000000E+00 -0.00000000000E+00 -0.38008446561E+02  0.38008446561E+02  0.00000000000E+00 0. -1.
         25    2    1    2    0    0 -0.28771682350E+02 -0.27289548879E+02  0.12734830749E+03  0.18286735750E+03  0.12510135825E+03 0.  0.
          5    1    3    3  502    0 -0.19890633055E+02  0.45182020616E+02  0.21023730563E+02  0.53819345194E+02  0.41800000000E+01 0.  1.
         -5    1    3    3    0  502 -0.88810492954E+01 -0.72471569495E+02  0.10632457693E+03  0.12904801231E+03  0.41800000000E+01 0.  1.
        -11    1    1    2    0    0 -0.24440117104E+02  0.29215856576E+02  0.15757368014E+03  0.16211215338E+03  0.00000000000E+00 0.  1.
         11    1    1    2    0    0  0.53211799454E+02 -0.19263076968E+01  0.80846073364E+02  0.96805443240E+02  0.00000000000E+00 0. -1.
</event>
<event>
 7    1  0.2842702E-009  0.7910310E+02  0.7561462E-02  0.1331616E+00
         -1   -1    0    0    0  501 -0.00000000000E+00  0.00000000000E+00  0.31598347592E+03  0.31598347592E+03  0.00000000000E+00 0.  1.
          1   -1    0    0  501    0  0.00000000000E+00 -0.00000000000E+00 -0.49763711491E+02  0.49763711491E+02  0.00000000000E+00 0. -1.
         25    2    1    2    0    0  0.55769935088E+02 -0.27422780332E+02  0.16875262925E+03  0.21904731705E+03  0.12506791230E+03 0.  0.
          5    1    3    3  502    0  0.10551854664E+02 -0.50643996669E+01 -0.20043350183E+02  0.23583851836E+02  0.41800000000E+01 0. -1.
         -5    1    3    3    0  502  0.45218080424E+02 -0.22358380665E+02  0.18879597943E+03  0.19546346522E+03  0.41800000000E+01 0. -1.
        -11    1    1    2    0    0 -0.34952007027E+02  0.52186386450E+02  0.25487262928E+02  0.67783938345E+02  0.00000000000E+00 0. -1.
         11    1    1    2    0    0 -0.20817928061E+02 -0.24763606118E+02  0.71979872246E+02  0.78915932012E+02  0.00000000000E+00 0.  1.
</event>
<event>
 7    1  0.2842702E-009  0.1099166E+03  0.7561462E-02  0.1260724E+00
         -3   -1    0    0    0  501 -0.00000000000E+00  0.00000000000E+00  0.86238457779E+02  0.86238457779E+02  0.00000000000E+00 0.  1.
          3   -1    0    0  501    0  0.00000000000E+00 -0.00000000000E+00 -0.58946673943E+03  0.58946673943E+03  0.00000000000E+00 0. -1.
         25    2    1    2    0    0 -0.15490804855E+02  0.33684046003E+02 -0.55154447929E+03  0.56676463315E+03  0.12508499817E+03 0.  0.
          5    1    3    3  502    0  0.47832624619E+02  0.43232016360E+02 -0.32198979395E+03  0.32840808002E+03  0.41800000000E+01 0. -1.
         -5    1    3    3    0  502 -0.63323429473E+02 -0.95479703576E+01 -0.22955468534E+03  0.23835655313E+03  0.41800000000E+01 0. -1.
        -11    1    1    2    0    0 -0.28781262155E+02 -0.36739331515E+02  0.44356926453E+02  0.64386927677E+02  0.00000000000E+00 0. -1.
         11    1    1    2    0    0  0.44272067010E+02  0.30552855120E+01  0.39592711788E+01  0.44553636385E+02  0.00000000000E+00 0.  1.
</event>
<event>
 7    1  0.2842702E-009  0.1478715E+03  0.7561462E-02  0.1203113E+00
         -1   -1    0    0    0  501 -0.00000000000E+00  0.00000000000E+00  0.14684879748E+03  0.14684879748E+03  0.00000000000E+00 0.  1.
          1   -1    0    0  501    0  0.00000000000E+00 -0.00000000000E+00 -0.18919093530E+03  0.18919093530E+03  0.00000000000E+00 0. -1.
         25    2    1    2    0    0 -0.28395773313E+02  0.11529668674E+03  0.18982047730E+02  0.17351439859E+03  0.12508909811E+03 0.  0.
          5    1    3    3  502    0  0.10616150417E+02  0.12980343505E+03  0.96906749835E+01  0.13066375160E+03  0.41800000000E+01 0. -1.
         -5    1    3    3    0  502 -0.39011923730E+02 -0.14506748310E+02  0.92913727469E+01  0.42850646987E+02  0.41800000000E+01 0. -1.
        -11    1    1    2    0    0  0.25356947973E+02 -0.34822695734E+02  0.20511535912E+02  0.47710775032E+02  0.00000000000E+00 0.  1.
         11    1    1    2    0    0  0.30388253407E+01 -0.80473991005E+02 -0.81835721458E+02  0.11481455916E+03  0.00000000000E+00 0. -1.
</event>
<event>
 7    1  0.2842702E-009  0.1210690E+03  0.7561462E-02  0.1241344E+00
         -1   -1    0    0    0  501 -0.00000000000E+00  0.00000000000E+00  0.98524328301E+02  0.98524328301E+02  0.00000000000E+00 0.  1.
          1   -1    0    0  501    0  0.00000000000E+00 -0.00000000000E+00 -0.17801364245E+03  0.17801364245E+03  0.00000000000E+00 0. -1.
         25    2    1    2    0    0  0.57925212383E+02  0.36096907662E+02 -0.77575229162E+02  0.16224339703E+03  0.12508671684E+03 0.  0.
          5    1    3    3  502    0  0.73761311935E+02  0.71396790874E+02 -0.48194348307E+02  0.11348304056E+03  0.41800000000E+01 0. -1.
         -5    1    3    3    0  502 -0.15836099552E+02 -0.35299883212E+02 -0.29380880854E+02  0.48760356475E+02  0.41800000000E+01 0. -1.
        -11    1    1    2    0    0 -0.54907250199E+02  0.86930091352E+01 -0.28136021105E+02  0.62305779955E+02  0.00000000000E+00 0. -1.
         11    1    1    2    0    0 -0.30179621844E+01 -0.44789916797E+02  0.26221936123E+02  0.51988793759E+02  0.00000000000E+00 0.  1.
</event>
<event>
 7    1  0.2842702E-009  0.9344602E+02  0.7561462E-02  0.1294715E+00
          2   -1    0    0  501    0  0.00000000000E+00  0.00000000000E+00  0.22690666975E+03  0.22690666975E+03  0.00000000000E+00 0. -1.
         -2   -1    0    0    0  501 -0.00000000000E+00 -0.00000000000E+00 -0.56174065169E+02  0.56174065169E+02  0.00000000000E+00 0.  1.
         25    2    1    2    0    0 -0.25588494391E+01  0.17863718162E+02  0.13268554741E+03  0.18325433776E+03  0.12510410736E+03 0.  0.
          5    1    3    3  502    0 -0.49836182140E+02  0.41979842903E+02  0.40602563121E+02  0.76889484277E+02  0.41800000000E+01 0. -1.
         -5    1    3    3    0  502  0.47277332701E+02 -0.24116124741E+02  0.92082984293E+02  0.10636485348E+03  0.41800000000E+01 0. -1.
        -11    1    1    2    0    0 -0.26095719426E+02  0.10418509253E+02 -0.16074705334E+02  0.32371716961E+02  0.00000000000E+00 0.  1.
         11    1    1    2    0    0  0.28654568866E+02 -0.28282227416E+02  0.54121762500E+02  0.67454680198E+02  0.00000000000E+00 0. -1.
</event>
<event>
 7    1  0.2842702E-009  0.1235515E+03  0.7561462E-02  0.1237351E+00
          2   -1    0    0  501    0  0.00000000000E+00  0.00000000000E+00  0.14294806770E+03  0.14294806770E+03  0.00000000000E+00 0. -1.
         -2   -1    0    0    0  501 -0.00000000000E+00 -0.00000000000E+00 -0.12478460460E+03  0.12478460460E+03  0.00000000000E+00 0.  1.
         25    2    1    2    0    0  0.75912728135E+02  0.10433018284E+02  0.58502695132E+01  0.14679298143E+03  0.12506943504E+03 0.  0.
          5    1    3    3  502    0  0.83020280843E+02 -0.32220267740E+02  0.33566970961E+02  0.95261359554E+02  0.41800000000E+01 0.  1.
         -5    1    3    3    0  502 -0.71075527084E+01  0.42653286025E+02 -0.27716701448E+02  0.51531621878E+02  0.41800000000E+01 0.  1.
        -11    1    1    2    0    0 -0.49008481653E+02  0.36023585203E+02 -0.12016063756E+02  0.61999320585E+02  0.00000000000E+00 0.  1.
         11    1    1    2    0    0 -0.26904246481E+02 -0.46456603487E+02  0.24329257338E+02  0.58940370281E+02  0.00000000000E+00 0. -1.
</event>
<event>
 7    1  0.2842702E-009  0.1191932E+03  0.7561462E-02  0.1244434E+00
          2   -1    0    0  501    0  0.00000000000E+00  0.00000000000E+00  0.55266226081E+03  0.55266226081E+03  0.00000000000E+00 0. -1.
         -2   -1    0    0    0  501 -0.00000000000E+00 -0.00000000000E+00 -0.44097246260E+02  0.44097246260E+02  0.00000000000E+00 0.  1.
         25    2    1    2    0    0 -0.10137493581E+03  0.40607740189E+01  0.36277781660E+03  0.39692561274E+03  0.12509528504E+03 0.  0.
          5    1    3    3  502    0 -0.22347964160E+02  0.91617046173E+01 -0.10706394435E+01  0.24535423420E+02  0.41800000000E+01 0.  1.
         -5    1    3    3    0  502 -0.79026971655E+02 -0.51009305985E+01  0.36384845604E+03  0.37239018932E+03  0.41800000000E+01 0.  1.
        -11    1    1    2    0    0 -0.13084565043E+02  0.13469555243E+02  0.96541849602E+01  0.21114877410E+02  0.00000000000E+00 0.  1.
         11    1    1    2    0    0  0.11445950086E+03 -0.17530329262E+02  0.13613301299E+03  0.17871901691E+03  0.00000000000E+00 0. -1.
</event>
<event>
 7    1  0.2842702E-009  0.1178529E+03  0.7561462E-02  0.1246682E+00
          1   -1    0    0  501    0  0.00000000000E+00  0.00000000000E+00  0.97237247455E+03  0.97237247455E+03  0.00000000000E+00 0. -1.
         -1   -1    0    0    0  501 -0.00000000000E+00 -0.00000000000E+00 -0.21603563881E+02  0.21603563881E+02  0.00000000000E+00 0.  1.
         25    2    1    2    0    0  0.99452295695E+01  0.93625871786E+02  0.44938688123E+03  0.47587935325E+03  0.12509148000E+03 0.  0.
          5    1    3    3  502    0 -0.33624837965E+02  0.54976715183E+02  0.84511944348E+02  0.10636169460E+03  0.41800000000E+01 0. -1.
         -5    1    3    3    0  502  0.43570067534E+02  0.38649156603E+02  0.36487493688E+03  0.36951765865E+03  0.41800000000E+01 0. -1.
        -11    1    1    2    0    0 -0.27746422844E+02 -0.13877261577E+02  0.46271201212E+02  0.55708764401E+02  0.00000000000E+00 0.  1.
         11    1    1    2    0    0  0.17801193274E+02 -0.79748610209E+02  0.45511082823E+03  0.46238792078E+03  0.00000000000E+00 0. -1.
</event>
<event>
 7    1  0.2842702E-009  0.1764670E+03  0.7561462E-02  0.1171267E+00
          2   -1    0    0  501    0  0.00000000000E+00  0.00000000000E+00  0.58037708465E+03  0.58037708465E+03  0.00000000000E+00 0. -1.
         -2   -1    0    0    0  501 -0.00000000000E+00 -0.00000000000E+00 -0.67177294801E+02  0.67177294801E+02  0.00000000000E+00 0.  1.
         25    2    1    2    0    0  0.10868289843E+03 -0.86838459786E+02  0.12505091229E+03  0.22502915832E+03  0.12508997130E+03 0.  0.
          5    1    3    3  502    0  0.10468658199E+03 -0.11638894037E+03  0.99473393394E+02  0.18552114241E+03  0.41800000000E+01 0. -1.
         -5    1    3    3    0  502  0.39963164382E+01  0.29550480582E+02  0.25577518898E+02  0.39508015905E+02  0.41800000000E+01 0. -1.
        -11    1    1    2    0    0  0.13140025981E+02  0.28014096238E+02  0.88515432490E+02  0.93767967130E+02  0.00000000000E+00 0.  1.
         11    1    1    2    0    0 -0.12182292441E+03  0.58824363548E+02  0.29963344507E+03  0.32875725400E+03  0.00000000000E+00 0. -1.
</event>
<event>
 7    1  0.2842702E-009  0.8943651E+02  0.7561462E-02  0.1304222E+00
          1   -1    0    0  501    0  0.00000000000E+00  0.00000000000E+00  0.21021163591E+02  0.21021163591E+02  0.00000000000E+00 0. -1.
         -1   -1    0    0    0  501 -0.00000000000E+00 -0.00000000000E+00 -0.55002036842E+03  0.55002036842E+03  0.00000000000E+00 0.  1.
         25    2    1    2    0    0 -0.26796350323E+02  0.84096237122E+01 -0.34392047067E+03  0.36703810323E+03  0.12508762095E+03 0.  0.
          5    1    3    3  502    0 -0.43586826996E+02  0.43443201677E+02 -0.84093520889E+02  0.10428957721E+03  0.41800000000E+01 0. -1.
         -5    1    3    3    0  502  0.16790476673E+02 -0.35033577965E+02 -0.25982694978E+03  0.26274852602E+03  0.41800000000E+01 0. -1.
        -11    1    1    2    0    0  0.45118273640E+02  0.15757509502E+02 -0.15100970072E+03  0.15839156365E+03  0.00000000000E+00 0.  1.
         11    1    1    2    0    0 -0.18321923317E+02 -0.24167133214E+02 -0.34069033436E+02  0.45611865135E+02  0.00000000000E+00 0. -1.
</event>
<event>
 7    1  0.2842702E-009  0.9935055E+02  0.7561462E-02  0.1281668E+00
          2   -1    0    0  501    0  0.00000000000E+00  0.00000000000E+00  0.73247515443E+02  0.73247515443E+02  0.00000000000E+00 0. -1.
         -2   -1    0    0    0  501 -0.00000000000E+00 -0.00000000000E+00 -0.17839834955E+03  0.17839834955E+03  0.00000000000E+00 0.  1.
         25    2    1    2    0    0  0.20150764458E+02  0.14203184310E+01 -0.68256214212E+02  0.14392490727E+03  0.12508955808E+03 0.  0.
          5    1    3    3  502    0  0.51912752169E+02  0.24967260601E+02 -0.83343580396E+02  0.10139981624E+03  0.41800000000E+01 0.  1.
         -5    1    3    3    0  502 -0.31761987711E+02 -0.23546942171E+02  0.15087366184E+02  0.42525091032E+02  0.41800000000E+01 0.  1.
        -11    1    1    2    0    0  0.40226624074E+02  0.46963751524E+01 -0.13734710562E+02  0.42765400714E+02  0.00000000000E+00 0.  1.
         11    1    1    2    0    0 -0.60377388533E+02 -0.61166935834E+01 -0.23159909336E+02  0.64955557013E+02  0.00000000000E+00 0. -1.
</event>
<event>
 7    1  0.2842702E-009  0.9459707E+02  0.7561462E-02  0.1292086E+00
          1   -1    0    0  501    0  0.00000000000E+00  0.00000000000E+00  0.23541929285E+03  0.23541929285E+03  0.00000000000E+00 0. -1.
         -1   -1    0    0    0  501 -0.00000000000E+00 -0.00000000000E+00 -0.55493593548E+02  0.55493593548E+02  0.00000000000E+00 0.  1.
         25    2    1    2    0    0 -0.15771302995E+02 -0.15657162969E+02  0.14101756056E+03  0.18980946180E+03  0.12509116137E+03 0.  0.
          5    1    3    3  502    0 -0.53489969798E+02  0.17150390190E+02  0.21677778120E+02  0.60354877325E+02  0.41800000000E+01 0.  1.
         -5    1    3    3    0  502  0.37718666803E+02 -0.32807553159E+02  0.11933978244E+03  0.12945458448E+03  0.41800000000E+01 0.  1.
        -11    1    1    2    0    0  0.11761122225E+02 -0.32404697584E+02 -0.62478558321E+01  0.35034613227E+02  0.00000000000E+00 0.  1.
         11    1    1    2    0    0  0.40101807702E+01  0.48061860553E+02  0.45155994577E+02  0.66068811370E+02  0.00000000000E+00 0. -1.
</event>
<event>
 7    1  0.2842702E-009  0.1224821E+03  0.7561462E-02  0.1239058E+00
         -1   -1    0    0    0  501 -0.00000000000E+00  0.00000000000E+00  0.78562795700E+02  0.78562795700E+02  0.00000000000E+00 0.  1.
          1   -1    0    0  501    0  0.00000000000E+00 -0.00000000000E+00 -0.29132956158E+03  0.29132956158E+03  0.00000000000E+00 0. -1.
         25    2    1    2    0    0  0.97777732493E+02  0.25989477977E+02 -0.79478254602E+02  0.17944449401E+03  0.12509034951E+03 0.  0.
          5    1    3    3  502    0  0.93457372191E+02 -0.69726341244E+00  0.19193990913E+01  0.93573089540E+02  0.41800000000E+01 0. -1.
         -5    1    3    3    0  502  0.43203603013E+01  0.26686741389E+02 -0.81397653693E+02  0.85871404471E+02  0.41800000000E+01 0. -1.
        -11    1    1    2    0    0 -0.18861944862E+02 -0.39704074069E+02 -0.88160735778E+02  0.98511429766E+02  0.00000000000E+00 0. -1.
         11    1    1    2    0    0 -0.78915787631E+02  0.13714596092E+02 -0.45127775496E+02  0.91936433499E+02  0.00000000000E+00 0.  1.
</event>
<event>
 7    1  0.2842702E-009  0.1219861E+03  0.7561462E-02  0.1239856E+00
          2   -1    0    0  501    0  0.00000000000E+00  0.00000000000E+00  0.61059920907E+03  0.61059920907E+03  0.00000000000E+00 0.  1.
         -2   -1    0    0    0  501 -0.00000000000E+00 -0.00000000000E+00 -0.32452694749E+02  0.32452694749E+02  0.00000000000E+00 0. -1.
         25    2    1    2    0    0 -0.73305779907E+02  0.45268564793E+02  0.26136883157E+03  0.30229544149E+03  0.12508352212E+03 0.  0.
          5    1    3    3  502    0 -0.10666217526E+03  0.25339099715E+02  0.16334977010E+03  0.19677273540E+03  0.41800000000E+01 0. -1.
         -5    1    3    3    0  502  0.33356395355E+02  0.19929465078E+02  0.98019061470E+02  0.10552270609E+03  0.41800000000E+01 0. -1.
        -11    1    1    2    0    0  0.66856252004E+02 -0.21009995715E+02  0.30514829323E+03  0.31309209383E+03  0.00000000000E+00 0.  1.
         11    1    1    2    0    0  0.64495279032E+01 -0.24258569078E+02  0.11629389513E+02  0.27664368496E+02  0.00000000000E+00 0. -1.
</event>
<event>
 7    1  0.2842702E-009  0.8401571E+02  0.7561462E-02  0.1318027E+00
         -4   -1    0    0    0  501 -0.00000000000E+00  0.00000000000E+00  0.38428237531E+03  0.38428237531E+03  0.00000000000E+00 0.  1.
          4   -1    0    0  501    0  0.00000000000E+00 -0.00000000000E+00 -0.33337756851E+02  0.33337756851E+02  0.00000000000E+00 0. -1.
         25    2    1    2    0    0 -0.29562216445E+01  0.32283166638E+02  0.18244539903E+03  0.22357336914E+03  0.12509110947E+03 0.  0.
          5    1    3    3  502    0  0.24937046241E+02  0.62764042280E+02  0.48269933618E+02  0.83118230070E+02  0.41800000000E+01 0.  1.
         -5    1    3    3    0  502 -0.27893267885E+02 -0.30480875642E+02  0.13417546541E+03  0.14045513907E+03  0.41800000000E+01 0.  1.
        -11    1    1    2    0    0 -0.55560084475E+01 -0.44003106519E+02  0.17322303366E+03  0.17881096724E+03  0.00000000000E+00 0.  1.
         11    1    1    2    0    0  0.85122300920E+01  0.11719939881E+02 -0.47238142393E+01  0.15235795776E+02  0.00000000000E+00 0. -1.
</event>
<event>
 7    1  0.2842702E-009  0.9410515E+02  0.7561462E-02  0.1293204E+00
         -1   -1    0    0    0  501 -0.00000000000E+00  0.00000000000E+00  0.29580864857E+03  0.29580864857E+03  0.00000000000E+00 0.  1.
          1   -1    0    0  501    0  0.00000000000E+00 -0.00000000000E+00 -0.14446080058E+03  0.14446080058E+03  0.00000000000E+00 0. -1.
         25    2    1    2    0    0  0.10769815457E+02  0.69727863713E+02  0.24965287907E+03  0.28801118125E+03  0.12508363840E+03 0.  0.
          5    1    3    3  502    0  0.15329424890E+02  0.11833168122E+02  0.22316913983E+03  0.22404676411E+03  0.41800000000E+01 0. -1.
         -5    1    3    3    0  502 -0.45596094324E+01  0.57894695591E+02  0.26483739234E+02  0.63964417137E+02  0.41800000000E+01 0. -1.
        -11    1    1    2    0    0  0.36786907721E+02 -0.22341282385E+02 -0.15703092697E+02  0.45814807633E+02  0.00000000000E+00 0.  1.
         11    1    1    2    0    0 -0.47556723178E+02 -0.47386581328E+02 -0.82601938385E+02  0.10644346027E+03  0.00000000000E+00 0. -1.
</event>
<event>
 7    1  0.2842702E-009  0.1504348E+03  0.7561462E-02  0.1199940E+00
         -2   -1    0    0    0  501 -0.00000000000E+00  0.00000000000E+00  0.44645878437E+02  0.44645878437E+02  0.00000000000E+00 0.  1.
          2   -1    0    0  501    0  0.00000000000E+00 -0.00000000000E+00 -0.52322349880E+03  0.52322349880E+03  0.00000000000E+00 0. -1.
         25    2    1    2    0    0  0.21287733906E+02  0.10571085122E+03 -0.26447079422E+03  0.31180254589E+03  0.12509226574E+03 0.  0.
          5    1    3    3  502    0 -0.48424032018E+02  0.60568402475E+02 -0.16343050986E+03  0.18094314634E+03  0.41800000000E+01 0.  1.
         -5    1    3    3    0  502  0.69711765924E+02  0.45142448742E+02 -0.10104028436E+03  0.13085939955E+03  0.41800000000E+01 0.  1.
        -11    1    1    2    0    0 -0.55390727378E+02 -0.49388241706E+02 -0.12310161407E+03  0.14374052485E+03  0.00000000000E+00 0.  1.
         11    1    1    2    0    0  0.34102993473E+02 -0.56322609511E+02 -0.91005212074E+02  0.11232630649E+03  0.00000000000E+00 0. -1.
</event>
<event>
 7    1  0.2842702E-009  0.1210502E+03  0.7561462E-02  0.1241375E+00
         -2   -1    0    0    0  501 -0.00000000000E+00  0.00000000000E+00  0.15628945855E+03  0.15628945855E+03  0.00000000000E+00 0.  1.
          2   -1    0    0  501    0  0.00000000000E+00 -0.00000000000E+00 -0.12241121730E+03  0.12241121730E+03  0.00000000000E+00 0. -1.
         25    2    1    2    0    0  0.55421897403E+02 -0.20221543070E+02  0.81896369570E+02  0.16074411269E+03  0.12510458384E+03 0.  0.
          5    1    3    3  502    0  0.89736968865E+02  0.10361187594E+02  0.65904271620E+02  0.11189693118E+03  0.41800000000E+01 0.  1.
         -5    1    3    3    0  502 -0.34315071462E+02 -0.30582730665E+02  0.15992097950E+02  0.48847181507E+02  0.41800000000E+01 0.  1.
        -11    1    1    2    0    0 -0.74286679060E+02 -0.44945865639E+01 -0.44382870392E+02  0.86651896565E+02  0.00000000000E+00 0. -1.
         11    1    1    2    0    0  0.18864781657E+02  0.24716129634E+02 -0.36352579311E+01  0.31304666606E+02  0.00000000000E+00 0.  1.
</event>
<event>
 7    1  0.2842702E-009  0.1787110E+03  0.7561462E-02  0.1169056E+00
          2   -1    0    0  501    0  0.00000000000E+00  0.00000000000E+00  0.15084062375E+03  0.15084062375E+03  0.00000000000E+00 0.  1.
         -2   -1    0    0    0  501 -0.00000000000E+00 -0.00000000000E+00 -0.26207020427E+03  0.26207020427E+03  0.00000000000E+00 0. -1.
         25    2    1    2    0    0 -0.95672531325E+02 -0.92870643919E+02 -0.10494706612E+03  0.21081156790E+03  0.12509772468E+03 0.  0.
          5    1    3    3  502    0 -0.28807663555E+02  0.26548672654E+02 -0.19056248817E+01  0.39443850033E+02  0.41800000000E+01 0. -1.
         -5    1    3    3    0  502 -0.66864867770E+02 -0.11941931657E+03 -0.10304144124E+03  0.17136771786E+03  0.41800000000E+01 0. -1.
        -11    1    1    2    0    0 -0.17003168334E+02  0.61969427878E+02  0.40816590497E+02  0.76126945195E+02  0.00000000000E+00 0.  1.
         11    1    1    2    0    0  0.11267569966E+03  0.30901216041E+02 -0.47099104899E+02  0.12597231493E+03  0.00000000000E+00 0. -1.
</event>
<event>
 7    1  0.2842702E-009  0.2707211E+03  0.7561462E-02  0.1100868E+00
          1   -1    0    0  501    0  0.00000000000E+00  0.00000000000E+00  0.71049012431E+03  0.71049012431E+03  0.00000000000E+00 0. -1.
         -1   -1    0    0    0  501 -0.00000000000E+00 -0.00000000000E+00 -0.11055714731E+03  0.11055714731E+03  0.00000000000E+00 0.  1.
         25    2    1    2    0    0  0.64492955064E+02 -0.24734969346E+03  0.25449945139E+03  0.38178530496E+03  0.12509530855E+03 0.  0.
          5    1    3    3  502    0 -0.29761911367E+02 -0.27285234920E+02  0.64109344470E+02  0.75879746055E+02  0.41800000000E+01 0. -1.
         -5    1    3    3    0  502  0.94254866432E+02 -0.22006445854E+03  0.19039010692E+03  0.30590555891E+03  0.41800000000E+01 0. -1.
        -11    1    1    2    0    0 -0.70780153666E+02  0.17472212732E+03  0.19035752657E+03  0.26790602802E+03  0.00000000000E+00 0.  1.
         11    1    1    2    0    0  0.62871986014E+01  0.72627566142E+02  0.15507599903E+03  0.17135593863E+03  0.00000000000E+00 0. -1.
</event>
<event>
 7    1  0.2842702E-009  0.1085076E+03  0.7561462E-02  0.1263359E+00
          2   -1    0    0  501    0  0.00000000000E+00  0.00000000000E+00  0.25637450882E+03  0.25637450882E+03  0.00000000000E+00 0. -1.
         -2   -1    0    0    0  501 -0.00000000000E+00 -0.00000000000E+00 -0.71291075797E+02  0.71291075797E+02  0.00000000000E+00 0.  1.
         25    2    1    2    0    0  0.78428249714E+02 -0.20602366741E+02  0.66011219881E+02  0.16302412501E+03  0.12507572233E+03 0.  0.
          5    1    3    3  502    0  0.39999303006E+02 -0.46081324898E+02  0.91587072450E+02  0.11013217961E+03  0.41800000000E+01 0.  1.
         -5    1    3    3    0  502  0.38428946708E+02  0.25478958157E+02 -0.25575852569E+02  0.52891945402E+02  0.41800000000E+01 0.  1.
        -11    1    1    2    0    0 -0.34192859833E+02 -0.27738610824E+02  0.70328721116E+02  0.82974159880E+02  0.00000000000E+00 0. -1.
         11    1    1    2    0    0 -0.44235389881E+02  0.48340977565E+02  0.48743492028E+02  0.81667299728E+02  0.00000000000E+00 0.  1.
</event>
<event>
 7    1  0.2842702E-009  0.8540209E+02  0.7561462E-02  0.1314384E+00
         -1   -1    0    0    0  501 -0.00000000000E+00  0.00000000000E+00  0.70498240792E+02  0.70498240792E+02  0.00000000000E+00 0.  1.
          1   -1    0    0  501    0  0.00000000000E+00 -0.00000000000E+00 -0.20251523378E+03  0.20251523378E+03  0.00000000000E+00 0. -1.
         25    2    1    2    0    0  0.24402416554E+02  0.12674688252E+02 -0.27657976949E+02  0.13102702418E+03  0.12508793595E+03 0.  0.
          5    1    3    3  502    0  0.40941979624E+02  0.36260394548E+02 -0.64114385126E+02  0.84375284820E+02  0.41800000000E+01 0.  1.
         -5    1    3    3    0  502 -0.16539563070E+02 -0.23585706296E+02  0.36456408177E+02  0.46651739358E+02  0.41800000000E+01 0.  1.
        -11    1    1    2    0    0 -0.43316124332E+02 -0.36346752745E+02 -0.94495016168E+02  0.11012121114E+03  0.00000000000E+00 0.  1.
         11    1    1    2    0    0  0.18913707777E+02  0.23672064492E+02 -0.98639998698E+01  0.31865239253E+02  0.00000000000E+00 0. -1.
</event>
<event>
 7    1  0.2842702E-009  0.1028284E+03  0.7561462E-02  0.1274458E+00
         -2   -1    0    0    0  501 -0.00000000000E+00  0.00000000000E+00  0.28490882427E+02  0.28490882427E+02  0.00000000000E+00 0.  1.
          2   -1    0    0  501    0  0.00000000000E+00 -0.00000000000E+00 -0.81972523800E+03  0.81972523800E+03  0.00000000000E+00 0. -1.
         25    2    1    2    0    0  0.33697152216E+02  0.74794957393E+02 -0.23500109632E+03  0.27857469558E+03  0.12509421260E+03 0.  0.
          5    1    3    3  502    0  0.27562671467E+02  0.41111537501E+02 -0.96520799542E+01  0.50601328259E+02  0.41800000000E+01 0. -1.
         -5    1    3    3    0  502  0.61344807496E+01  0.33683419892E+02 -0.22534901637E+03  0.22797336732E+03  0.41800000000E+01 0. -1.
        -11    1    1    2    0    0 -0.11843422595E+01  0.20638873129E+02 -0.66545773116E+02  0.69682893670E+02  0.00000000000E+00 0.  1.
         11    1    1    2    0    0 -0.32512809957E+02 -0.95433830522E+02 -0.48968748613E+03  0.49995853118E+03  0.00000000000E+00 0. -1.
</event>
<event>
 7    1  0.2842702E-009  0.1622548E+03  0.7561462E-02  0.1186174E+00
          2   -1    0    0  501    0  0.00000000000E+00  0.00000000000E+00  0.57482456926E+02  0.57482456926E+02  0.00000000000E+00 0. -1.
         -2   -1    0    0    0  501 -0.00000000000E+00 -0.00000000000E+00 -0.75075631339E+03  0.75075631339E+03  0.00000000000E+00 0.  1.
         25    2    1    2    0    0 -0.11267805787E+03  0.90876071497E+02 -0.55649469048E+03  0.58846405623E+03  0.12509516319E+03 0.  0.
          5    1    3    3  502    0 -0.57239392947E+02  0.82233937506E+02 -0.16601415770E+03  0.19395087403E+03  0.41800000000E+01 0. -1.
         -5    1    3    3    0  502 -0.55438664922E+02  0.86421339915E+01 -0.39048053278E+03  0.39451318220E+03  0.41800000000E+01 0. -1.
        -11    1    1    2    0    0  0.41209170184E+01 -0.52745118084E+02 -0.66391050569E+02  0.84892879763E+02  0.00000000000E+00 0.  1.
         11    1    1    2    0    0  0.10855714085E+03 -0.38130953413E+02 -0.70388115420E+02  0.13488183432E+03  0.00000000000E+00 0. -1.
</event>
<event>
 7    1  0.2842702E-009  0.1769694E+03  0.7561462E-02  0.1170769E+00
          3   -1    0    0  501    0  0.00000000000E+00  0.00000000000E+00  0.94870762919E+02  0.94870762919E+02  0.00000000000E+00 0. -1.
         -3   -1    0    0    0  501 -0.00000000000E+00 -0.00000000000E+00 -0.43804667951E+03  0.43804667951E+03  0.00000000000E+00 0.  1.
         25    2    1    2    0    0  0.14919421743E+03 -0.40233529436E+02 -0.81713484515E+02  0.21494504983E+03  0.12508648804E+03 0.  0.
          5    1    3    3  502    0  0.10049109422E+03  0.36934067856E+02 -0.38070280485E+02  0.11370753731E+03  0.41800000000E+01 0.  1.
         -5    1    3    3    0  502  0.48703123208E+02 -0.77167597293E+02 -0.43643204030E+02  0.10123751251E+03  0.41800000000E+01 0.  1.
        -11    1    1    2    0    0 -0.21780139514E+02  0.12275458237E+02  0.84968238945E+00  0.25015661341E+02  0.00000000000E+00 0. -1.
         11    1    1    2    0    0 -0.12741407791E+03  0.27958071199E+02 -0.26231211447E+03  0.29295673126E+03  0.00000000000E+00 0.  1.
</event>
<event>
 7    1  0.2842702E-009  0.1234023E+03  0.7561462E-02  0.1237588E+00
          1   -1    0    0  501    0  0.00000000000E+00  0.00000000000E+00  0.59562654994E+03  0.59562654994E+03  0.00000000000E+00 0. -1.
         -1   -1    0    0    0  501 -0.00000000000E+00 -0.00000000000E+00 -0.25953614236E+02  0.25953614236E+02  0.00000000000E+00 0.  1.
         25    2    1    2    0    0 -0.52725371938E+02 -0.24994522236E+02  0.33771486063E+03  0.36483216837E+03  0.12508594247E+03 0.  0.
          5    1    3    3  502    0 -0.94070072070E+02 -0.17402716264E+02  0.23109776952E+03  0.25015132314E+03  0.41800000000E+01 0.  1.
         -5    1    3    3    0  502  0.41344700132E+02 -0.75918059727E+01  0.10661709110E+03  0.11468084523E+03  0.41800000000E+01 0.  1.
        -11    1    1    2    0    0  0.17958167392E+02  0.58090361473E+02  0.11004379253E+03  0.12572438962E+03  0.00000000000E+00 0.  1.
         11    1    1    2    0    0  0.34767204546E+02 -0.33095839236E+02  0.12191428255E+03  0.13102360618E+03  0.00000000000E+00 0. -1.
</event>
<event>
 7    1  0.2842702E-009  0.1112538E+03  0.7561462E-02  0.1258266E+00
         -2   -1    0    0    0  501 -0.00000000000E+00  0.00000000000E+00  0.88459145693E+03  0.88459145693E+03  0.00000000000E+00 0. -1.
          2   -1    0    0  501    0  0.00000000000E+00 -0.00000000000E+00 -0.20784239711E+02  0.20784239711E+02  0.00000000000E+00 0.  1.
         25    2    1    2    0    0  0.57815640285E+02  0.18859363537E+02  0.65938756328E+03  0.67389712969E+03  0.12508820466E+03 0.  0.
          5    1    3    3  502    0 -0.19647602000E+01 -0.34997053669E+02  0.41653028405E+03  0.41802344907E+03  0.41800000000E+01 0. -1.
         -5    1    3    3    0  502  0.59780400485E+02  0.53856417206E+02  0.24285727924E+03  0.25587368062E+03  0.41800000000E+01 0. -1.
        -11    1    1    2    0    0 -0.70243291287E+01 -0.47708951846E+02  0.70955211623E+02  0.85791184526E+02  0.00000000000E+00 0.  1.
         11    1    1    2    0    0 -0.50791311156E+02  0.28849588308E+02  0.13346444232E+03  0.14568738242E+03  0.00000000000E+00 0. -1.
</event>
<event>
 7    1  0.2842702E-009  0.8845373E+02  0.7561462E-02  0.1306640E+00
          1   -1    0    0  501    0  0.00000000000E+00  0.00000000000E+00  0.17446756470E+03  0.17446756470E+03  0.00000000000E+00 0. -1.
         -1   -1    0    0    0  501 -0.00000000000E+00 -0.00000000000E+00 -0.72526024018E+02  0.72526024018E+02  0.00000000000E+00 0.  1.
         25    2    1    2    0    0 -0.18115401889E+02  0.24527804812E+02  0.62929825856E+02  0.14331279205E+03  0.12509441390E+03 0.  0.
          5    1    3    3  502    0  0.34068548872E+02  0.20310932476E+02 -0.20411495963E+02  0.44802919188E+02  0.41800000000E+01 0. -1.
         -5    1    3    3    0  502 -0.52183950761E+02  0.42168723360E+01  0.83341321820E+02  0.98509872865E+02  0.41800000000E+01 0. -1.
        -11    1    1    2    0    0  0.39806943954E+02 -0.41091540646E+02  0.14230177966E+01  0.57228773176E+02  0.00000000000E+00 0.  1.
         11    1    1    2    0    0 -0.21691542065E+02  0.16563735834E+02  0.37588697033E+02  0.46452023492E+02  0.00000000000E+00 0. -1.
</event>
<event>
 7    1  0.2842702E-009  0.1456759E+03  0.7561462E-02  0.1205889E+00
          2   -1    0    0  501    0  0.00000000000E+00  0.00000000000E+00  0.13298516672E+04  0.13298516672E+04  0.00000000000E+00 0.  1.
         -2   -1    0    0    0  501 -0.00000000000E+00 -0.00000000000E+00 -0.28357319960E+02  0.28357319960E+02  0.00000000000E+00 0. -1.
         25    2    1    2    0    0 -0.93681786312E+02 -0.30873609987E+02  0.11253350345E+04  0.11365556120E+04  0.12510100917E+03 0.  0.
          5    1    3    3  502    0 -0.59594686147E+02  0.45331537712E+02  0.58675856577E+03  0.59153153917E+03  0.41800000000E+01 0. -1.
         -5    1    3    3    0  502 -0.34087100165E+02 -0.76205147699E+02  0.53857646870E+03  0.54502407284E+03  0.41800000000E+01 0. -1.
        -11    1    1    2    0    0  0.69691111745E-01 -0.24174613653E+02  0.19629203165E+02  0.31140366392E+02  0.00000000000E+00 0. -1.
         11    1    1    2    0    0  0.93612095200E+02  0.55048223640E+02  0.15653010959E+03  0.19051300874E+03  0.00000000000E+00 0.  1.
</event>
<event>
 7    1  0.3064059E-009  0.1338343E+03  0.7561462E-02  0.1221875E+00
          1   -1    0    0  501    0  0.00000000000E+00  0.00000000000E+00  0.12444767407E+03  0.12444767407E+03  0.00000000000E+00 0. -1.
         -1   -1    0    0    0  501 -0.00000000000E+00 -0.00000000000E+00 -0.19118039348E+03  0.19118039348E+03  0.00000000000E+00 0.  1.
         25    2    1    2    0    0 -0.65994500548E+02 -0.84057085325E+02 -0.59460214730E+02  0.17494089128E+03  0.12509168882E+03 0.  0.
          5    1    3    3  502    0  0.76477436654E+01 -0.56263260120E+02  0.22508259960E+02  0.61222026992E+02  0.41800000000E+01 0.  1.
         -5    1    3    3    0  502 -0.73642244214E+02 -0.27793825204E+02 -0.81968474690E+02  0.11371886429E+03  0.41800000000E+01 0.  1.
        -11    1    1    2    0    0 -0.14714390165E+02  0.33721305368E+02 -0.24250299923E+02  0.44064915295E+02  0.00000000000E+00 0.  1.
         11    1    1    2    0    0  0.80708890713E+02  0.50335779957E+02  0.16977795240E+02  0.96622260972E+02  0.00000000000E+00 0. -1.
</event>
<event>
 7    1  0.2842702E-009  0.1140596E+03  0.7561462E-02  0.1253232E+00
          2   -1    0    0  501    0  0.00000000000E+00  0.00000000000E+00  0.41092110003E+03  0.41092110003E+03  0.00000000000E+00 0. -1.
         -2   -1    0    0    0  501 -0.00000000000E+00 -0.00000000000E+00 -0.42717856138E+02  0.42717856138E+02  0.00000000000E+00 0.  1.
         25    2    1    2    0    0  0.72653925041E+02 -0.12045170161E+02  0.23283365125E+03  0.27437716595E+03  0.12509053159E+03 0.  0.
          5    1    3    3  502    0 -0.17344927217E+02 -0.38113904116E+02  0.32489219399E+02  0.53165195046E+02  0.41800000000E+01 0. -1.
         -5    1    3    3    0  502  0.89998852258E+02  0.26068733956E+02  0.20034443185E+03  0.22121197091E+03  0.41800000000E+01 0. -1.
        -11    1    1    2    0    0 -0.57150603536E+02 -0.16738472206E+02  0.13388849775E+03  0.14653497113E+03  0.00000000000E+00 0. -1.
         11    1    1    2    0    0 -0.15503321505E+02  0.28783642367E+02  0.14810949010E+01  0.32726819089E+02  0.00000000000E+00 0.  1.
</event>
<event>
 7    1  0.2842702E-009  0.8888101E+02  0.7561462E-02  0.1305584E+00
          2   -1    0    0  501    0  0.00000000000E+00  0.00000000000E+00  0.71432437314E+03  0.71432437314E+03  0.00000000000E+00 0. -1.
         -2   -1    0    0    0  501 -0.00000000000E+00 -0.00000000000E+00 -0.16819967217E+02  0.16819967217E+02  0.00000000000E+00 0.  1.
         25    2    1    2    0    0  0.48651718202E+01  0.40231186637E+01  0.46980647086E+03  0.48621576115E+03  0.12509113057E+03 0.  0.
          5    1    3    3  502    0  0.48193969127E+02  0.30102860940E+01  0.76872611705E+02  0.90876791938E+02  0.41800000000E+01 0. -1.
         -5    1    3    3    0  502 -0.43328797307E+02  0.10128325697E+01  0.39293385915E+03  0.39533896921E+03  0.41800000000E+01 0. -1.
        -11    1    1    2    0    0 -0.39175580014E+02  0.19884774428E+02  0.78244774485E+02  0.89735026928E+02  0.00000000000E+00 0. -1.
         11    1    1    2    0    0  0.34310408194E+02 -0.23907893092E+02  0.14945316058E+03  0.15519355228E+03  0.00000000000E+00 0.  1.
</event>
<event>
 7    1  0.2842702E-009  0.1875642E+03  0.7561462E-02  0.1160677E+00
          2   -1    0    0  501    0  0.00000000000E+00  0.00000000000E+00  0.11395775361E+04  0.11395775361E+04  0.00000000000E+00 0.  1.
         -2   -1    0    0    0  501 -0.00000000000E+00 -0.00000000000E+00 -0.44712400183E+02  0.44712400183E+02  0.00000000000E+00 0. -1.
         25    2    1    2    0    0 -0.16300520582E+03  0.47426215298E+02  0.83205789639E+03  0.85836519787E+03  0.12510206608E+03 0.  0.
          5    1    3    3  502    0 -0.15887018183E+03  0.14159176610E+02  0.78107750918E+03  0.79720747909E+03  0.41800000000E+01 0. -1.
         -5    1    3    3    0  502 -0.41350239846E+01  0.33267038688E+02  0.50980387209E+02  0.61157718780E+02  0.41800000000E+01 0. -1.
        -11    1    1    2    0    0  0.54433776586E+02  0.15116976385E+02  0.13780799065E+03  0.14893824659E+03  0.00000000000E+00 0.  1.
         11    1    1    2    0    0  0.10857142923E+03 -0.62543191683E+02  0.12499924887E+03  0.17698649182E+03  0.00000000000E+00 0. -1.
</event>
<event>
 7    1  0.2842702E-009  0.1419913E+03  0.7561462E-02  0.1210674E+00
         -1   -1    0    0    0  501 -0.00000000000E+00  0.00000000000E+00  0.21576257414E+03  0.21576257414E+03  0.00000000000E+00 0.  1.
          1   -1    0    0  501    0  0.00000000000E+00 -0.00000000000E+00 -0.11768046822E+03  0.11768046822E+03  0.00000000000E+00 0. -1.
         25    2    1    2    0    0 -0.71809660526E+01 -0.11020548276E+03  0.14010483112E+02  0.16745349880E+03  0.12509023111E+03 0.  0.
          5    1    3    3  502    0 -0.48387143031E+02 -0.32796131072E+02  0.45490261914E+02  0.74187183212E+02  0.41800000000E+01 0.  1.
         -5    1    3    3    0  502  0.41206176979E+02 -0.77409351691E+02 -0.31479778801E+02  0.93266315591E+02  0.41800000000E+01 0.  1.
        -11    1    1    2    0    0 -0.37535220999E+02  0.46645974451E+02  0.14313332958E+02  0.61559818455E+02  0.00000000000E+00 0. -1.
         11    1    1    2    0    0  0.44716187051E+02  0.63559508313E+02  0.69758289855E+02  0.10442972510E+03  0.00000000000E+00 0.  1.
</event>
<event>
 7    1  0.2842702E-009  0.1417861E+03  0.7561462E-02  0.1210946E+00
          1   -1    0    0  501    0  0.00000000000E+00  0.00000000000E+00  0.58876294827E+03  0.58876294827E+03  0.00000000000E+00 0. -1.
         -1   -1    0    0    0  501 -0.00000000000E+00 -0.00000000000E+00 -0.40927183161E+02  0.40927183161E+02  0.00000000000E+00 0.  1.
         25    2    1    2    0    0  0.59219957703E+02 -0.73372596614E+02  0.41464998642E+03  0.44325275594E+03  0.12509137894E+03 0.  0.
          5    1    3    3  502    0 -0.26014587364E+02 -0.61592240857E+02  0.22884299803E+03  0.23844696063E+03  0.41800000000E+01 0.  1.
         -5    1    3    3    0  502  0.85234545067E+02 -0.11780355757E+02  0.18580698839E+03  0.20480579530E+03  0.41800000000E+01 0.  1.
        -11    1    1    2    0    0  0.72096535011E+01 -0.16888774757E+02  0.20107443227E+02  0.27230848123E+02  0.00000000000E+00 0.  1.
         11    1    1    2    0    0 -0.66429611204E+02  0.90261371371E+02  0.11307833547E+03  0.15920652737E+03  0.00000000000E+00 0. -1.
</event>
<event>
 7    1  0.2842702E-009  0.9415319E+02  0.7561462E-02  0.1293095E+00
         -2   -1    0    0    0  501 -0.00000000000E+00  0.00000000000E+00  0.28660890774E+02  0.28660890774E+02  0.00000000000E+00 0. -1.
          2   -1    0    0  501    0  0.00000000000E+00 -0.00000000000E+00 -0.45935162818E+03  0.45935162818E+03  0.00000000000E+00 0.  1.
         25    2    1    2    0    0 -0.23961251293E+02 -0.17051393133E+02 -0.19509436922E+03  0.23360011213E+03  0.12506921248E+03 0.  0.
          5    1    3    3  502    0  0.27649132682E+02  0.24768287048E+02 -0.12722572597E+02  0.39462372392E+02  0.41800000000E+01 0. -1.
         -5    1    3    3    0  502 -0.51610383975E+02 -0.41819680181E+02 -0.18237179663E+03  0.19413773973E+03  0.41800000000E+01 0. -1.
        -11    1    1    2    0    0  0.52919254691E+02  0.54562795818E+01 -0.20058921573E+03  0.20752409973E+03  0.00000000000E+00 0.  1.
         11    1    1    2    0    0 -0.28958003398E+02  0.11595113552E+02 -0.35007152452E+02  0.46888307091E+02  0.00000000000E+00 0. -1.
</event>
<event>
 7    1  0.2842702E-009  0.1729262E+03  0.7561462E-02  0.1174830E+00
          3   -1    0    0  501    0  0.00000000000E+00  0.00000000000E+00  0.23208332158E+03  0.23208332158E+03  0.00000000000E+00 0. -1.
         -3   -1    0    0    0  501 -0.00000000000E+00 -0.00000000000E+00 -0.18211992438E+03  0.18211992438E+03  0.00000000000E+00 0.  1.
         25    2    1    2    0    0  0.13700282086E+03  0.25613222805E+01  0.13490536586E+03  0.22939854687E+03  0.12509157555E+03 0.  0.
          5    1    3    3  502    0 -0.20446058773E+02  0.17172511120E+02  0.24700087307E+02  0.36612882576E+02  0.41800000000E+01 0. -1.
         -5    1    3    3    0  502  0.15744887964E+03 -0.14611188840E+02  0.11020527855E+03  0.19278566430E+03  0.41800000000E+01 0. -1.
        -11    1    1    2    0    0  0.46319029773E+01 -0.17614538609E+02  0.13638413570E+01  0.18264352133E+02  0.00000000000E+00 0.  1.
         11    1    1    2    0    0 -0.14163472384E+03  0.15053216328E+02 -0.86305810022E+02  0.16654034695E+03  0.00000000000E+00 0. -1.
</event>
<event>
 7    1  0.2842702E-009  0.1684290E+03  0.7561462E-02  0.1179496E+00
         -1   -1    0    0    0  501 -0.00000000000E+00  0.00000000000E+00  0.49434200323E+03  0.49434200323E+03  0.00000000000E+00 0.  1.
          1   -1    0    0  501    0  0.00000000000E+00 -0.00000000000E+00 -0.22080019513E+03  0.22080019513E+03  0.00000000000E+00 0. -1.
         25    2    1    2    0    0 -0.13259308909E+03 -0.60506716226E+02 -0.15911385684E+03  0.24943508161E+03  0.12513452967E+03 0.  0.
          5    1    3    3  502    0 -0.47415158877E+02  0.34485051692E+02 -0.79926232127E+02  0.99212353382E+02  0.41800000000E+01 0.  1.
         -5    1    3    3    0  502 -0.85177930217E+02 -0.94991767918E+02 -0.79187624711E+02  0.15022272823E+03  0.41800000000E+01 0.  1.
        -11    1    1    2    0    0  0.78268280273E+02  0.15301417721E+02  0.33970231878E+03  0.34893799229E+03  0.00000000000E+00 0.  1.
         11    1    1    2    0    0  0.54324808820E+02  0.45205298504E+02  0.92953346157E+02  0.11676912446E+03  0.00000000000E+00 0. -1.
</event>
<event>
 7    1  0.2842702E-009  0.9659852E+02  0.7561462E-02  0.1287616E+00
          2   -1    0    0  501    0  0.00000000000E+00  0.00000000000E+00  0.26888329882E+03  0.26888329882E+03  0.00000000000E+00 0. -1.
         -2   -1    0    0    0  501 -0.00000000000E+00 -0.00000000000E+00 -0.56867540214E+02  0.56867540214E+02  0.00000000000E+00 0.  1.
         25    2    1    2    0    0  0.16910515876E+02 -0.37804061541E+02  0.17386266964E+03  0.21815517491E+03  0.12509332448E+03 0.  0.
          5    1    3    3  502    0 -0.29433557964E+01  0.43128826889E+02  0.89604881792E+02  0.99575430168E+02  0.41800000000E+01 0.  1.
         -5    1    3    3    0  502  0.19853871673E+02 -0.80932888430E+02  0.84257787850E+02  0.11857974474E+03  0.41800000000E+01 0.  1.
        -11    1    1    2    0    0  0.10371312156E+02  0.37644112900E+02 -0.19624347758E+02  0.43700782337E+02  0.00000000000E+00 0.  1.
         11    1    1    2    0    0 -0.27281828032E+02  0.15994864086E+00  0.57777436725E+02  0.63894881789E+02  0.00000000000E+00 0. -1.
</event>
<event>
 7    1  0.2842702E-009  0.1066238E+03  0.7561462E-02  0.1266953E+00
          2   -1    0    0  501    0  0.00000000000E+00  0.00000000000E+00  0.57666711480E+03  0.57666711480E+03  0.00000000000E+00 0.  1.
         -2   -1    0    0    0  501 -0.00000000000E+00 -0.00000000000E+00 -0.21192029960E+02  0.21192029960E+02  0.00000000000E+00 0. -1.
         25    2    1    2    0    0  0.39842841931E+01  0.12663053429E+02  0.38437223896E+03  0.40443322839E+03  0.12509192899E+03 0.  0.
          5    1    3    3  502    0 -0.41823617649E+02  0.50629398813E+02  0.18654731106E+03  0.19781284762E+03  0.41800000000E+01 0.  1.
         -5    1    3    3    0  502  0.45807901842E+02 -0.37966345384E+02  0.19782492790E+03  0.20662038078E+03  0.41800000000E+01 0.  1.
        -11    1    1    2    0    0  0.30317045343E+02 -0.35431449779E+02  0.68447125619E+02  0.82822218500E+02  0.00000000000E+00 0. -1.
         11    1    1    2    0    0 -0.34301329536E+02  0.22768396350E+02  0.10265572026E+03  0.11060369787E+03  0.00000000000E+00 0.  1.
</event>
<event>
 7    1  0.2842702E-009  0.1625849E+03  0.7561462E-02  0.1185809E+00
          1   -1    0    0  501    0  0.00000000000E+00  0.00000000000E+00  0.12582217339E+03  0.12582217339E+03  0.00000000000E+00 0. -1.
         -1   -1    0    0    0  501 -0.00000000000E+00 -0.00000000000E+00 -0.26158022412E+03  0.26158022412E+03  0.00000000000E+00 0.  1.
         25    2    1    2    0    0  0.74247127896E+01 -0.13553703047E+03 -0.16516526285E+02  0.18533189236E+03  0.12509876776E+03 0.  0.
          5    1    3    3  502    0 -0.39405203086E+02 -0.41357882115E+02 -0.48781518956E+02  0.75235320395E+02  0.41800000000E+01 0. -1.
         -5    1    3    3    0  502  0.46829915875E+02 -0.94179148357E+02  0.32264992671E+02  0.11009657196E+03  0.41800000000E+01 0. -1.
        -11    1    1    2    0    0 -0.35568262413E+02  0.12889566347E+03 -0.10390758047E+03  0.16933983179E+03  0.00000000000E+00 0.  1.
         11    1    1    2    0    0  0.28143549623E+02  0.66413670038E+01 -0.15333943972E+02  0.32730673363E+02  0.00000000000E+00 0. -1.
</event>
<event>
 7    1  0.2842702E-009  0.1524282E+03  0.7561462E-02  0.1197521E+00
         -1   -1    0    0    0  501 -0.00000000000E+00  0.00000000000E+00  0.63807779312E+02  0.63807779312E+02  0.00000000000E+00 0.  1.
          1   -1    0    0  501    0  0.00000000000E+00 -0.00000000000E+00 -0.45377883050E+03  0.45377883050E+03  0.00000000000E+00 0. -1.
         25    2    1    2    0    0 -0.11667616950E+03  0.51224706360E+02 -0.26700037526E+03  0.32120666510E+03  0.12508885740E+03 0.  0.
          5    1    3    3  502    0 -0.41089853141E+02  0.85018675064E+02 -0.16021172585E+03  0.18601564623E+03  0.41800000000E+01 0. -1.
         -5    1    3    3    0  502 -0.75586316361E+02 -0.33793968704E+02 -0.10678864940E+03  0.13519101887E+03  0.41800000000E+01 0. -1.
        -11    1    1    2    0    0  0.67224642733E+02 -0.30305068345E+02 -0.14223279081E+02  0.75098944238E+02  0.00000000000E+00 0.  1.
         11    1    1    2    0    0  0.49451526769E+02 -0.20919638015E+02 -0.10874739686E+03  0.12128100048E+03  0.00000000000E+00 0. -1.
</event>
<event>
 7    1  0.2842702E-009  0.9793788E+02  0.7561462E-02  0.1284693E+00
         -3   -1    0    0    0  501 -0.00000000000E+00  0.00000000000E+00  0.23077308639E+03  0.23077308639E+03  0.00000000000E+00 0.  1.
          3   -1    0    0  501    0  0.00000000000E+00 -0.00000000000E+00 -0.70032119030E+02  0.70032119030E+02  0.00000000000E+00 0. -1.
         25    2    1    2    0    0 -0.29735688153E+02 -0.21747687994E+02  0.11556622540E+03  0.17423800753E+03  0.12508460230E+03 0.  0.
          5    1    3    3  502    0  0.48052312794E+02 -0.24601506949E+01  0.57992089754E+02  0.75469410891E+02  0.41800000000E+01 0. -1.
         -5    1    3    3    0  502 -0.77788000947E+02 -0.19287537299E+02  0.57574135648E+02  0.98768596639E+02  0.41800000000E+01 0. -1.
        -11    1    1    2    0    0  0.30297605385E+02 -0.12716480411E+02  0.74427945176E+02  0.81358298834E+02  0.00000000000E+00 0.  1.
         11    1    1    2    0    0 -0.56191723197E+00  0.34464168405E+02 -0.29253203221E+02  0.45208899052E+02  0.00000000000E+00 0. -1.
</event>
<event>
 7    1  0.2842702E-009  0.1134839E+03  0.7561462E-02  0.1254251E+00
          1   -1    0    0  501    0  0.00000000000E+00  0.00000000000E+00  0.11535882944E+04  0.11535882944E+04  0.00000000000E+00 0. -1.
         -1   -1    0    0    0  501 -0.00000000000E+00 -0.00000000000E+00 -0.14209544495E+02  0.14209544495E+02  0.00000000000E+00 0.  1.
         25    2    1    2    0    0  0.36859242235E+02 -0.71502007513E+02  0.79292184799E+03  0.80674924903E+03  0.12509257766E+03 0.  0.
          5    1    3    3  502    0  0.66887172500E+02 -0.28354703407E+02  0.22706442005E+03  0.23843994276E+03  0.41800000000E+01 0. -1.
         -5    1    3    3    0  502 -0.30027930265E+02 -0.43147304106E+02  0.56585742793E+03  0.56830930627E+03  0.41800000000E+01 0. -1.
        -11    1    1    2    0    0 -0.31912755369E+02  0.22020648927E+01  0.11823140192E+03  0.12248239647E+03  0.00000000000E+00 0.  1.
         11    1    1    2    0    0 -0.49464868655E+01  0.69299942621E+02  0.22822550000E+03  0.23856619339E+03  0.00000000000E+00 0. -1.
</event>
<event>
 7    1  0.2842702E-009  0.1171547E+03  0.7561462E-02  0.1247866E+00
         -2   -1    0    0    0  501 -0.00000000000E+00  0.00000000000E+00  0.32268423027E+02  0.32268423027E+02  0.00000000000E+00 0.  1.
          2   -1    0    0  501    0  0.00000000000E+00 -0.00000000000E+00 -0.61149269239E+03  0.61149269239E+03  0.00000000000E+00 0. -1.
         25    2    1    2    0    0 -0.29506051439E+02 -0.55625075131E+02 -0.45690990541E+03  0.47788901156E+03  0.12508592907E+03 0.  0.
          5    1    3    3  502    0  0.11110417075E+02 -0.83383624600E+02 -0.35208151002E+03  0.36201537580E+03  0.41800000000E+01 0. -1.
         -5    1    3    3    0  502 -0.40616468515E+02  0.27758549470E+02 -0.10482839539E+03  0.11587363576E+03  0.41800000000E+01 0. -1.
        -11    1    1    2    0    0  0.52105486758E+02  0.14996149950E+02 -0.28697421413E+02  0.61346623863E+02  0.00000000000E+00 0.  1.
         11    1    1    2    0    0 -0.22599435318E+02  0.40628925180E+02 -0.93616942539E+02  0.10452548000E+03  0.00000000000E+00 0. -1.
</event>
<event>
 7    1  0.2842702E-009  0.7019501E+02  0.7561462E-02  0.1359431E+00
          1   -1    0    0  501    0  0.00000000000E+00  0.00000000000E+00  0.16436641127E+03  0.16436641127E+03  0.00000000000E+00 0. -1.
         -1   -1    0    0    0  501 -0.00000000000E+00 -0.00000000000E+00 -0.76713414235E+02  0.76713414235E+02  0.00000000000E+00 0.  1.
         25    2    1    2    0    0 -0.61722515479E+01  0.21821961867E+02  0.28009163604E+02  0.13017715634E+03  0.12508910455E+03 0.  0.
          5    1    3    3  502    0  0.40432231896E+01 -0.28712925654E+02  0.61799764609E+02  0.68391980956E+02  0.41800000000E+01 0.  1.
         -5    1    3    3    0  502 -0.10215474737E+02  0.50534887522E+02 -0.33790601004E+02  0.61785175384E+02  0.41800000000E+01 0.  1.
        -11    1    1    2    0    0 -0.76542952445E+01 -0.37610178710E+02  0.75435542374E+02  0.84638258676E+02  0.00000000000E+00 0. -1.
         11    1    1    2    0    0  0.13826546792E+02  0.15788216843E+02 -0.15791708940E+02  0.26264410493E+02  0.00000000000E+00 0.  1.
</event>
<event>
 7    1  0.2842702E-009  0.1236188E+03  0.7561462E-02  0.1237244E+00
          2   -1    0    0  501    0  0.00000000000E+00  0.00000000000E+00  0.88074752524E+03  0.88074752524E+03  0.00000000000E+00 0.  1.
         -2   -1    0    0    0  501 -0.00000000000E+00 -0.00000000000E+00 -0.30876031691E+02  0.30876031691E+02  0.00000000000E+00 0. -1.
         25    2    1    2    0    0 -0.87582423085E+01  0.12156354648E+03  0.39582326773E+03  0.43264348241E+03  0.12509964412E+03 0.  0.
          5    1    3    3  502    0  0.73537163594E+00  0.26281598852E+02  0.28450959465E+03  0.28575241916E+03  0.41800000000E+01 0.  1.
         -5    1    3    3    0  502 -0.94936139444E+01  0.95281947625E+02  0.11131367308E+03  0.14689106325E+03  0.41800000000E+01 0.  1.
        -11    1    1    2    0    0  0.18367390350E+02 -0.73923557896E+02  0.39606550043E+03  0.40332360961E+03  0.00000000000E+00 0.  1.
         11    1    1    2    0    0 -0.96091480417E+01 -0.47639988581E+02  0.57982725391E+02  0.75656464904E+02  0.00000000000E+00 0. -1.
</event>
<event>
 7    1  0.2842702E-009  0.3530620E+03  0.7561462E-02  0.1061365E+00
          1   -1    0    0  501    0  0.00000000000E+00  0.00000000000E+00  0.56081068212E+03  0.56081068212E+03  0.00000000000E+00 0. -1.
         -1   -1    0    0    0  501 -0.00000000000E+00 -0.00000000000E+00 -0.33651569105E+03  0.33651569105E+03  0.00000000000E+00 0.  1.
         25    2    1    2    0    0  0.19256657254E+02 -0.33901632497E+03 -0.14280875873E+03  0.38902812201E+03  0.12508257552E+03 0.  0.
          5    1    3    3  502    0 -0.53468389159E+02 -0.13745439837E+03 -0.58125817137E+02  0.15858330078E+03  0.41800000000E+01 0. -1.
         -5    1    3    3    0  502  0.72725046413E+02 -0.20156192660E+03 -0.84682941594E+02  0.23044482122E+03  0.41800000000E+01 0. -1.
        -11    1    1    2    0    0  0.18131569380E+02  0.17964518011E+03  0.14065681808E+03  0.22887875615E+03  0.00000000000E+00 0.  1.
         11    1    1    2    0    0 -0.37388226633E+02  0.15937114487E+03  0.22644693172E+03  0.27941949501E+03  0.00000000000E+00 0. -1.
</event>
<event>
 7    1  0.2842702E-009  0.1217306E+03  0.7561462E-02  0.1240269E+00
          2   -1    0    0  501    0  0.00000000000E+00  0.00000000000E+00  0.42850538880E+03  0.42850538880E+03  0.00000000000E+00 0. -1.
         -2   -1    0    0    0  501 -0.00000000000E+00 -0.00000000000E+00 -0.38550653963E+02  0.38550653963E+02  0.00000000000E+00 0.  1.
         25    2    1    2    0    0 -0.59862740669E+02  0.30668556906E+02  0.19091620958E+03  0.23794996248E+03  0.12508827867E+03 0.  0.
          5    1    3    3  502    0  0.35541992053E+02 -0.73287135899E+01  0.31294601889E+02  0.48101639779E+02  0.41800000000E+01 0.  1.
         -5    1    3    3    0  502 -0.95404732722E+02  0.37997270496E+02  0.15962160769E+03  0.18984832270E+03  0.41800000000E+01 0.  1.
        -11    1    1    2    0    0  0.43220337310E+02  0.22298412662E+02  0.48621302309E+02  0.68769526701E+02  0.00000000000E+00 0.  1.
         11    1    1    2    0    0  0.16642403359E+02 -0.52966969568E+02  0.15041722295E+03  0.16033655359E+03  0.00000000000E+00 0. -1.
</event>
<event>
 6    1  0.2842702E-009  0.1274019E+03  0.7561462E-02  0.1231363E+00
         -2   -1    0    0    0  501 -0.00000000000E+00  0.00000000000E+00  0.14529633766E+03  0.14529633766E+03  0.00000000000E+00 0.  1.
          2   -1    0    0  501    0  0.00000000000E+00 -0.00000000000E+00 -0.17168656363E+03  0.17168656363E+03  0.00000000000E+00 0. -1.
          5    1    1    2  502    0  0.32231758389E+02  0.57871926806E+02  0.46603253513E+02  0.81101059174E+02  0.41800000000E+01 0. -1.
         -5    1    1    2    0  502 -0.57158682834E+02  0.50920120535E+02 -0.40595322668E+02  0.86749215104E+02  0.41800000000E+01 0. -1.
        -11    1    1    2    0    0  0.82340503321E+01 -0.24821758463E+02 -0.54727719051E+02  0.60655111167E+02  0.00000000000E+00 0. -1.
         11    1    1    2    0    0  0.16692874113E+02 -0.83970288879E+02  0.22329562234E+02  0.88477515845E+02  0.00000000000E+00 0.  1.
</event>
<event>
 7    1  0.2855942E-009  0.9799192E+02  0.7561462E-02  0.1284576E+00
         -2   -1    0    0    0  501 -0.00000000000E+00  0.00000000000E+00  0.30505728623E+02  0.30505728623E+02  0.00000000000E+00 0. -1.
          2   -1    0    0  501    0  0.00000000000E+00 -0.00000000000E+00 -0.48211857455E+03  0.48211857455E+03  0.00000000000E+00 0.  1.
         25    2    1    2    0    0  0.52180376345E+02  0.73832789441E+01 -0.22586069837E+03  0.26351385660E+03  0.12509673483E+03 0.  0.
          5    1    3    3  502    0  0.92004694081E+02 -0.39671978662E+01 -0.17498659485E+03  0.19778367771E+03  0.41800000000E+01 0.  1.
         -5    1    3    3    0  502 -0.39824317737E+02  0.11350476810E+02 -0.50874103522E+02  0.65730178884E+02  0.41800000000E+01 0.  1.
        -11    1    1    2    0    0 -0.43927025477E+02  0.80669897992E+01 -0.22718696104E+03  0.23153525683E+03  0.00000000000E+00 0.  1.
         11    1    1    2    0    0 -0.82533508674E+01 -0.15450268743E+02  0.14348134825E+01  0.17575189743E+02  0.00000000000E+00 0. -1.
</event>
<event>
 7    1  0.2842702E-009  0.1386446E+03  0.7561462E-02  0.1215164E+00
          2   -1    0    0  501    0  0.00000000000E+00  0.00000000000E+00  0.45381060571E+03  0.45381060571E+03  0.00000000000E+00 0. -1.
         -2   -1    0    0    0  501 -0.00000000000E+00 -0.00000000000E+00 -0.65883980832E+02  0.65883980832E+02  0.00000000000E+00 0.  1.
         25    2    1    2    0    0 -0.10713300941E+03 -0.64727500965E+02  0.13124076152E+03  0.22030243014E+03  0.12506755037E+03 0.  0.
          5    1    3    3  502    0 -0.83083015806E+02 -0.40642076954E+02  0.86303189921E+01  0.92986669692E+02  0.41800000000E+01 0. -1.
         -5    1    3    3    0  502 -0.24049993605E+02 -0.24085424012E+02  0.12261044253E+03  0.12731576045E+03  0.41800000000E+01 0. -1.
        -11    1    1    2    0    0  0.10489681555E+03  0.81907101126E+02  0.20094242035E+03  0.24101861219E+03  0.00000000000E+00 0.  1.
         11    1    1    2    0    0  0.22361938597E+01 -0.17179600160E+02  0.55743443010E+02  0.58373544206E+02  0.00000000000E+00 0. -1.
</event>
<event>
 7    1  0.2842702E-009  0.2063700E+03  0.7561462E-02  0.1144473E+00
          2   -1    0    0  501    0  0.00000000000E+00  0.00000000000E+00  0.20767260883E+04  0.20767260883E+04  0.00000000000E+00 0. -1.
         -2   -1    0    0    0  501 -0.00000000000E+00 -0.00000000000E+00 -0.21228570681E+02  0.21228570681E+02  0.00000000000E+00 0.  1.
         25    2    1    2    0    0 -0.24436127478E+01  0.17688218325E+03  0.12571883391E+04  0.12757206724E+04  0.12508971210E+03 0.  0.
          5    1    3    3  502    0  0.38999372239E+02  0.48242318792E+01  0.24566600642E+03  0.24882420171E+03  0.41800000000E+01 0.  1.
         -5    1    3    3    0  502 -0.41442984987E+02  0.17205795138E+03  0.10115223326E+04  0.10268964707E+04  0.41800000000E+01 0.  1.
        -11    1    1    2    0    0 -0.29582685883E+02 -0.15404289751E+03  0.60853669067E+03  0.62842760400E+03  0.00000000000E+00 0.  1.
         11    1    1    2    0    0  0.32026298631E+02 -0.22839285745E+02  0.18977248787E+03  0.19380638259E+03  0.00000000000E+00 0. -1.
</event>
<event>
 6    1  0.2842702E-009  0.1113300E+03  0.7561462E-02  0.1258127E+00
         -1   -1    0    0    0  501 -0.00000000000E+00  0.00000000000E+00  0.72080566415E+02  0.72080566415E+02  0.00000000000E+00 0.  1.
          1   -1    0    0  501    0  0.00000000000E+00 -0.00000000000E+00 -0.23748139485E+03  0.23748139485E+03  0.00000000000E+00 0. -1.
          5    1    1    2  502    0  0.18612535732E+02 -0.60600275534E+02 -0.39811782184E+02  0.74975131089E+02  0.41800000000E+01 0. -1.
         -5    1    1    2    0  502  0.38973536788E+02  0.62711205829E+02 -0.52603674426E+02  0.90753792590E+02  0.41800000000E+01 0. -1.
        -11    1    1    2    0    0 -0.67035151677E+02 -0.15484060931E+02  0.23852283755E+00  0.68800614797E+02  0.00000000000E+00 0.  1.
         11    1    1    2    0    0  0.94490791567E+01  0.13373130637E+02 -0.73223894664E+02  0.75032422790E+02  0.00000000000E+00 0. -1.
</event>
<event>
 7    1  0.2842702E-009  0.1119089E+03  0.7561462E-02  0.1257075E+00
         -1   -1    0    0    0  501 -0.00000000000E+00  0.00000000000E+00  0.64388436309E+02  0.64388436309E+02  0.00000000000E+00 0.  1.
          1   -1    0    0  501    0  0.00000000000E+00 -0.00000000000E+00 -0.35144639765E+03  0.35144639765E+03  0.00000000000E+00 0. -1.
         25    2    1    2    0    0 -0.67648816589E+02 -0.78169045845E+02 -0.12208284597E+03  0.20306864374E+03  0.12508353479E+03 0.  0.
          5    1    3    3  502    0  0.76013634024E+01 -0.93636307713E+01 -0.97192178242E+02  0.98026783167E+02  0.41800000000E+01 0.  1.
         -5    1    3    3    0  502 -0.75250179992E+02 -0.68805415074E+02 -0.24890667726E+02  0.10504186057E+03  0.41800000000E+01 0.  1.
        -11    1    1    2    0    0  0.47621867587E+02  0.74832369732E+02 -0.17008989892E+03  0.19182882877E+03  0.00000000000E+00 0. -1.
         11    1    1    2    0    0  0.20026949002E+02  0.33366761127E+01  0.51147835460E+01  0.20937361451E+02  0.00000000000E+00 0.  1.
</event>
<event>
 7    1  0.2842702E-009  0.7723280E+02  0.7561462E-02  0.1337093E+00
          3   -1    0    0  501    0  0.00000000000E+00  0.00000000000E+00  0.34156607015E+02  0.34156607015E+02  0.00000000000E+00 0. -1.
         -3   -1    0    0    0  501 -0.00000000000E+00 -0.00000000000E+00 -0.43489108677E+03  0.43489108677E+03  0.00000000000E+00 0.  1.
         25    2    1    2    0    0  0.21875001245E+01 -0.42997795095E+02 -0.29356085229E+03  0.32199233974E+03  0.12508995689E+03 0.  0.
          5    1    3    3  502    0  0.38066019997E+02 -0.26510018176E+02 -0.29874389957E+02  0.55333123149E+02  0.41800000000E+01 0. -1.
         -5    1    3    3    0  502 -0.35878519873E+02 -0.16487776920E+02 -0.26368646233E+03  0.26665921659E+03  0.41800000000E+01 0. -1.
        -11    1    1    2    0    0  0.14490609063E+02 -0.65516009613E+01 -0.90928388842E+02  0.92308575569E+02  0.00000000000E+00 0.  1.
         11    1    1    2    0    0 -0.16678109188E+02  0.49549396057E+02 -0.16245238625E+02  0.54746778477E+02  0.00000000000E+00 0. -1.
</event>
<event>
 7    1  0.4176573E-009  0.1070175E+03  0.7561462E-02  0.1266195E+00
          1   -1    0    0  501    0  0.00000000000E+00  0.00000000000E+00  0.57906223655E+03  0.57906223655E+03  0.00000000000E+00 0. -1.
         -1   -1    0    0    0  501 -0.00000000000E+00 -0.00000000000E+00 -0.26846728470E+02  0.26846728470E+02  0.00000000000E+00 0.  1.
         25    2    1    2    0    0  0.28340945040E+02  0.40928761842E+02  0.39196349502E+03  0.41443828413E+03  0.12508132239E+03 0.  0.
          5    1    3    3  502    0  0.44143094198E+02 -0.33321926970E+02  0.21064627368E+03  0.21782628077E+03  0.41800000000E+01 0.  1.
         -5    1    3    3    0  502 -0.15802149158E+02  0.74250688812E+02  0.18131722134E+03  0.19661200335E+03  0.41800000000E+01 0.  1.
        -11    1    1    2    0    0  0.21668569813E+02 -0.12525027998E+02  0.44869433499E+01  0.25427070313E+02  0.00000000000E+00 0.  1.
         11    1    1    2    0    0 -0.50009514853E+02 -0.28403733844E+02  0.15576506971E+03  0.16604361058E+03  0.00000000000E+00 0. -1.
</event>
<event>
 7    1  0.2842702E-009  0.1310299E+03  0.7561462E-02  0.1225936E+00
          2   -1    0    0  501    0  0.00000000000E+00  0.00000000000E+00  0.18156952251E+03  0.18156952251E+03  0.00000000000E+00 0. -1.
         -2   -1    0    0    0  501 -0.00000000000E+00 -0.00000000000E+00 -0.13241756694E+03  0.13241756694E+03  0.00000000000E+00 0.  1.
         25    2    1    2    0    0  0.10269530354E+03  0.35279287724E+02  0.10215482251E+02  0.16594704624E+03  0.12507242929E+03 0.  0.
          5    1    3    3  502    0  0.11543224554E+03  0.23820650341E+02  0.45571603412E+02  0.12643682268E+03  0.41800000000E+01 0. -1.
         -5    1    3    3    0  502 -0.12736942000E+02  0.11458637383E+02 -0.35356121161E+02  0.39510223560E+02  0.41800000000E+01 0. -1.
        -11    1    1    2    0    0 -0.43975883770E+02  0.17694727490E+02 -0.17880451191E+02  0.50662533189E+02  0.00000000000E+00 0.  1.
         11    1    1    2    0    0 -0.58719419769E+02 -0.52974015214E+02  0.56816924512E+02  0.97377510016E+02  0.00000000000E+00 0. -1.
</event>
<event>
 7    1  0.2842702E-009  0.9964969E+02  0.7561462E-02  0.1281034E+00
         -1   -1    0    0    0  501 -0.00000000000E+00  0.00000000000E+00  0.15371690491E+02  0.15371690491E+02  0.00000000000E+00 0.  1.
          1   -1    0    0  501    0  0.00000000000E+00 -0.00000000000E+00 -0.10164031745E+04  0.10164031745E+04  0.00000000000E+00 0. -1.
         25    2    1    2    0    0  0.47563166133E+02  0.31057345686E+02 -0.62776147611E+03  0.64261870959E+03  0.12509005367E+03 0.  0.
          5    1    3    3  502    0 -0.50504374473E+01 -0.17304397859E+02 -0.45809606386E+03  0.45846965574E+03  0.41800000000E+01 0.  1.
         -5    1    3    3    0  502  0.52613603581E+02  0.48361743545E+02 -0.16966541225E+03  0.18414905385E+03  0.41800000000E+01 0.  1.
        -11    1    1    2    0    0 -0.43748770337E+01 -0.58092353260E+02 -0.22294868911E+03  0.23043432694E+03  0.00000000000E+00 0. -1.
         11    1    1    2    0    0 -0.43188289100E+02  0.27035007573E+02 -0.15032131882E+03  0.15872182850E+03  0.00000000000E+00 0.  1.
</event>
<event>
 7    1  0.2842702E-009  0.1118510E+03  0.7561462E-02  0.1257180E+00
         -1   -1    0    0    0  501 -0.00000000000E+00  0.00000000000E+00  0.11107450616E+02  0.11107450616E+02  0.00000000000E+00 0.  1.
          1   -1    0    0  501    0  0.00000000000E+00 -0.00000000000E+00 -0.15226458486E+04  0.15226458486E+04  0.00000000000E+00 0. -1.
         25    2    1    2    0    0 -0.18730716631E+02  0.30335176988E+02 -0.12012322263E+04  0.12082545937E+04  0.12509691923E+03 0.  0.
          5    1    3    3  502    0 -0.64227228955E+02 -0.11590468992E+02 -0.73768282088E+03  0.74057605453E+03  0.41800000000E+01 0.  1.
         -5    1    3    3    0  502  0.45496512324E+02  0.41925645980E+02 -0.46354940537E+03  0.46767853922E+03  0.41800000000E+01 0.  1.
        -11    1    1    2    0    0 -0.52628291350E+01 -0.58817586986E+02 -0.15712780938E+03  0.16785813769E+03  0.00000000000E+00 0.  1.
         11    1    1    2    0    0  0.23993545766E+02  0.28482409999E+02 -0.15317836239E+03  0.15764056782E+03  0.00000000000E+00 0. -1.
</event>
<event>
 7    1  0.2842702E-009  0.1325835E+03  0.7561462E-02  0.1223672E+00
         -2   -1    0    0    0  501 -0.00000000000E+00  0.00000000000E+00  0.89451392574E+01  0.89451392574E+01  0.00000000000E+00 0.  1.
          2   -1    0    0  501    0  0.00000000000E+00 -0.00000000000E+00 -0.23793756335E+04  0.23793756335E+04  0.00000000000E+00 0. -1.
         25    2    1    2    0    0 -0.22042403187E+02 -0.75221385565E+02 -0.17577857026E+04  0.17639736914E+04  0.12509389807E+03 0.  0.
          5    1    3    3  502    0  0.37904771061E+02  0.11595919727E+02 -0.62853251615E+03  0.62979507245E+03  0.41800000000E+01 0. -1.
         -5    1    3    3    0  502 -0.59947174247E+02 -0.86817305293E+02 -0.11292531864E+04  0.11341786189E+04  0.41800000000E+01 0. -1.
        -11    1    1    2    0    0  0.42827855317E+01 -0.21225978868E+02 -0.88832751509E+02  0.91433813064E+02  0.00000000000E+00 0.  1.
         11    1    1    2    0    0  0.17759617655E+02  0.96447364433E+02 -0.52381204021E+03  0.53291326836E+03  0.00000000000E+00 0. -1.
</event>
<event>
 7    1  0.2842702E-009  0.1635678E+03  0.7561462E-02  0.1184727E+00
          2   -1    0    0  501    0  0.00000000000E+00  0.00000000000E+00  0.59959325774E+03  0.59959325774E+03  0.00000000000E+00 0. -1.
         -2   -1    0    0    0  501 -0.00000000000E+00 -0.00000000000E+00 -0.53643275377E+02  0.53643275377E+02  0.00000000000E+00 0.  1.
         25    2    1    2    0    0 -0.36683677644E+02  0.12970739672E+03  0.37057134178E+03  0.41369138362E+03  0.12509092917E+03 0.  0.
          5    1    3    3  502    0 -0.60138923375E+02  0.12818650157E+02  0.16329355040E+03  0.17453728512E+03  0.41800000000E+01 0.  1.
         -5    1    3    3    0  502  0.23455245732E+02  0.11688874657E+03  0.20727779138E+03  0.23915409850E+03  0.41800000000E+01 0.  1.
        -11    1    1    2    0    0 -0.12820566747E+02 -0.87663268489E+01 -0.54318513476E+01  0.16453584023E+02  0.00000000000E+00 0.  1.
         11    1    1    2    0    0  0.49504244390E+02 -0.12094106987E+03  0.18081049193E+03  0.22309156548E+03  0.00000000000E+00 0. -1.
</event>
<event>
 7    1  0.2842702E-009  0.8047942E+02  0.7561462E-02  0.1327696E+00
          2   -1    0    0  501    0  0.00000000000E+00  0.00000000000E+00  0.67226042996E+03  0.67226042996E+03  0.00000000000E+00 0. -1.
         -2   -1    0    0    0  501 -0.00000000000E+00 -0.00000000000E+00 -0.25940893313E+02  0.25940893313E+02  0.00000000000E+00 0.  1.
         25    2    1    2    0    0  0.95182329409E+01 -0.51214305563E+02  0.50126954541E+03  0.51926081076E+03  0.12508849100E+03 0.  0.
          5    1    3    3  502    0 -0.22628703539E+02 -0.27823217006E+02  0.31862831040E+02  0.48154979289E+02  0.41800000000E+01 0. -1.
         -5    1    3    3    0  502  0.32146936480E+02 -0.23391088557E+02  0.46940671437E+03  0.47110583147E+03  0.41800000000E+01 0. -1.
        -11    1    1    2    0    0 -0.37994729334E+02  0.37064014870E+02  0.13582972407E+03  0.14583228242E+03  0.00000000000E+00 0. -1.
         11    1    1    2    0    0  0.28476496393E+02  0.14150290693E+02  0.92202671713E+01  0.33108230098E+02  0.00000000000E+00 0.  1.
</event>
<event>
 7    1  0.2842702E-009  0.1387388E+03  0.7561462E-02  0.1215036E+00
         -1   -1    0    0    0  501 -0.00000000000E+00  0.00000000000E+00  0.63818368571E+02  0.63818368571E+02  0.00000000000E+00 0.  1.
          1   -1    0    0  501    0  0.00000000000E+00 -0.00000000000E+00 -0.41603167945E+03  0.41603167945E+03  0.00000000000E+00 0. -1.
         25    2    1    2    0    0 -0.69759555360E+02  0.79513135495E+02 -0.10040191060E+03  0.19213592357E+03  0.12508771000E+03 0.  0.
          5    1    3    3  502    0 -0.52524382441E+02  0.11180122565E+03 -0.92712837459E+02  0.15450393987E+03  0.41800000000E+01 0. -1.
         -5    1    3    3    0  502 -0.17235172918E+02 -0.32288090151E+02 -0.76890731454E+01  0.37631983696E+02  0.41800000000E+01 0. -1.
        -11    1    1    2    0    0  0.60886763456E+02 -0.86479536273E+02 -0.25493972963E+03  0.27600756131E+03  0.00000000000E+00 0. -1.
         11    1    1    2    0    0  0.88727919032E+01  0.69664007779E+01  0.31283293546E+01  0.11706563138E+02  0.00000000000E+00 0.  1.
</event>
<event>
 7    1  0.2842702E-009  0.1482742E+03  0.7561462E-02  0.1202610E+00
          1   -1    0    0  501    0  0.00000000000E+00  0.00000000000E+00  0.38630124525E+03  0.38630124525E+03  0.00000000000E+00 0. -1.
         -1   -1    0    0    0  501 -0.00000000000E+00 -0.00000000000E+00 -0.88643986748E+02  0.88643986748E+02  0.00000000000E+00 0.  1.
         25    2    1    2    0    0 -0.51952184039E+02 -0.10433032628E+03  0.35693020750E+02  0.17465860641E+03  0.12509112940E+03 0.  0.
          5    1    3    3  502    0  0.83616762626E+01  0.14827415871E+02 -0.22832861389E+02  0.28785097716E+02  0.41800000000E+01 0. -1.
         -5    1    3    3    0  502 -0.60313860302E+02 -0.11915774215E+03  0.58525882139E+02  0.14587350869E+03  0.41800000000E+01 0. -1.
        -11    1    1    2    0    0  0.42166453453E+02  0.15897361147E+01  0.95780354143E+02  0.10466333311E+03  0.00000000000E+00 0. -1.
         11    1    1    2    0    0  0.97857305857E+01  0.10274059016E+03  0.16618388361E+03  0.19562329249E+03  0.00000000000E+00 0.  1.
</event>
<event>
 7    1  0.2842702E-009  0.1174766E+03  0.7561462E-02  0.1247319E+00
         -2   -1    0    0    0  501 -0.00000000000E+00  0.00000000000E+00  0.68198835505E+03  0.68198835505E+03  0.00000000000E+00 0.  1.
          2   -1    0    0  501    0  0.00000000000E+00 -0.00000000000E+00 -0.23184531859E+02  0.23184531859E+02  0.00000000000E+00 0. -1.
         25    2    1    2    0    0 -0.46792197294E+02  0.40299769160E+02  0.33586905612E+03  0.36369037605E+03  0.12509630550E+03 0.  0.
          5    1    3    3  502    0 -0.20374565009E+02  0.78879712073E+02  0.13781359931E+03  0.16014740844E+03  0.41800000000E+01 0. -1.
         -5    1    3    3    0  502 -0.26417632285E+02 -0.38579942913E+02  0.19805545680E+03  0.20354296760E+03  0.41800000000E+01 0. -1.
        -11    1    1    2    0    0 -0.14863606672E+02 -0.42207000334E+02  0.89888492541E+02  0.10041065069E+03  0.00000000000E+00 0. -1.
         11    1    1    2    0    0  0.61655803966E+02  0.19072311745E+01  0.23304627454E+03  0.24107186017E+03  0.00000000000E+00 0.  1.
</event>
<event>
 7    1  0.2842702E-009  0.9869315E+02  0.7561462E-02  0.1283068E+00
         -2   -1    0    0    0  501 -0.00000000000E+00  0.00000000000E+00  0.19298618531E+03  0.19298618531E+03  0.00000000000E+00 0.  1.
          2   -1    0    0  501    0  0.00000000000E+00 -0.00000000000E+00 -0.90355494068E+02  0.90355494068E+02  0.00000000000E+00 0. -1.
         25    2    1    2    0    0 -0.78308158869E+00 -0.39013488255E+02 -0.11523392857E+02  0.13153563268E+03  0.12508464574E+03 0.  0.
          5    1    3    3  502    0 -0.39964054829E+02  0.24966184699E+02  0.18259835629E+02  0.50708283879E+02  0.41800000000E+01 0. -1.
         -5    1    3    3    0  502  0.39180973240E+02 -0.63979672953E+02 -0.29783228486E+02  0.80827348802E+02  0.41800000000E+01 0. -1.
        -11    1    1    2    0    0 -0.27384382433E+02  0.37889965399E+02  0.11443366820E+03  0.12361479805E+03  0.00000000000E+00 0.  1.
         11    1    1    2    0    0  0.28167464022E+02  0.11235228562E+01 -0.27958410039E+00  0.28191248647E+02  0.00000000000E+00 0. -1.
</event>
<event>
 7    1  0.2842702E-009  0.8286738E+02  0.7561462E-02  0.1321106E+00
         -2   -1    0    0    0  501 -0.00000000000E+00  0.00000000000E+00  0.12873434782E+03  0.12873434782E+03  0.00000000000E+00 0.  1.
          2   -1    0    0  501    0  0.00000000000E+00 -0.00000000000E+00 -0.96806898368E+02  0.96806898368E+02  0.00000000000E+00 0. -1.
         25    2    1    2    0    0 -0.94339128720E+01 -0.19246545226E+02  0.30051382951E+01  0.12695242620E+03  0.12509380259E+03 0.  0.
          5    1    3    3  502    0 -0.82331517623E+01 -0.68056486718E+02 -0.21762668101E+02  0.72045515441E+02  0.41800000000E+01 0.  1.
         -5    1    3    3    0  502 -0.12007611097E+01  0.48809941492E+02  0.24767806396E+02  0.54906910761E+02  0.41800000000E+01 0.  1.
        -11    1    1    2    0    0 -0.12023613062E+02 -0.71848061062E+01  0.54331175286E+02  0.56107622636E+02  0.00000000000E+00 0.  1.
         11    1    1    2    0    0  0.21457525934E+02  0.26431351332E+02 -0.25408864126E+02  0.42481197354E+02  0.00000000000E+00 0. -1.
</event>
<event>
 7    1  0.2842702E-009  0.8714823E+02  0.7561462E-02  0.1309908E+00
         -1   -1    0    0    0  501 -0.00000000000E+00  0.00000000000E+00  0.89806474902E+02  0.89806474902E+02  0.00000000000E+00 0.  1.
          1   -1    0    0  501    0  0.00000000000E+00 -0.00000000000E+00 -0.13686542173E+03  0.13686542173E+03  0.00000000000E+00 0. -1.
         25    2    1    2    0    0  0.48852302206E+01  0.26555333945E+02 -0.28567703886E+02  0.13111142542E+03  0.12508013805E+03 0.  0.
          5    1    3    3  502    0  0.39910803601E+01  0.56262014458E+02 -0.63514067807E+02  0.85046176884E+02  0.41800000000E+01 0.  1.
         -5    1    3    3    0  502  0.89414986050E+00 -0.29706680513E+02  0.34946363920E+02  0.46065248532E+02  0.41800000000E+01 0.  1.
        -11    1    1    2    0    0  0.16497594437E+02 -0.51962225292E+02 -0.27627783773E+02  0.61119047078E+02  0.00000000000E+00 0. -1.
         11    1    1    2    0    0 -0.21382824657E+02  0.25406891347E+02  0.91365408318E+01  0.34441424138E+02  0.00000000000E+00 0.  1.
</event>
<event>
 7    1  0.2842702E-009  0.1108241E+03  0.7561462E-02  0.1259051E+00
         -2   -1    0    0    0  501 -0.00000000000E+00  0.00000000000E+00  0.21040296978E+02  0.21040296978E+02  0.00000000000E+00 0.  1.
          2   -1    0    0  501    0  0.00000000000E+00 -0.00000000000E+00 -0.80473216178E+03  0.80473216178E+03  0.00000000000E+00 0. -1.
         25    2    1    2    0    0  0.21854089304E+02  0.65472737329E+02 -0.37084829933E+03  0.39741950888E+03  0.12509805901E+03 0.  0.
          5    1    3    3  502    0  0.42861265292E+02  0.69684439866E+00 -0.37335271687E+02  0.56999724267E+02  0.41800000000E+01 0. -1.
         -5    1    3    3    0  502 -0.21007175987E+02  0.64775892930E+02 -0.33351302765E+03  0.34041978461E+03  0.41800000000E+01 0. -1.
        -11    1    1    2    0    0  0.33202919673E+02 -0.30790794751E+02 -0.11744036794E+03  0.12586797423E+03  0.00000000000E+00 0. -1.
         11    1    1    2    0    0 -0.55057008978E+02 -0.34681942578E+02 -0.29540319754E+03  0.30248497565E+03  0.00000000000E+00 0.  1.
</event>
<event>
 7    1  0.2842702E-009  0.1052855E+03  0.7561462E-02  0.1269558E+00
         -4   -1    0    0    0  501 -0.00000000000E+00  0.00000000000E+00  0.10699959135E+03  0.10699959135E+03  0.00000000000E+00 0.  1.
          4   -1    0    0  501    0  0.00000000000E+00 -0.00000000000E+00 -0.11799917173E+03  0.11799917173E+03  0.00000000000E+00 0. -1.
         25    2    1    2    0    0 -0.26023338835E+02 -0.38077790603E+01 -0.18465936679E+02  0.12915016637E+03  0.12508821411E+03 0.  0.
          5    1    3    3  502    0 -0.21915303854E+02 -0.57179499417E+02 -0.37798622533E+02  0.72083173917E+02  0.41800000000E+01 0.  1.
         -5    1    3    3    0  502 -0.41080349817E+01  0.53371720357E+02  0.19332685854E+02  0.57066992453E+02  0.41800000000E+01 0.  1.
        -11    1    1    2    0    0  0.28441901377E+02  0.45543380505E+02  0.58372520045E+01  0.54011246724E+02  0.00000000000E+00 0. -1.
         11    1    1    2    0    0 -0.24185625421E+01 -0.41735601444E+02  0.16291042943E+01  0.41837349982E+02  0.00000000000E+00 0.  1.
</event>
<event>
 7    1  0.2842702E-009  0.1360917E+03  0.7561462E-02  0.1218687E+00
          2   -1    0    0  501    0  0.00000000000E+00  0.00000000000E+00  0.16310996713E+03  0.16310996713E+03  0.00000000000E+00 0. -1.
         -2   -1    0    0    0  501 -0.00000000000E+00 -0.00000000000E+00 -0.22006714833E+03  0.22006714833E+03  0.00000000000E+00 0.  1.
         25    2    1    2    0    0  0.37204307261E+02 -0.89185258601E+02 -0.15253613107E+03  0.21965651157E+03  0.12507414187E+03 0.  0.
          5    1    3    3  502    0  0.16561070346E+01  0.29025898854E+02 -0.54714472119E+02  0.62099849871E+02  0.41800000000E+01 0. -1.
         -5    1    3    3    0  502  0.35548200227E+02 -0.11821115746E+03 -0.97821658950E+02  0.15755666170E+03  0.41800000000E+01 0. -1.
        -11    1    1    2    0    0 -0.26678967203E+02  0.10042100614E+03  0.10310936850E+03  0.14638199219E+03  0.00000000000E+00 0. -1.
         11    1    1    2    0    0 -0.10525340058E+02 -0.11235747539E+02 -0.75304186303E+01  0.17138611695E+02  0.00000000000E+00 0.  1.
</event>
<event>
 7    1  0.2842702E-009  0.1084354E+03  0.7561462E-02  0.1263495E+00
         -1   -1    0    0    0  501 -0.00000000000E+00  0.00000000000E+00  0.15895264375E+03  0.15895264375E+03  0.00000000000E+00 0.  1.
          1   -1    0    0  501    0  0.00000000000E+00 -0.00000000000E+00 -0.11675783554E+03  0.11675783554E+03  0.00000000000E+00 0. -1.
         25    2    1    2    0    0 -0.22297187210E+02  0.36069379447E+02  0.94917410464E+02  0.16265021310E+03  0.12509041659E+03 0.  0.
          5    1    3    3  502    0  0.32223428146E+02 -0.27125343747E+02  0.56704563654E+02  0.70760253914E+02  0.41800000000E+01 0. -1.
         -5    1    3    3    0  502 -0.54520615356E+02  0.63194723194E+02  0.38212846810E+02  0.91889959189E+02  0.41800000000E+01 0. -1.
        -11    1    1    2    0    0 -0.21771707908E+02 -0.41210497260E+02 -0.34198794857E+01  0.46733370576E+02  0.00000000000E+00 0.  1.
         11    1    1    2    0    0  0.44068895119E+02  0.51411178132E+01 -0.49302722769E+02  0.66326895614E+02  0.00000000000E+00 0. -1.
</event>
<event>
 7    1  0.2842702E-009  0.1492056E+03  0.7561462E-02  0.1201453E+00
          1   -1    0    0  501    0  0.00000000000E+00  0.00000000000E+00  0.42811849916E+03  0.42811849916E+03  0.00000000000E+00 0. -1.
         -1   -1    0    0    0  501 -0.00000000000E+00 -0.00000000000E+00 -0.66616316149E+02  0.66616316149E+02  0.00000000000E+00 0.  1.
         25    2    1    2    0    0 -0.96766855101E+01  0.12810401195E+03  0.17257886326E+03  0.24886742735E+03  0.12508899325E+03 0.  0.
          5    1    3    3  502    0 -0.18881951744E+02  0.13246060685E+03  0.18746437880E+03  0.23035343755E+03  0.41800000000E+01 0.  1.
         -5    1    3    3    0  502  0.92052662341E+01 -0.43565949074E+01 -0.14885515540E+02  0.18513989806E+02  0.41800000000E+01 0.  1.
        -11    1    1    2    0    0  0.19150076281E+02  0.52428709857E+01  0.46350016574E+02  0.50423577363E+02  0.00000000000E+00 0. -1.
         11    1    1    2    0    0 -0.94733907710E+01 -0.13334688293E+03  0.14257330317E+03  0.19544381059E+03  0.00000000000E+00 0.  1.
</event>
<event>
 7    1  0.2842702E-009  0.2226697E+03  0.7561462E-02  0.1131908E+00
          2   -1    0    0  501    0  0.00000000000E+00  0.00000000000E+00  0.58013759525E+03  0.58013759525E+03  0.00000000000E+00 0. -1.
         -2   -1    0    0    0  501 -0.00000000000E+00 -0.00000000000E+00 -0.92753478180E+02  0.92753478180E+02  0.00000000000E+00 0.  1.
         25    2    1    2    0    0  0.43892754296E+02  0.19181510662E+03  0.33096178408E+03  0.40484943372E+03  0.12509097673E+03 0.  0.
          5    1    3    3  502    0  0.87757621324E+02  0.12540376133E+03  0.20697352944E+03  0.25745488487E+03  0.41800000000E+01 0. -1.
         -5    1    3    3    0  502 -0.43864867028E+02  0.66411345289E+02  0.12398825464E+03  0.14739454885E+03  0.41800000000E+01 0. -1.
        -11    1    1    2    0    0 -0.64245916538E+02 -0.17396938175E+03  0.11390915250E+03  0.21764231803E+03  0.00000000000E+00 0.  1.
         11    1    1    2    0    0  0.20353162243E+02 -0.17845724870E+02  0.42513180503E+02  0.50399321681E+02  0.00000000000E+00 0. -1.
</event>
<event>
 7    1  0.2842702E-009  0.1989427E+03  0.7561462E-02  0.1150634E+00
         -1   -1    0    0    0  501 -0.00000000000E+00  0.00000000000E+00  0.35160742228E+03  0.35160742228E+03  0.00000000000E+00 0.  1.
          1   -1    0    0  501    0  0.00000000000E+00 -0.00000000000E+00 -0.11585750646E+03  0.11585750646E+03  0.00000000000E+00 0. -1.
         25    2    1    2    0    0  0.15371838872E+03  0.63363548521E+02  0.16211587546E+03  0.26376763945E+03  0.12509008047E+03 0.  0.
          5    1    3    3  502    0  0.12860308628E+03 -0.11231306943E+02  0.96976322760E+02  0.16151401064E+03  0.41800000000E+01 0. -1.
         -5    1    3    3    0  502  0.25115302433E+02  0.74594855464E+02  0.65139552701E+02  0.10225362881E+03  0.41800000000E+01 0. -1.
        -11    1    1    2    0    0 -0.76970548199E+02  0.16952382575E+02  0.31937505762E+02  0.85040301265E+02  0.00000000000E+00 0.  1.
         11    1    1    2    0    0 -0.76747840518E+02 -0.80315931096E+02  0.41696534598E+02  0.11865698803E+03  0.00000000000E+00 0. -1.
</event>
<event>
 7    1  0.2842702E-009  0.1948153E+03  0.7561462E-02  0.1154189E+00
         -1   -1    0    0    0  501 -0.00000000000E+00  0.00000000000E+00  0.64399372989E+02  0.64399372989E+02  0.00000000000E+00 0.  1.
          1   -1    0    0  501    0  0.00000000000E+00 -0.00000000000E+00 -0.65855884350E+03  0.65855884350E+03  0.00000000000E+00 0. -1.
         25    2    1    2    0    0  0.14255636803E+03  0.10081327962E+03 -0.31074465668E+03  0.37775057235E+03  0.12509043866E+03 0.  0.
          5    1    3    3  502    0  0.41635145532E+02  0.81620129224E+02 -0.22805691680E+03  0.24581041585E+03  0.41800000000E+01 0.  1.
         -5    1    3    3    0  502  0.10092122250E+03  0.19193150399E+02 -0.82687739875E+02  0.13194015651E+03  0.41800000000E+01 0.  1.
        -11    1    1    2    0    0 -0.12174047680E+03 -0.35897728830E+02 -0.20690832931E+03  0.24273534428E+03  0.00000000000E+00 0. -1.
         11    1    1    2    0    0 -0.20815891228E+02 -0.64915550793E+02 -0.76506484522E+02  0.10247229985E+03  0.00000000000E+00 0.  1.
</event>
<event>
 7    1  0.2842702E-009  0.1107511E+03  0.7561462E-02  0.1259185E+00
         -1   -1    0    0    0  501 -0.00000000000E+00  0.00000000000E+00  0.16713249036E+02  0.16713249036E+02  0.00000000000E+00 0.  1.
          1   -1    0    0  501    0  0.00000000000E+00 -0.00000000000E+00 -0.89115738606E+03  0.89115738606E+03  0.00000000000E+00 0. -1.
         25    2    1    2    0    0  0.45249690969E+01  0.29106956675E+02 -0.66494781895E+03  0.67725211246E+03  0.12508849520E+03 0.  0.
          5    1    3    3  502    0 -0.52505830442E+02 -0.14849063195E+02 -0.23429664131E+03  0.24060287912E+03  0.41800000000E+01 0. -1.
         -5    1    3    3    0  502  0.57030799539E+02  0.43956019870E+02 -0.43065117764E+03  0.43664923335E+03  0.41800000000E+01 0. -1.
        -11    1    1    2    0    0  0.72954109007E+01  0.31790798560E+02 -0.52457202015E+02  0.61770834028E+02  0.00000000000E+00 0.  1.
         11    1    1    2    0    0 -0.11820379998E+02 -0.60897755235E+02 -0.15703911606E+03  0.16884768861E+03  0.00000000000E+00 0. -1.
</event>
<event>
 7    1  0.2842702E-009  0.2213775E+03  0.7561462E-02  0.1132860E+00
         -2   -1    0    0    0  501 -0.00000000000E+00  0.00000000000E+00  0.36575250595E+03  0.36575250595E+03  0.00000000000E+00 0.  1.
          2   -1    0    0  501    0  0.00000000000E+00 -0.00000000000E+00 -0.14498068284E+03  0.14498068284E+03  0.00000000000E+00 0. -1.
         25    2    1    2    0    0  0.87885723099E+02  0.18132766579E+03  0.85911211264E+02  0.25225232274E+03  0.12508747099E+03 0.  0.
          5    1    3    3  502    0 -0.12654189245E+02 -0.12804862974E+02  0.56623535889E+01  0.19329450830E+02  0.41800000000E+01 0.  1.
         -5    1    3    3    0  502  0.10053991234E+03  0.19413252877E+03  0.80248857675E+02  0.23292287191E+03  0.41800000000E+01 0.  1.
        -11    1    1    2    0    0 -0.90242807136E+02 -0.15636428266E+03  0.14487705836E+03  0.23147983750E+03  0.00000000000E+00 0.  1.
         11    1    1    2    0    0  0.23570840364E+01 -0.24963383129E+02 -0.10016446511E+02  0.27001028556E+02  0.00000000000E+00 0. -1.
</event>
<event>
 7    1  0.2842702E-009  0.1777483E+03  0.7561462E-02  0.1170000E+00
          2   -1    0    0  501    0  0.00000000000E+00  0.00000000000E+00  0.18219967069E+04  0.18219967069E+04  0.00000000000E+00 0. -1.
         -2   -1    0    0    0  501 -0.00000000000E+00 -0.00000000000E+00 -0.23872745600E+02  0.23872745600E+02  0.00000000000E+00 0.  1.
         25    2    1    2    0    0 -0.85746985616E+02 -0.13784417081E+03  0.12638510061E+04  0.12803593660E+04  0.12508868617E+03 0.  0.
          5    1    3    3  502    0  0.15896730774E+02 -0.37461968658E+02  0.10433183114E+03  0.11206564387E+03  0.41800000000E+01 0. -1.
         -5    1    3    3    0  502 -0.10164371639E+03 -0.10038220215E+03  0.11595191750E+04  0.11682937221E+04  0.41800000000E+01 0. -1.
        -11    1    1    2    0    0  0.52877834585E+02  0.12614629693E+03  0.49220701419E+03  0.51085878522E+03  0.00000000000E+00 0. -1.
         11    1    1    2    0    0  0.32869151031E+02  0.11697873882E+02  0.42065941000E+02  0.54651301312E+02  0.00000000000E+00 0.  1.
</event>
<event>
 7    1  0.2842702E-009  0.1040803E+03  0.7561462E-02  0.1271942E+00
         -1   -1    0    0    0  501 -0.00000000000E+00  0.00000000000E+00  0.20575446344E+02  0.20575446344E+02  0.00000000000E+00 0.  1.
          1   -1    0    0  501    0  0.00000000000E+00 -0.00000000000E+00 -0.62530281203E+03  0.62530281203E+03  0.00000000000E+00 0. -1.
         25    2    1    2    0    0  0.70895515133E+01 -0.25788050077E+02 -0.39922809094E+03  0.41921976075E+03  0.12508738520E+03 0.  0.
          5    1    3    3  502    0  0.55931629556E+02 -0.29714198651E+02 -0.31793750307E+03  0.32421136476E+03  0.41800000000E+01 0.  1.
         -5    1    3    3    0  502 -0.48842078043E+02  0.39261485741E+01 -0.81290587878E+02  0.95008395985E+02  0.41800000000E+01 0.  1.
        -11    1    1    2    0    0 -0.21381601360E+02 -0.30605227010E+02 -0.74972713270E+02  0.83754167252E+02  0.00000000000E+00 0.  1.
         11    1    1    2    0    0  0.14292049847E+02  0.56393277087E+02 -0.13052656148E+03  0.14290433038E+03  0.00000000000E+00 0. -1.
</event>
<event>
 7    1  0.2842702E-009  0.1401756E+03  0.7561462E-02  0.1213093E+00
         -2   -1    0    0    0  501 -0.00000000000E+00  0.00000000000E+00  0.33492200081E+02  0.33492200081E+02  0.00000000000E+00 0.  1.
          2   -1    0    0  501    0  0.00000000000E+00 -0.00000000000E+00 -0.81537083164E+03  0.81537083164E+03  0.00000000000E+00 0. -1.
         25    2    1    2    0    0  0.10836680273E+03 -0.59897699937E+02 -0.43815338762E+03  0.47218189604E+03  0.12508498499E+03 0.  0.
          5    1    3    3  502    0  0.72207171725E+02  0.10734578662E+02 -0.94631124068E+02  0.11958941788E+03  0.41800000000E+01 0. -1.
         -5    1    3    3    0  502  0.36159631009E+02 -0.70632278599E+02 -0.34352226355E+03  0.35259247815E+03  0.41800000000E+01 0. -1.
        -11    1    1    2    0    0 -0.78821843844E+02  0.58561979818E+02 -0.32958005986E+03  0.34389737481E+03  0.00000000000E+00 0. -1.
         11    1    1    2    0    0 -0.29544958890E+02  0.13357201188E+01 -0.14145184079E+02  0.32783760868E+02  0.00000000000E+00 0.  1.
</event>
<event>
 7    1  0.2842702E-009  0.1077796E+03  0.7561462E-02  0.1264738E+00
         -1   -1    0    0    0  501 -0.00000000000E+00  0.00000000000E+00  0.29573857537E+02  0.29573857537E+02  0.00000000000E+00 0.  1.
          1   -1    0    0  501    0  0.00000000000E+00 -0.00000000000E+00 -0.71880052830E+03  0.71880052830E+03  0.00000000000E+00 0. -1.
         25    2    1    2    0    0 -0.38980760123E+02  0.81159989662E+02 -0.46171571113E+03  0.48675999651E+03  0.12508977860E+03 0.  0.
          5    1    3    3  502    0 -0.57917724993E+01  0.50146807550E+01  0.67098045610E+01  0.11008429906E+02  0.41800000000E+01 0. -1.
         -5    1    3    3    0  502 -0.33188987624E+02  0.76145308907E+02 -0.46842551569E+03  0.47575156660E+03  0.41800000000E+01 0. -1.
        -11    1    1    2    0    0  0.38734251640E+02  0.36013172707E+01 -0.39802513377E+02  0.55655653867E+02  0.00000000000E+00 0.  1.
         11    1    1    2    0    0  0.24650848302E+00 -0.84761306933E+02 -0.18770844625E+03  0.20595873546E+03  0.00000000000E+00 0. -1.
</event>
<event>
 7    1  0.2842702E-009  0.1330718E+03  0.7561462E-02  0.1222968E+00
          2   -1    0    0  501    0  0.00000000000E+00  0.00000000000E+00  0.55689592435E+03  0.55689592435E+03  0.00000000000E+00 0. -1.
         -2   -1    0    0    0  501 -0.00000000000E+00 -0.00000000000E+00 -0.42189745280E+02  0.42189745280E+02  0.00000000000E+00 0.  1.
         25    2    1    2    0    0  0.11785332563E+03  0.14784707590E+02  0.30622678277E+03  0.35146922455E+03  0.12509108435E+03 0.  0.
          5    1    3    3  502    0 -0.82554451540E+01  0.18898798406E+02  0.14587382685E+03  0.14738372609E+03  0.41800000000E+01 0.  1.
         -5    1    3    3    0  502  0.12610877078E+03 -0.41140908157E+01  0.16035295592E+03  0.20408549846E+03  0.41800000000E+01 0.  1.
        -11    1    1    2    0    0 -0.26491894292E+02 -0.51520022129E+01  0.10863917746E+03  0.11194120988E+03  0.00000000000E+00 0.  1.
         11    1    1    2    0    0 -0.91361431335E+02 -0.96327053772E+01  0.99840218846E+02  0.13567523520E+03  0.00000000000E+00 0. -1.
</event>
<event>
 7    1  0.2842702E-009  0.1069357E+03  0.7561462E-02  0.1266352E+00
          2   -1    0    0  501    0  0.00000000000E+00  0.00000000000E+00  0.86314779686E+02  0.86314779686E+02  0.00000000000E+00 0. -1.
         -2   -1    0    0    0  501 -0.00000000000E+00 -0.00000000000E+00 -0.18795814461E+03  0.18795814461E+03  0.00000000000E+00 0.  1.
         25    2    1    2    0    0  0.43998599326E+02  0.47414818645E+02 -0.44753865110E+02  0.14776489505E+03  0.12509002357E+03 0.  0.
          5    1    3    3  502    0 -0.18167509045E+02 -0.33344758903E+02 -0.18464800797E+02  0.42430562094E+02  0.41800000000E+01 0.  1.
         -5    1    3    3    0  502  0.62166108370E+02  0.80759577548E+02 -0.26289064314E+02  0.10533433295E+03  0.41800000000E+01 0.  1.
        -11    1    1    2    0    0 -0.27752612979E+02 -0.49351560883E+01  0.21790852957E+02  0.35628704234E+02  0.00000000000E+00 0. -1.
         11    1    1    2    0    0 -0.16245986347E+02 -0.42479662557E+02 -0.78680352768E+02  0.90879325014E+02  0.00000000000E+00 0.  1.
</event>
<event>
 7    1  0.2842702E-009  0.1262026E+03  0.7561462E-02  0.1233202E+00
          2   -1    0    0  501    0  0.00000000000E+00  0.00000000000E+00  0.88237412615E+02  0.88237412615E+02  0.00000000000E+00 0. -1.
         -2   -1    0    0    0  501 -0.00000000000E+00 -0.00000000000E+00 -0.23401002030E+03  0.23401002030E+03  0.00000000000E+00 0.  1.
         25    2    1    2    0    0 -0.91732313069E+02 -0.39386493049E+01 -0.90964208926E+02  0.17985541126E+03  0.12507258466E+03 0.  0.
          5    1    3    3  502    0 -0.49742407912E+01  0.42106680649E+02  0.44756312064E+01  0.42839459630E+02  0.41800000000E+01 0. -1.
         -5    1    3    3    0  502 -0.86758072278E+02 -0.46045329954E+02 -0.95439840132E+02  0.13701595163E+03  0.41800000000E+01 0. -1.
        -11    1    1    2    0    0  0.25123456739E+02 -0.28001795953E+02 -0.57222649815E+02  0.68481532599E+02  0.00000000000E+00 0.  1.
         11    1    1    2    0    0  0.66608856330E+02  0.31940445258E+02  0.24142510570E+01  0.73910489059E+02  0.00000000000E+00 0. -1.
</event>
<event>
 7    1  0.2842702E-009  0.1206312E+03  0.7561462E-02  0.1242059E+00
          3   -1    0    0  501    0  0.00000000000E+00  0.00000000000E+00  0.62952146998E+03  0.62952146998E+03  0.00000000000E+00 0. -1.
         -3   -1    0    0    0  501 -0.00000000000E+00 -0.00000000000E+00 -0.43349954132E+02  0.43349954132E+02  0.00000000000E+00 0.  1.
         25    2    1    2    0    0  0.85005031970E+01 -0.56962535673E+02  0.89062787928E+02  0.16401570279E+03  0.12510787961E+03 0.  0.
          5    1    3    3  502    0 -0.55549941081E+02 -0.23175692817E+02  0.62225604471E+02  0.86674142300E+02  0.41800000000E+01 0. -1.
         -5    1    3    3    0  502  0.64050444278E+02 -0.33786842857E+02  0.26837183457E+02  0.77341560486E+02  0.41800000000E+01 0. -1.
        -11    1    1    2    0    0 -0.68442559847E+01  0.82508150951E+02  0.39541645629E+03  0.40399085722E+03  0.00000000000E+00 0.  1.
         11    1    1    2    0    0 -0.16562472122E+01 -0.25545615277E+02  0.10169227163E+03  0.10486486411E+03  0.00000000000E+00 0. -1.
</event>
<event>
 7    1  0.2842702E-009  0.2286112E+03  0.7561462E-02  0.1127621E+00
         -1   -1    0    0    0  501 -0.00000000000E+00  0.00000000000E+00  0.61329773248E+03  0.61329773248E+03  0.00000000000E+00 0.  1.
          1   -1    0    0  501    0  0.00000000000E+00 -0.00000000000E+00 -0.89869432717E+02  0.89869432717E+02  0.00000000000E+00 0. -1.
         25    2    1    2    0    0  0.18474980136E+03  0.94789194000E+02  0.25136442417E+03  0.34921296385E+03  0.12509252567E+03 0.  0.
          5    1    3    3  502    0  0.26622501846E+02 -0.25964658470E+02  0.72731097515E+02  0.81793679705E+02  0.41800000000E+01 0.  1.
         -5    1    3    3    0  502  0.15812729952E+03  0.12075385247E+03  0.17863332665E+03  0.26741928414E+03  0.41800000000E+01 0.  1.
        -11    1    1    2    0    0 -0.11151025935E+03 -0.15043768362E+02  0.99331871482E+02  0.15009221699E+03  0.00000000000E+00 0.  1.
         11    1    1    2    0    0 -0.73239542012E+02 -0.79745425638E+02  0.17273200412E+03  0.20386198437E+03  0.00000000000E+00 0. -1.
</event>
<event>
 7    1  0.2842702E-009  0.1850039E+03  0.7561462E-02  0.1163046E+00
          1   -1    0    0  501    0  0.00000000000E+00  0.00000000000E+00  0.12016124236E+04  0.12016124236E+04  0.00000000000E+00 0. -1.
         -1   -1    0    0    0  501 -0.00000000000E+00 -0.00000000000E+00 -0.36968587210E+02  0.36968587210E+02  0.00000000000E+00 0.  1.
         25    2    1    2    0    0  0.15957569936E+03  0.92152052172E+02  0.59173703761E+03  0.63226405562E+03  0.12509480329E+03 0.  0.
          5    1    3    3  502    0  0.63084883672E+02  0.39741668080E+02  0.43183845825E+03  0.43824768015E+03  0.41800000000E+01 0. -1.
         -5    1    3    3    0  502  0.96490815683E+02  0.52410384092E+02  0.15989857935E+03  0.19401637547E+03  0.41800000000E+01 0. -1.
        -11    1    1    2    0    0 -0.36333232816E+02 -0.31501966170E+02  0.26262392090E+03  0.26699026482E+03  0.00000000000E+00 0. -1.
         11    1    1    2    0    0 -0.12324246654E+03 -0.60650086002E+02  0.31028287791E+03  0.33932669039E+03  0.00000000000E+00 0.  1.
</event>
<event>
 7    1  0.2842702E-009  0.1117005E+03  0.7561462E-02  0.1257453E+00
         -1   -1    0    0    0  501 -0.00000000000E+00  0.00000000000E+00  0.24526137844E+02  0.24526137844E+02  0.00000000000E+00 0. -1.
          1   -1    0    0  501    0  0.00000000000E+00 -0.00000000000E+00 -0.57259819245E+03  0.57259819245E+03  0.00000000000E+00 0.  1.
         25    2    1    2    0    0  0.39631936964E+02  0.10505129081E+02 -0.36599340512E+03  0.38894829666E+03  0.12509419140E+03 0.  0.
          5    1    3    3  502    0  0.43212508100E+02  0.61142995541E+02 -0.27071653580E+03  0.28091048737E+03  0.41800000000E+01 0. -1.
         -5    1    3    3    0  502 -0.35805711358E+01 -0.50637866460E+02 -0.95276869321E+02  0.10803780929E+03  0.41800000000E+01 0. -1.
        -11    1    1    2    0    0 -0.36241888289E+02  0.35861914603E+02 -0.68028976960E+02  0.85014663982E+02  0.00000000000E+00 0.  1.
         11    1    1    2    0    0 -0.33900486752E+01 -0.46367043685E+02 -0.11404967253E+03  0.12316136965E+03  0.00000000000E+00 0. -1.
</event>
<event>
 7    1  0.2842702E-009  0.2741307E+03  0.7561462E-02  0.1098938E+00
          1   -1    0    0  501    0  0.00000000000E+00  0.00000000000E+00  0.31783878941E+03  0.31783878941E+03  0.00000000000E+00 0. -1.
         -1   -1    0    0    0  501 -0.00000000000E+00 -0.00000000000E+00 -0.25622975608E+03  0.25622975608E+03  0.00000000000E+00 0.  1.
         25    2    1    2    0    0 -0.26114921973E+03  0.29338216056E+02  0.48663207243E+02  0.29508132289E+03  0.12508090780E+03 0.  0.
          5    1    3    3  502    0 -0.90216448763E+02  0.49429616923E+02  0.65618285183E+02  0.12208819110E+03  0.41800000000E+01 0. -1.
         -5    1    3    3    0  502 -0.17093277096E+03 -0.20091400867E+02 -0.16955077941E+02  0.17299313179E+03  0.41800000000E+01 0. -1.
        -11    1    1    2    0    0  0.13824273291E+03  0.21937345640E+02  0.34296715322E+02  0.14411302862E+03  0.00000000000E+00 0. -1.
         11    1    1    2    0    0  0.12290648682E+03 -0.51275561696E+02 -0.21350889234E+02  0.13487419398E+03  0.00000000000E+00 0.  1.
</event>
<event>
 7    1  0.2842702E-009  0.1165039E+03  0.7561462E-02  0.1248978E+00
         -1   -1    0    0    0  501 -0.00000000000E+00  0.00000000000E+00  0.33825898241E+03  0.33825898241E+03  0.00000000000E+00 0.  1.
          1   -1    0    0  501    0  0.00000000000E+00 -0.00000000000E+00 -0.47632450467E+02  0.47632450467E+02  0.00000000000E+00 0. -1.
         25    2    1    2    0    0 -0.39314162434E+02  0.50155479697E+02  0.18648771807E+03  0.23342340591E+03  0.12509053490E+03 0.  0.
          5    1    3    3  502    0 -0.36570357201E+02 -0.34586390634E+02  0.41317134123E+02  0.65254788445E+02  0.41800000000E+01 0.  1.
         -5    1    3    3    0  502 -0.27438052331E+01  0.84741870330E+02  0.14517058395E+03  0.16816861746E+03  0.41800000000E+01 0.  1.
        -11    1    1    2    0    0 -0.13862299371E+02 -0.41474759778E+02  0.84454524970E+02  0.95104604675E+02  0.00000000000E+00 0.  1.
         11    1    1    2    0    0  0.53176461805E+02 -0.86807199190E+01  0.19684288904E+02  0.57363422301E+02  0.00000000000E+00 0. -1.
</event>
<event>
 7    1  0.2842702E-009  0.1138667E+03  0.7561462E-02  0.1253572E+00
         -2   -1    0    0    0  501 -0.00000000000E+00  0.00000000000E+00  0.53700942914E+02  0.53700942914E+02  0.00000000000E+00 0.  1.
          2   -1    0    0  501    0  0.00000000000E+00 -0.00000000000E+00 -0.34643604748E+03  0.34643604748E+03  0.00000000000E+00 0. -1.
         25    2    1    2    0    0  0.19259548023E+02  0.80549802083E+02 -0.13340916486E+03  0.20073347653E+03  0.12504688130E+03 0.  0.
          5    1    3    3  502    0  0.45267420678E+02  0.97007657961E+02 -0.64252369072E+02  0.12492183320E+03  0.41800000000E+01 0. -1.
         -5    1    3    3    0  502 -0.26007872655E+02 -0.16457855877E+02 -0.69156795791E+02  0.75811643329E+02  0.41800000000E+01 0. -1.
        -11    1    1    2    0    0  0.78041074560E+01 -0.40239494964E+02 -0.97336007139E+01  0.42129135179E+02  0.00000000000E+00 0.  1.
         11    1    1    2    0    0 -0.27063655479E+02 -0.40310307120E+02 -0.14959233898E+03  0.15727437869E+03  0.00000000000E+00 0. -1.
</event>
<event>
 7    1  0.2842702E-009  0.2054948E+03  0.7561462E-02  0.1145184E+00
          1   -1    0    0  501    0  0.00000000000E+00  0.00000000000E+00  0.11320528361E+03  0.11320528361E+03  0.00000000000E+00 0. -1.
         -1   -1    0    0    0  501 -0.00000000000E+00 -0.00000000000E+00 -0.38111262085E+03  0.38111262085E+03  0.00000000000E+00 0.  1.
         25    2    1    2    0    0  0.11682061388E+02  0.17204270240E+03 -0.13239157385E+03  0.25082040732E+03  0.12509270918E+03 0.  0.
          5    1    3    3  502    0  0.68016052666E+02  0.10054880877E+03 -0.67528645222E+02  0.13897423031E+03  0.41800000000E+01 0. -1.
         -5    1    3    3    0  502 -0.56333991278E+02  0.71493893638E+02 -0.64862928632E+02  0.11184617701E+03  0.41800000000E+01 0. -1.
        -11    1    1    2    0    0 -0.55131237750E+02 -0.10311837035E+03 -0.55994408989E+02  0.12964654071E+03  0.00000000000E+00 0.  1.
         11    1    1    2    0    0  0.43449176362E+02 -0.68924332054E+02 -0.79521354396E+02  0.11385095643E+03  0.00000000000E+00 0. -1.
</event>
<event>
 7    1  0.2842702E-009  0.2180813E+03  0.7561462E-02  0.1135322E+00
         -1   -1    0    0    0  501 -0.00000000000E+00  0.00000000000E+00  0.39449596067E+02  0.39449596067E+02  0.00000000000E+00 0.  1.
          1   -1    0    0  501    0  0.00000000000E+00 -0.00000000000E+00 -0.14466173679E+04  0.14466173679E+04  0.00000000000E+00 0. -1.
         25    2    1    2    0    0 -0.11987740395E+03 -0.15116656445E+03 -0.10059828264E+04  0.10319256927E+04  0.12508903244E+03 0.  0.
          5    1    3    3  502    0  0.10439903783E+02 -0.70131292849E+02 -0.22309658607E+03  0.23413019657E+03  0.41800000000E+01 0.  1.
         -5    1    3    3    0  502 -0.13031730774E+03 -0.81035271604E+02 -0.78288624037E+03  0.79779549617E+03  0.41800000000E+01 0.  1.
        -11    1    1    2    0    0  0.73712703421E+02  0.14800821171E+03 -0.33218960187E+03  0.37106593076E+03  0.00000000000E+00 0. -1.
         11    1    1    2    0    0  0.46164700532E+02  0.31583527461E+01 -0.68995343501E+02  0.83075340457E+02  0.00000000000E+00 0.  1.
</event>
<event>
 7    1  0.2842702E-009  0.6646419E+02  0.7561462E-02  0.1372547E+00
          2   -1    0    0  501    0  0.00000000000E+00  0.00000000000E+00  0.10982239611E+03  0.10982239611E+03  0.00000000000E+00 0. -1.
         -2   -1    0    0    0  501 -0.00000000000E+00 -0.00000000000E+00 -0.11382788158E+03  0.11382788158E+03  0.00000000000E+00 0.  1.
         25    2    1    2    0    0  0.28708940888E+02 -0.75162021977E+01  0.20748579384E+02  0.13024981695E+03  0.12511520566E+03 0.  0.
          5    1    3    3  502    0 -0.14258597402E+02  0.49759079515E+01 -0.46667062361E+02  0.49227577324E+02  0.41800000000E+01 0.  1.
         -5    1    3    3    0  502  0.42967538290E+02 -0.12492110149E+02  0.67415641745E+02  0.81022239629E+02  0.41800000000E+01 0.  1.
        -11    1    1    2    0    0  0.19438668623E+02 -0.89926212094E+01 -0.35423393514E+02  0.41394998274E+02  0.00000000000E+00 0.  1.
         11    1    1    2    0    0 -0.48147609510E+02  0.16508823407E+02  0.10669328665E+02  0.52005462463E+02  0.00000000000E+00 0. -1.
</event>
<event>
 7    1  0.2842702E-009  0.2635255E+03  0.7561462E-02  0.1105043E+00
         -1   -1    0    0    0  501 -0.00000000000E+00  0.00000000000E+00  0.31997880224E+03  0.31997880224E+03  0.00000000000E+00 0.  1.
          1   -1    0    0  501    0  0.00000000000E+00 -0.00000000000E+00 -0.21861637756E+03  0.21861637756E+03  0.00000000000E+00 0. -1.
         25    2    1    2    0    0  0.12896448353E+03  0.20163008032E+03  0.50575253787E+02  0.27475635345E+03  0.12508665061E+03 0.  0.
          5    1    3    3  502    0 -0.53935434686E+01  0.10262481349E+03  0.25170571734E+02  0.10588660320E+03  0.41800000000E+01 0.  1.
         -5    1    3    3    0  502  0.13435802700E+03  0.99005266826E+02  0.25404682053E+02  0.16886975025E+03  0.41800000000E+01 0.  1.
        -11    1    1    2    0    0 -0.35356425569E+02 -0.44923271049E+00 -0.31061945669E+01  0.35495451592E+02  0.00000000000E+00 0. -1.
         11    1    1    2    0    0 -0.93608057960E+02 -0.20118084761E+03  0.53893365460E+02  0.22834337477E+03  0.00000000000E+00 0.  1.
</event>
<event>
 7    1  0.2842702E-009  0.1064335E+03  0.7561462E-02  0.1267321E+00
         -3   -1    0    0    0  501 -0.00000000000E+00  0.00000000000E+00  0.10803108881E+04  0.10803108881E+04  0.00000000000E+00 0.  1.
          3   -1    0    0  501    0  0.00000000000E+00 -0.00000000000E+00 -0.10977387579E+02  0.10977387579E+02  0.00000000000E+00 0. -1.
         25    2    1    2    0    0 -0.70356484933E+01 -0.50925969308E+01  0.69190107194E+03  0.70317140813E+03  0.12508997149E+03 0.  0.
          5    1    3    3  502    0 -0.47839974886E+02 -0.44866641807E+02  0.29897514100E+03  0.30611319162E+03  0.41800000000E+01 0. -1.
         -5    1    3    3    0  502  0.40804326393E+02  0.39774044876E+02  0.39292593094E+03  0.39705821651E+03  0.41800000000E+01 0. -1.
        -11    1    1    2    0    0 -0.97914776499E+01 -0.40366980380E+02  0.19313226269E+03  0.19754856879E+03  0.00000000000E+00 0.  1.
         11    1    1    2    0    0  0.16827126143E+02  0.45459577311E+02  0.18430016586E+03  0.19056829872E+03  0.00000000000E+00 0. -1.
</event>
<event>
 7    1  0.2842702E-009  0.1107782E+03  0.7561462E-02  0.1259136E+00
          4   -1    0    0  501    0  0.00000000000E+00  0.00000000000E+00  0.22034849685E+03  0.22034849685E+03  0.00000000000E+00 0. -1.
         -4   -1    0    0    0  501 -0.00000000000E+00 -0.00000000000E+00 -0.69614037276E+02  0.69614037276E+02  0.00000000000E+00 0.  1.
         25    2    1    2    0    0  0.45470165059E+02  0.15445159008E+02  0.10842605063E+03  0.17236496856E+03  0.12508950829E+03 0.  0.
          5    1    3    3  502    0 -0.42880192407E+02  0.12415160581E+02  0.44666069736E+02  0.63288050205E+02  0.41800000000E+01 0.  1.
         -5    1    3    3    0  502  0.88350357466E+02  0.30299984266E+01  0.63759980890E+02  0.10907691836E+03  0.41800000000E+01 0.  1.
        -11    1    1    2    0    0 -0.84778768194E+01 -0.41894350155E+02 -0.14220976446E+02  0.45047165741E+02  0.00000000000E+00 0.  1.
         11    1    1    2    0    0 -0.36992288240E+02  0.26449191147E+02  0.56529385390E+02  0.72550399820E+02  0.00000000000E+00 0. -1.
</event>
<event>
 7    1  0.2842702E-009  0.8481324E+02  0.7561462E-02  0.1315922E+00
         -2   -1    0    0    0  501 -0.00000000000E+00  0.00000000000E+00  0.96492425752E+02  0.96492425752E+02  0.00000000000E+00 0.  1.
          2   -1    0    0  501    0  0.00000000000E+00 -0.00000000000E+00 -0.14826657240E+03  0.14826657240E+03  0.00000000000E+00 0. -1.
         25    2    1    2    0    0 -0.39761948226E+01  0.11318933968E+02  0.23306394894E+02  0.12780761757E+03  0.12509064983E+03 0.  0.
          5    1    3    3  502    0 -0.24493551749E+02 -0.50232182340E+02 -0.62504882644E+01  0.56389247410E+02  0.41800000000E+01 0. -1.
         -5    1    3    3    0  502  0.20517356926E+02  0.61551116309E+02  0.29556883158E+02  0.71418370159E+02  0.41800000000E+01 0. -1.
        -11    1    1    2    0    0 -0.21406167322E+02 -0.84965335303E+01  0.12164016441E+02  0.26045697868E+02  0.00000000000E+00 0.  1.
         11    1    1    2    0    0  0.25382362145E+02 -0.28224004381E+01 -0.87244557982E+02  0.90905682714E+02  0.00000000000E+00 0. -1.
</event>
<event>
 7    1  0.2842702E-009  0.1546065E+03  0.7561462E-02  0.1194924E+00
         -2   -1    0    0    0  501 -0.00000000000E+00  0.00000000000E+00  0.55477885105E+02  0.55477885105E+02  0.00000000000E+00 0.  1.
          2   -1    0    0  501    0  0.00000000000E+00 -0.00000000000E+00 -0.52867805382E+03  0.52867805382E+03  0.00000000000E+00 0. -1.
         25    2    1    2    0    0 -0.38655557752E+01  0.13118746588E+03 -0.22530897338E+03  0.28920224000E+03  0.12509479769E+03 0.  0.
          5    1    3    3  502    0 -0.36037654061E+02  0.22917683024E+02 -0.71504979655E+01  0.43503272596E+02  0.41800000000E+01 0. -1.
         -5    1    3    3    0  502  0.32172098285E+02  0.10826978285E+03 -0.21815847541E+03  0.24569896740E+03  0.41800000000E+01 0. -1.
        -11    1    1    2    0    0 -0.28730335245E+02 -0.14619691913E+02 -0.23138544350E+02  0.39680723148E+02  0.00000000000E+00 0.  1.
         11    1    1    2    0    0  0.32595891020E+02 -0.11656777396E+03 -0.22475265098E+03  0.25527297578E+03  0.00000000000E+00 0. -1.
</event>
<event>
 7    1  0.2842702E-009  0.1111622E+03  0.7561462E-02  0.1258433E+00
          2   -1    0    0  501    0  0.00000000000E+00  0.00000000000E+00  0.68749553035E+02  0.68749553035E+02  0.00000000000E+00 0. -1.
         -2   -1    0    0    0  501 -0.00000000000E+00 -0.00000000000E+00 -0.23370633502E+03  0.23370633502E+03  0.00000000000E+00 0.  1.
         25    2    1    2    0    0 -0.41213973094E+02  0.46230258253E+02 -0.73848151345E+02  0.15791348347E+03  0.12508913001E+03 0.  0.
          5    1    3    3  502    0 -0.66146373541E+01  0.80785904348E+02 -0.17207676107E+02  0.82968019656E+02  0.41800000000E+01 0. -1.
         -5    1    3    3    0  502 -0.34599335740E+02 -0.34555646095E+02 -0.56640475238E+02  0.74945463811E+02  0.41800000000E+01 0. -1.
        -11    1    1    2    0    0  0.55588047305E+02 -0.14805608951E+02 -0.93634815712E+02  0.10989411164E+03  0.00000000000E+00 0. -1.
         11    1    1    2    0    0 -0.14374074211E+02 -0.31424649302E+02  0.25261850736E+01  0.34648292947E+02  0.00000000000E+00 0.  1.
</event>
<event>
 7    1  0.2842702E-009  0.1330820E+03  0.7561462E-02  0.1222953E+00
          1   -1    0    0  501    0  0.00000000000E+00  0.00000000000E+00  0.96717960351E+03  0.96717960351E+03  0.00000000000E+00 0. -1.
         -1   -1    0    0    0  501 -0.00000000000E+00 -0.00000000000E+00 -0.23928824031E+02  0.23928824031E+02  0.00000000000E+00 0.  1.
         25    2    1    2    0    0 -0.10473315193E+03 -0.12133993220E+02  0.53205551831E+03  0.55663964407E+03  0.12509337263E+03 0.  0.
          5    1    3    3  502    0 -0.80228890543E+02 -0.45437239748E+02  0.18140330241E+03  0.20353340797E+03  0.41800000000E+01 0. -1.
         -5    1    3    3    0  502 -0.24504261390E+02  0.33303246527E+02  0.35065221590E+03  0.35310623610E+03  0.41800000000E+01 0. -1.
        -11    1    1    2    0    0  0.88273169770E+02 -0.24954535507E+02  0.20904704187E+03  0.22828829812E+03  0.00000000000E+00 0.  1.
         11    1    1    2    0    0  0.16459982164E+02  0.37088528728E+02  0.20214821929E+03  0.20618048535E+03  0.00000000000E+00 0. -1.
</event>
<event>
 7    1  0.2842702E-009  0.1798567E+03  0.7561462E-02  0.1167942E+00
          2   -1    0    0  501    0  0.00000000000E+00  0.00000000000E+00  0.87809966062E+03  0.87809966062E+03  0.00000000000E+00 0. -1.
         -2   -1    0    0    0  501 -0.00000000000E+00 -0.00000000000E+00 -0.61893333158E+02  0.61893333158E+02  0.00000000000E+00 0.  1.
         25    2    1    2    0    0  0.15027274741E+03 -0.72911171087E+02  0.65261329044E+03  0.68516336630E+03  0.12508714631E+03 0.  0.
          5    1    3    3  502    0  0.47162623713E+02  0.20812477069E+02  0.32551537921E+03  0.32959855397E+03  0.41800000000E+01 0. -1.
         -5    1    3    3    0  502  0.10311012370E+03 -0.93723648156E+02  0.32709791122E+03  0.35556481232E+03  0.41800000000E+01 0. -1.
        -11    1    1    2    0    0 -0.23698431005E+02  0.21416287719E+02  0.98346162570E+02  0.10340329155E+03  0.00000000000E+00 0. -1.
         11    1    1    2    0    0 -0.12657431641E+03  0.51494883368E+02  0.65246874456E+02  0.15142633593E+03  0.00000000000E+00 0.  1.
</event>
<event>
 7    1  0.2842702E-009  0.1696547E+03  0.7561462E-02  0.1178208E+00
         -2   -1    0    0    0  501 -0.00000000000E+00  0.00000000000E+00  0.54160948569E+02  0.54160948569E+02  0.00000000000E+00 0. -1.
          2   -1    0    0  501    0  0.00000000000E+00 -0.00000000000E+00 -0.55433310963E+03  0.55433310963E+03  0.00000000000E+00 0.  1.
         25    2    1    2    0    0  0.80366099167E+02  0.10630494364E+03 -0.28067869887E+03  0.33494502006E+03  0.12509269974E+03 0.  0.
          5    1    3    3  502    0  0.41886918837E+02  0.12772867626E+03 -0.17760109301E+03  0.22277510936E+03  0.41800000000E+01 0.  1.
         -5    1    3    3    0  502  0.38479180331E+02 -0.21423732625E+02 -0.10307760585E+03  0.11216991070E+03  0.41800000000E+01 0.  1.
        -11    1    1    2    0    0 -0.15454053604E+01 -0.76190805867E+02 -0.79741285333E+02  0.11030004426E+03  0.00000000000E+00 0. -1.
         11    1    1    2    0    0 -0.78820693807E+02 -0.30114137772E+02 -0.13975217686E+03  0.16324899388E+03  0.00000000000E+00 0.  1.
</event>
<event>
 7    1  0.2842702E-009  0.3319257E+03  0.7561462E-02  0.1070288E+00
          1   -1    0    0  501    0  0.00000000000E+00  0.00000000000E+00  0.12268664530E+04  0.12268664530E+04  0.00000000000E+00 0. -1.
         -1   -1    0    0    0  501 -0.00000000000E+00 -0.00000000000E+00 -0.94877820873E+02  0.94877820873E+02  0.00000000000E+00 0.  1.
         25    2    1    2    0    0 -0.87090086868E+02  0.30918639002E+03  0.64320278413E+03  0.72975282894E+03  0.12509381609E+03 0.  0.
          5    1    3    3  502    0  0.29506178008E+02  0.81397716961E+02  0.19974617007E+03  0.21774344474E+03  0.41800000000E+01 0.  1.
         -5    1    3    3    0  502 -0.11659626488E+03  0.22778867306E+03  0.44345661406E+03  0.51200938420E+03  0.41800000000E+01 0.  1.
        -11    1    1    2    0    0  0.80710493001E+02 -0.28259710278E+03  0.38322087946E+03  0.48294259352E+03  0.00000000000E+00 0.  1.
         11    1    1    2    0    0  0.63795938674E+01 -0.26589287239E+02  0.10556496857E+03  0.10904885145E+03  0.00000000000E+00 0. -1.
</event>
<event>
 7    1  0.2842702E-009  0.1602869E+03  0.7561462E-02  0.1188373E+00
         -2   -1    0    0    0  501 -0.00000000000E+00  0.00000000000E+00  0.51674306461E+02  0.51674306461E+02  0.00000000000E+00 0.  1.
          2   -1    0    0  501    0  0.00000000000E+00 -0.00000000000E+00 -0.81532105228E+03  0.81532105228E+03  0.00000000000E+00 0. -1.
         25    2    1    2    0    0  0.70830272397E+02  0.11075096706E+03 -0.62806519003E+03  0.65375367678E+03  0.12508110482E+03 0.  0.
          5    1    3    3  502    0  0.97183679514E+02  0.94431062408E+02 -0.58515115961E+03  0.60065068476E+03  0.41800000000E+01 0.  1.
         -5    1    3    3    0  502 -0.26353407116E+02  0.16319904653E+02 -0.42914030421E+02  0.53102992020E+02  0.41800000000E+01 0.  1.
        -11    1    1    2    0    0  0.14789787650E+02 -0.40029227629E+02 -0.68348858296E+01  0.43217965566E+02  0.00000000000E+00 0.  1.
         11    1    1    2    0    0 -0.85620060047E+02 -0.70721739432E+02 -0.12874666996E+03  0.17002371639E+03  0.00000000000E+00 0. -1.
</event>
<event>
 7    1  0.2842702E-009  0.1045804E+03  0.7561462E-02  0.1270948E+00
          1   -1    0    0  501    0  0.00000000000E+00  0.00000000000E+00  0.98072732559E+02  0.98072732559E+02  0.00000000000E+00 0. -1.
         -1   -1    0    0    0  501 -0.00000000000E+00 -0.00000000000E+00 -0.17773001138E+03  0.17773001138E+03  0.00000000000E+00 0.  1.
         25    2    1    2    0    0 -0.67437096478E+02 -0.28507417254E+02 -0.58837603443E+02  0.15642933959E+03  0.12509132618E+03 0.  0.
          5    1    3    3  502    0  0.17740626063E+02 -0.51795903016E+01 -0.65093300978E+02  0.67795045549E+02  0.41800000000E+01 0. -1.
         -5    1    3    3    0  502 -0.85177722541E+02 -0.23327826952E+02  0.62556975351E+01  0.88634294036E+02  0.41800000000E+01 0. -1.
        -11    1    1    2    0    0  0.76189846596E+02  0.45867660960E+01  0.12592265198E+02  0.77359526177E+02  0.00000000000E+00 0. -1.
         11    1    1    2    0    0 -0.87527501180E+01  0.23920651158E+02 -0.33411940577E+02  0.42013878178E+02  0.00000000000E+00 0.  1.
</event>
<event>
 7    1  0.2842702E-009  0.9687417E+02  0.7561462E-02  0.1287010E+00
          1   -1    0    0  501    0  0.00000000000E+00  0.00000000000E+00  0.16645112310E+03  0.16645112310E+03  0.00000000000E+00 0. -1.
         -1   -1    0    0    0  501 -0.00000000000E+00 -0.00000000000E+00 -0.87363750863E+02  0.87363750863E+02  0.00000000000E+00 0.  1.
         25    2    1    2    0    0  0.30719638105E+02 -0.53530825493E+01  0.87151788036E+02  0.15561327262E+03  0.12509078623E+03 0.  0.
          5    1    3    3  502    0 -0.46536811247E+02 -0.13824888934E+02  0.48356114003E+02  0.68648295802E+02  0.41800000000E+01 0. -1.
         -5    1    3    3    0  502  0.77256449352E+02  0.84718063843E+01  0.38795674032E+02  0.86964976821E+02  0.41800000000E+01 0. -1.
        -11    1    1    2    0    0 -0.46936906329E+02 -0.61063884684E+01  0.29456601890E+02  0.55749910769E+02  0.00000000000E+00 0. -1.
         11    1    1    2    0    0  0.16217268224E+02  0.11459471018E+02 -0.37521017685E+02  0.42451690576E+02  0.00000000000E+00 0.  1.
</event>
<event>
 7    1  0.2842702E-009  0.1332678E+03  0.7561462E-02  0.1222686E+00
         -2   -1    0    0    0  501 -0.00000000000E+00  0.00000000000E+00  0.12885645447E+03  0.12885645447E+03  0.00000000000E+00 0.  1.
          2   -1    0    0  501    0  0.00000000000E+00 -0.00000000000E+00 -0.19746249286E+03  0.19746249286E+03  0.00000000000E+00 0. -1.
         25    2    1    2    0    0  0.35248807654E+02 -0.82092516661E+02  0.41088622071E+02  0.15911859903E+03  0.12509513963E+03 0.  0.
          5    1    3    3  502    0 -0.46651483143E+02 -0.37250282725E+02  0.10391701573E+02  0.60740466776E+02  0.41800000000E+01 0. -1.
         -5    1    3    3    0  502  0.81900290797E+02 -0.44842233936E+02  0.30696920498E+02  0.98378132251E+02  0.41800000000E+01 0. -1.
        -11    1    1    2    0    0 -0.35117657708E+02  0.42411697193E+01 -0.73033217616E+02  0.81148556850E+02  0.00000000000E+00 0.  1.
         11    1    1    2    0    0 -0.13114994596E+00  0.77851346942E+02 -0.36661442838E+02  0.86051791451E+02  0.00000000000E+00 0. -1.
</event>
<event>
 7    1  0.2842702E-009  0.1983517E+03  0.7561462E-02  0.1151137E+00
          2   -1    0    0  501    0  0.00000000000E+00  0.00000000000E+00  0.35592041523E+03  0.35592041523E+03  0.00000000000E+00 0. -1.
         -2   -1    0    0    0  501 -0.00000000000E+00 -0.00000000000E+00 -0.11455284008E+03  0.11455284008E+03  0.00000000000E+00 0.  1.
         25    2    1    2    0    0 -0.74393653336E+02  0.15115410040E+03  0.97383654688E+02  0.23133157110E+03  0.12509493140E+03 0.  0.
          5    1    3    3  502    0  0.34979531797E+02  0.33419592189E+02  0.29626607546E+02  0.56882730784E+02  0.41800000000E+01 0. -1.
         -5    1    3    3    0  502 -0.10937318513E+03  0.11773450821E+03  0.67757047142E+02  0.17444884032E+03  0.41800000000E+01 0. -1.
        -11    1    1    2    0    0  0.78191257340E+02 -0.66477924940E+02  0.55769722574E+02  0.11680517619E+03  0.00000000000E+00 0.  1.
         11    1    1    2    0    0 -0.37976040035E+01 -0.84676175461E+02  0.88214197889E+02  0.12233650803E+03  0.00000000000E+00 0. -1.
</event>
<event>
 7    1  0.2842702E-009  0.1155859E+03  0.7561462E-02  0.1250562E+00
         -1   -1    0    0    0  501 -0.00000000000E+00  0.00000000000E+00  0.34207436362E+03  0.34207436362E+03  0.00000000000E+00 0.  1.
          1   -1    0    0  501    0  0.00000000000E+00 -0.00000000000E+00 -0.46923415755E+02  0.46923415755E+02  0.00000000000E+00 0. -1.
         25    2    1    2    0    0  0.28044884389E+02  0.54568604857E+02  0.13796776308E+03  0.19607864083E+03  0.12508989393E+03 0.  0.
          5    1    3    3  502    0  0.77557448882E+02  0.37875081112E+02  0.77745467733E+02  0.11623902012E+03  0.41800000000E+01 0.  1.
         -5    1    3    3    0  502 -0.49512564493E+02  0.16693523745E+02  0.60222295351E+02  0.79839620710E+02  0.41800000000E+01 0.  1.
        -11    1    1    2    0    0  0.21780389384E+02 -0.29203150538E+02  0.12089497603E+03  0.12626481930E+03  0.00000000000E+00 0.  1.
         11    1    1    2    0    0 -0.49825273772E+02 -0.25365454319E+02  0.36288208748E+02  0.66654319241E+02  0.00000000000E+00 0. -1.
</event>
<event>
 7    1  0.2842702E-009  0.8433758E+02  0.7561462E-02  0.1317174E+00
          4   -1    0    0  501    0  0.00000000000E+00  0.00000000000E+00  0.14314250249E+03  0.14314250249E+03  0.00000000000E+00 0. -1.
         -4   -1    0    0    0  501 -0.00000000000E+00 -0.00000000000E+00 -0.88339965759E+02  0.88339965759E+02  0.00000000000E+00 0.  1.
         25    2    1    2    0    0  0.28946918150E+02  0.96262862483E+01  0.35195001202E+02  0.13349829298E+03  0.12511001823E+03 0.  0.
          5    1    3    3  502    0  0.73122706380E+02  0.10613422707E+02  0.46874918805E+02  0.87603112632E+02  0.41800000000E+01 0. -1.
         -5    1    3    3    0  502 -0.44175788230E+02 -0.98713645904E+00 -0.11679917603E+02  0.45895180350E+02  0.41800000000E+01 0. -1.
        -11    1    1    2    0    0  0.23899708268E+01 -0.17750852280E+02 -0.32227641954E+02  0.36870389517E+02  0.00000000000E+00 0.  1.
         11    1    1    2    0    0 -0.31336888977E+02  0.81245660318E+01  0.51835177480E+02  0.61113785747E+02  0.00000000000E+00 0. -1.
</event>
<event>
 7    1  0.2842702E-009  0.1418635E+03  0.7561462E-02  0.1210843E+00
          3   -1    0    0  501    0  0.00000000000E+00  0.00000000000E+00  0.29844574836E+03  0.29844574836E+03  0.00000000000E+00 0. -1.
         -3   -1    0    0    0  501 -0.00000000000E+00 -0.00000000000E+00 -0.10658844908E+03  0.10658844908E+03  0.00000000000E+00 0.  1.
         25    2    1    2    0    0 -0.47700428795E+02  0.12163540565E+03  0.43148789903E+02  0.18595659275E+03  0.12509010153E+03 0.  0.
          5    1    3    3  502    0 -0.11066006276E+02  0.11493217399E+03  0.74178147936E+02  0.13730160648E+03  0.41800000000E+01 0.  1.
         -5    1    3    3    0  502 -0.36634422520E+02  0.67032316676E+01 -0.31029358034E+02  0.48654986262E+02  0.41800000000E+01 0.  1.
        -11    1    1    2    0    0  0.12254719313E+02 -0.26828403519E+02  0.10458028313E+03  0.10865991441E+03  0.00000000000E+00 0. -1.
         11    1    1    2    0    0  0.35445709483E+02 -0.94807002134E+02  0.44128226252E+02  0.11041769028E+03  0.00000000000E+00 0.  1.
</event>
<event>
 7    1  0.2842702E-009  0.2677635E+03  0.7561462E-02  0.1102566E+00
          1   -1    0    0  501    0  0.00000000000E+00  0.00000000000E+00  0.39315522955E+03  0.39315522955E+03  0.00000000000E+00 0. -1.
         -1   -1    0    0    0  501 -0.00000000000E+00 -0.00000000000E+00 -0.20335573329E+03  0.20335573329E+03  0.00000000000E+00 0.  1.
         25    2    1    2    0    0  0.10073597799E+03 -0.23271700150E+03  0.16350064425E+03  0.32663212304E+03  0.12510452863E+03 0.  0.
          5    1    3    3  502    0  0.91930736832E+00 -0.14479283137E+03  0.11510906621E+03  0.18502264365E+03  0.41800000000E+01 0.  1.
         -5    1    3    3    0  502  0.99816670622E+02 -0.87924170128E+02  0.48391578045E+02  0.14160947939E+03  0.41800000000E+01 0.  1.
        -11    1    1    2    0    0 -0.76468178571E+02  0.12005036753E+03  0.52461489382E+02  0.15169601493E+03  0.00000000000E+00 0.  1.
         11    1    1    2    0    0 -0.24267799420E+02  0.11266663396E+03 -0.26162637373E+02  0.11818282486E+03  0.00000000000E+00 0. -1.
</event>
<event>
 7    1  0.2842702E-009  0.1072713E+03  0.7561462E-02  0.1265708E+00
          2   -1    0    0  501    0  0.00000000000E+00  0.00000000000E+00  0.83250415191E+03  0.83250415191E+03  0.00000000000E+00 0. -1.
         -2   -1    0    0    0  501 -0.00000000000E+00 -0.00000000000E+00 -0.15957599326E+02  0.15957599326E+02  0.00000000000E+00 0.  1.
         25    2    1    2    0    0  0.39780640764E+02  0.75843591407E+01  0.54103807616E+03  0.55678470153E+03  0.12508789754E+03 0.  0.
          5    1    3    3  502    0  0.80840932952E+02  0.98891883185E+01  0.25360622258E+03  0.26639564752E+03  0.41800000000E+01 0.  1.
         -5    1    3    3    0  502 -0.41060292189E+02 -0.23048291778E+01  0.28743185358E+03  0.29038905400E+03  0.41800000000E+01 0.  1.
        -11    1    1    2    0    0 -0.26174631815E+01  0.35021168248E+02  0.14945458223E+03  0.15352526010E+03  0.00000000000E+00 0. -1.
         11    1    1    2    0    0 -0.37163177582E+02 -0.42605527388E+02  0.12605389419E+03  0.13815178961E+03  0.00000000000E+00 0.  1.
</event>
<event>
 7    1  0.2842702E-009  0.9567193E+02  0.7561462E-02  0.1289670E+00
         -2   -1    0    0    0  501 -0.00000000000E+00  0.00000000000E+00  0.33350690708E+02  0.33350690708E+02  0.00000000000E+00 0. -1.
          2   -1    0    0  501    0  0.00000000000E+00 -0.00000000000E+00 -0.14014065031E+04  0.14014065031E+04  0.00000000000E+00 0.  1.
         25    2    1    2    0    0  0.11606395320E+02 -0.56237039390E+02 -0.12965270587E+04  0.13038125603E+04  0.12508983021E+03 0.  0.
          5    1    3    3  502    0 -0.52801744205E+02 -0.40932403976E+02 -0.48812683045E+03  0.49269540376E+03  0.41800000000E+01 0.  1.
         -5    1    3    3    0  502  0.64408139525E+02 -0.15304635414E+02 -0.80840022821E+03  0.81111715656E+03  0.41800000000E+01 0.  1.
        -11    1    1    2    0    0 -0.27903601919E+01  0.34515718842E+02  0.17557933904E+02  0.38825275275E+02  0.00000000000E+00 0. -1.
         11    1    1    2    0    0 -0.88160351286E+01  0.21721320549E+02 -0.89086687626E+02  0.92119358193E+02  0.00000000000E+00 0.  1.
</event>
<event>
 7    1  0.2842702E-009  0.2150997E+03  0.7561462E-02  0.1137590E+00
          2   -1    0    0  501    0  0.00000000000E+00  0.00000000000E+00  0.44618490258E+03  0.44618490258E+03  0.00000000000E+00 0. -1.
         -2   -1    0    0    0  501 -0.00000000000E+00 -0.00000000000E+00 -0.13038777976E+03  0.13038777976E+03  0.00000000000E+00 0.  1.
         25    2    1    2    0    0  0.19778930530E+03 -0.77082606666E+02  0.12080366986E+03  0.27441466586E+03  0.12509014607E+03 0.  0.
          5    1    3    3  502    0  0.12281999825E+03 -0.22285990707E+02  0.37631128268E+01  0.12495219394E+03  0.41800000000E+01 0. -1.
         -5    1    3    3    0  502  0.74969307051E+02 -0.54796615959E+02  0.11704055704E+03  0.14946247192E+03  0.41800000000E+01 0. -1.
        -11    1    1    2    0    0 -0.75066471279E+02  0.26412108542E+02  0.19203756512E+02  0.81861827808E+02  0.00000000000E+00 0.  1.
         11    1    1    2    0    0 -0.12272283403E+03  0.50670498124E+02  0.17578969644E+03  0.22029618867E+03  0.00000000000E+00 0. -1.
</event>
<event>
 7    1  0.2842702E-009  0.1448377E+03  0.7561462E-02  0.1206964E+00
          2   -1    0    0  501    0  0.00000000000E+00  0.00000000000E+00  0.34663808351E+03  0.34663808351E+03  0.00000000000E+00 0. -1.
         -2   -1    0    0    0  501 -0.00000000000E+00 -0.00000000000E+00 -0.70583117536E+02  0.70583117536E+02  0.00000000000E+00 0.  1.
         25    2    1    2    0    0  0.48807927887E+02 -0.89619335510E+02  0.88122329848E+02  0.18392058970E+03  0.12508956462E+03 0.  0.
          5    1    3    3  502    0  0.20247055624E+02  0.30386086459E+02  0.30241420039E+02  0.47594888357E+02  0.41800000000E+01 0. -1.
         -5    1    3    3    0  502  0.28560872263E+02 -0.12000542197E+03  0.57880909809E+02  0.13632570134E+03  0.41800000000E+01 0. -1.
        -11    1    1    2    0    0 -0.39888172581E+02  0.46022249700E+00  0.24212090739E+02  0.46663727397E+02  0.00000000000E+00 0.  1.
         11    1    1    2    0    0 -0.89197553058E+01  0.89159113013E+02  0.16372054538E+03  0.18663688394E+03  0.00000000000E+00 0. -1.
</event>
<event>
 7    1  0.2842702E-009  0.1126934E+03  0.7561462E-02  0.1255662E+00
         -2   -1    0    0    0  501 -0.00000000000E+00  0.00000000000E+00  0.19928173834E+02  0.19928173834E+02  0.00000000000E+00 0.  1.
          2   -1    0    0  501    0  0.00000000000E+00 -0.00000000000E+00 -0.94826705372E+03  0.94826705372E+03  0.00000000000E+00 0. -1.
         25    2    1    2    0    0  0.57352799917E+02  0.44238746251E+02 -0.59546953847E+03  0.61276335331E+03  0.12509414686E+03 0.  0.
          5    1    3    3  502    0  0.12038399920E+02 -0.22705126241E+02 -0.23435830134E+02  0.35030791660E+02  0.41800000000E+01 0. -1.
         -5    1    3    3    0  502  0.45314399997E+02  0.66943872492E+02 -0.57203370834E+03  0.57773256165E+03  0.41800000000E+01 0. -1.
        -11    1    1    2    0    0  0.20389366082E+02 -0.34471343750E+02 -0.65088686613E+02  0.76423405539E+02  0.00000000000E+00 0.  1.
         11    1    1    2    0    0 -0.77742165999E+02 -0.97674025011E+01 -0.26778065480E+03  0.27900846871E+03  0.00000000000E+00 0. -1.
</event>
<event>
 7    1  0.2842702E-009  0.2279417E+03  0.7561462E-02  0.1128097E+00
         -2   -1    0    0    0  501 -0.00000000000E+00  0.00000000000E+00  0.34017311197E+02  0.34017311197E+02  0.00000000000E+00 0.  1.
          2   -1    0    0  501    0  0.00000000000E+00 -0.00000000000E+00 -0.15814808843E+04  0.15814808843E+04  0.00000000000E+00 0. -1.
         25    2    1    2    0    0  0.20086252995E+03 -0.32924198726E+02 -0.72437312555E+03  0.76275468095E+03  0.12509404260E+03 0.  0.
          5    1    3    3  502    0 -0.41168315768E+01  0.24012322550E+02 -0.10429372730E+03  0.10718299254E+03  0.41800000000E+01 0.  1.
         -5    1    3    3    0  502  0.20497936152E+03 -0.56936521277E+02 -0.62007939826E+03  0.65557168841E+03  0.41800000000E+01 0.  1.
        -11    1    1    2    0    0 -0.18931265455E+03  0.63625752998E+01 -0.76115312432E+03  0.78436843523E+03  0.00000000000E+00 0. -1.
         11    1    1    2    0    0 -0.11549875398E+02  0.26561623427E+02 -0.61937323196E+02  0.68375079272E+02  0.00000000000E+00 0.  1.
</event>
<event>
 7    1  0.2842702E-009  0.9045914E+02  0.7561462E-02  0.1301744E+00
          2   -1    0    0  501    0  0.00000000000E+00  0.00000000000E+00  0.35050589590E+03  0.35050589590E+03  0.00000000000E+00 0. -1.
         -2   -1    0    0    0  501 -0.00000000000E+00 -0.00000000000E+00 -0.36943489516E+02  0.36943489516E+02  0.00000000000E+00 0.  1.
         25    2    1    2    0    0  0.14833735013E+02  0.30855357736E+01  0.12705467081E+03  0.17893968050E+03  0.12508780779E+03 0.  0.
          5    1    3    3  502    0  0.57303163099E+02 -0.10267514962E+02  0.12030850802E+03  0.13371867434E+03  0.41800000000E+01 0.  1.
         -5    1    3    3    0  502 -0.42469428086E+02  0.13353050735E+02  0.67461627895E+01  0.45221006161E+02  0.41800000000E+01 0.  1.
        -11    1    1    2    0    0  0.29628753891E+02  0.10358235456E+02  0.13729642353E+03  0.14083843230E+03  0.00000000000E+00 0. -1.
         11    1    1    2    0    0 -0.44462488904E+02 -0.13443771230E+02  0.49211312048E+02  0.67671272620E+02  0.00000000000E+00 0.  1.
</event>
<event>
 7    1  0.2842702E-009  0.1522132E+03  0.7561462E-02  0.1197780E+00
         -2   -1    0    0    0  501 -0.00000000000E+00  0.00000000000E+00  0.82042297071E+02  0.82042297071E+02  0.00000000000E+00 0.  1.
          2   -1    0    0  501    0  0.00000000000E+00 -0.00000000000E+00 -0.35462459906E+03  0.35462459906E+03  0.00000000000E+00 0. -1.
         25    2    1    2    0    0  0.78148130863E+02  0.91081358115E+02 -0.21368274880E+03  0.27515532300E+03  0.12508873046E+03 0.  0.
          5    1    3    3  502    0 -0.19136231030E+02  0.39119448571E+02 -0.12847698440E+03  0.13572153299E+03  0.41800000000E+01 0.  1.
         -5    1    3    3    0  502  0.97284361893E+02  0.51961909544E+02 -0.85205764394E+02  0.13943379002E+03  0.41800000000E+01 0.  1.
        -11    1    1    2    0    0 -0.23517864302E+02 -0.92715133022E+02 -0.40052408880E+02  0.10369851151E+03  0.00000000000E+00 0. -1.
         11    1    1    2    0    0 -0.54630266562E+02  0.16337749066E+01 -0.18847144314E+02  0.57813061620E+02  0.00000000000E+00 0.  1.
</event>
<event>
 7    1  0.2842702E-009  0.1577126E+03  0.7561462E-02  0.1191304E+00
          1   -1    0    0  501    0  0.00000000000E+00  0.00000000000E+00  0.56940273245E+03  0.56940273245E+03  0.00000000000E+00 0. -1.
         -1   -1    0    0    0  501 -0.00000000000E+00 -0.00000000000E+00 -0.68923187993E+02  0.68923187993E+02  0.00000000000E+00 0.  1.
         25    2    1    2    0    0  0.57904625686E+02 -0.11617533406E+03  0.30363021738E+03  0.35311363143E+03  0.12509306085E+03 0.  0.
          5    1    3    3  502    0  0.72733119958E+02 -0.12719967918E+03  0.29989724994E+03  0.33380488020E+03  0.41800000000E+01 0.  1.
         -5    1    3    3    0  502 -0.14828494272E+02  0.11024345129E+02  0.37329674364E+01  0.19308751223E+02  0.41800000000E+01 0.  1.
        -11    1    1    2    0    0 -0.74447161403E+02  0.75719144752E+02  0.21349302194E+03  0.23844294735E+03  0.00000000000E+00 0. -1.
         11    1    1    2    0    0  0.16542535717E+02  0.40456189303E+02 -0.16643694869E+02  0.46769341665E+02  0.00000000000E+00 0.  1.
</event>
<event>
 7    1  0.2842702E-009  0.1032332E+03  0.7561462E-02  0.1273640E+00
         -2   -1    0    0    0  501 -0.00000000000E+00  0.00000000000E+00  0.22005461715E+02  0.22005461715E+02  0.00000000000E+00 0.  1.
          2   -1    0    0  501    0  0.00000000000E+00 -0.00000000000E+00 -0.18304374140E+04  0.18304374140E+04  0.00000000000E+00 0. -1.
         25    2    1    2    0    0 -0.31651212212E+02  0.13733122192E+02 -0.17070611175E+04  0.17119857201E+04  0.12508816474E+03 0.  0.
          5    1    3    3  502    0 -0.51073012932E+02 -0.44674912125E+02 -0.86460617661E+03  0.86727482003E+03  0.41800000000E+01 0. -1.
         -5    1    3    3    0  502  0.19421800721E+02  0.58408034317E+02 -0.84245494088E+03  0.84471090003E+03  0.41800000000E+01 0. -1.
        -11    1    1    2    0    0  0.42742774899E+02 -0.33376233048E+02 -0.10445062941E+03  0.11768964152E+03  0.00000000000E+00 0. -1.
         11    1    1    2    0    0 -0.11091562687E+02  0.19643110856E+02  0.30797945724E+01  0.22767514171E+02  0.00000000000E+00 0.  1.
</event>
<event>
 7    1  0.2842702E-009  0.1721798E+03  0.7561462E-02  0.1175594E+00
         -2   -1    0    0    0  501 -0.00000000000E+00  0.00000000000E+00  0.24926327298E+03  0.24926327298E+03  0.00000000000E+00 0.  1.
          2   -1    0    0  501    0  0.00000000000E+00 -0.00000000000E+00 -0.13152221458E+03  0.13152221458E+03  0.00000000000E+00 0. -1.
         25    2    1    2    0    0  0.13782832083E+03 -0.17668885854E+02  0.10538500350E+03  0.21462606953E+03  0.12509802240E+03 0.  0.
          5    1    3    3  502    0  0.60467680571E+02  0.47837492064E+02  0.77517166124E+02  0.10941274827E+03  0.41800000000E+01 0. -1.
         -5    1    3    3    0  502  0.77360640259E+02 -0.65506377918E+02  0.27867837374E+02  0.10521332125E+03  0.41800000000E+01 0. -1.
        -11    1    1    2    0    0 -0.42591032141E+02  0.49473378900E+02  0.39395369397E+01  0.65399779739E+02  0.00000000000E+00 0. -1.
         11    1    1    2    0    0 -0.95237288689E+02 -0.31804493046E+02  0.84165179631E+01  0.10075963830E+03  0.00000000000E+00 0.  1.
</event>
<event>
 7    1  0.2842702E-009  0.1165979E+03  0.7561462E-02  0.1248817E+00
         -1   -1    0    0    0  501 -0.00000000000E+00  0.00000000000E+00  0.66576360942E+03  0.66576360942E+03  0.00000000000E+00 0.  1.
          1   -1    0    0  501    0  0.00000000000E+00 -0.00000000000E+00 -0.21405790399E+02  0.21405790399E+02  0.00000000000E+00 0. -1.
         25    2    1    2    0    0  0.35825282216E+02  0.33707716551E+02  0.32769325700E+03  0.35418900079E+03  0.12508923455E+03 0.  0.
          5    1    3    3  502    0 -0.78802116641E+01 -0.42358859626E+02  0.74101712102E+02  0.85819035541E+02  0.41800000000E+01 0. -1.
         -5    1    3    3    0  502  0.43705493881E+02  0.76066576177E+02  0.25359154490E+03  0.26836996525E+03  0.41800000000E+01 0. -1.
        -11    1    1    2    0    0 -0.21107806292E+02 -0.64545991529E+02  0.23023181401E+03  0.24003835670E+03  0.00000000000E+00 0. -1.
         11    1    1    2    0    0 -0.14717475925E+02  0.30838274978E+02  0.86432748010E+02  0.92942042316E+02  0.00000000000E+00 0.  1.
</event>
<event>
 7    1  0.2842702E-009  0.1437173E+03  0.7561462E-02  0.1208413E+00
         -4   -1    0    0    0  501 -0.00000000000E+00  0.00000000000E+00  0.51542058376E+02  0.51542058376E+02  0.00000000000E+00 0.  1.
          4   -1    0    0  501    0  0.00000000000E+00 -0.00000000000E+00 -0.59268477629E+03  0.59268477629E+03  0.00000000000E+00 0. -1.
         25    2    1    2    0    0  0.12952393740E+03  0.42720762684E+02 -0.26359655377E+03  0.32207450627E+03  0.12508929015E+03 0.  0.
          5    1    3    3  502    0  0.56084723455E+02  0.72199321112E+01 -0.12548055408E+02  0.58073657705E+02  0.41800000000E+01 0. -1.
         -5    1    3    3    0  502  0.73439213948E+02  0.35500830572E+02 -0.25104849836E+03  0.26400084857E+03  0.41800000000E+01 0. -1.
        -11    1    1    2    0    0 -0.84257329103E+02 -0.56841728699E+02 -0.24325390962E+03  0.26363373111E+03  0.00000000000E+00 0. -1.
         11    1    1    2    0    0 -0.45266608301E+02  0.14120966016E+02 -0.34292254528E+02  0.58518597291E+02  0.00000000000E+00 0.  1.
</event>
<event>
 7    1  0.2842702E-009  0.5868598E+02  0.7561462E-02  0.1403430E+00
          1   -1    0    0  501    0  0.00000000000E+00  0.00000000000E+00  0.82177992080E+02  0.82177992080E+02  0.00000000000E+00 0. -1.
         -1   -1    0    0    0  501 -0.00000000000E+00 -0.00000000000E+00 -0.16615470657E+03  0.16615470657E+03  0.00000000000E+00 0.  1.
         25    2    1    2    0    0  0.37959017122E+01 -0.41017278392E+02 -0.30429918293E+02  0.13516889916E+03  0.12509126818E+03 0.  0.
          5    1    3    3  502    0 -0.39248268199E+01  0.10363694042E+02 -0.69199685250E+02  0.70205977370E+02  0.41800000000E+01 0.  1.
         -5    1    3    3    0  502  0.77207285321E+01 -0.51380972434E+02  0.38769766957E+02  0.64962921788E+02  0.41800000000E+01 0.  1.
        -11    1    1    2    0    0  0.13364848093E+02  0.30436963570E+02  0.18711104979E+02  0.38146210368E+02  0.00000000000E+00 0. -1.
         11    1    1    2    0    0 -0.17160749805E+02  0.10580314822E+02 -0.72257901178E+02  0.75017589126E+02  0.00000000000E+00 0.  1.
</event>
<event>
 7    1  0.2842702E-009  0.1012130E+03  0.7561462E-02  0.1277766E+00
         -2   -1    0    0    0  501 -0.00000000000E+00  0.00000000000E+00  0.27989498834E+03  0.27989498834E+03  0.00000000000E+00 0. -1.
          2   -1    0    0  501    0  0.00000000000E+00 -0.00000000000E+00 -0.52887189152E+02  0.52887189152E+02  0.00000000000E+00 0.  1.
         25    2    1    2    0    0  0.48435887945E+02  0.25624832407E+02  0.13198282737E+03  0.18991964957E+03  0.12508932526E+03 0.  0.
          5    1    3    3  502    0  0.90254177053E+02  0.16426024978E+02  0.10327886795E+03  0.13820140280E+03  0.41800000000E+01 0. -1.
         -5    1    3    3    0  502 -0.41818289107E+02  0.91988074292E+01  0.28703959425E+02  0.51718246767E+02  0.41800000000E+01 0. -1.
        -11    1    1    2    0    0 -0.49972829933E+02 -0.88779990169E+01  0.10948879916E+03  0.12068098333E+03  0.00000000000E+00 0. -1.
         11    1    1    2    0    0  0.15369419881E+01 -0.16746833391E+02 -0.14463827335E+02  0.22181544591E+02  0.00000000000E+00 0.  1.
</event>
<event>
 7    1  0.2842702E-009  0.1272179E+03  0.7561462E-02  0.1231643E+00
         -3   -1    0    0    0  501 -0.00000000000E+00  0.00000000000E+00  0.16374945553E+03  0.16374945553E+03  0.00000000000E+00 0.  1.
          3   -1    0    0  501    0  0.00000000000E+00 -0.00000000000E+00 -0.13836578702E+03  0.13836578702E+03  0.00000000000E+00 0. -1.
         25    2    1    2    0    0  0.58869671845E+02 -0.63076448175E+02 -0.46311385214E+02  0.15885932130E+03  0.12508902025E+03 0.  0.
          5    1    3    3  502    0 -0.13534240604E+01 -0.77657873531E+02 -0.56216243260E+02  0.95970388581E+02  0.41800000000E+01 0.  1.
         -5    1    3    3    0  502  0.60223095906E+02  0.14581425356E+02  0.99048580461E+01  0.62888932721E+02  0.41800000000E+01 0.  1.
        -11    1    1    2    0    0 -0.11351065095E+02 -0.17585906412E+02  0.38691532718E+02  0.43990288555E+02  0.00000000000E+00 0.  1.
         11    1    1    2    0    0 -0.47518606750E+02  0.80662354587E+02  0.33003521013E+02  0.99265632695E+02  0.00000000000E+00 0. -1.
</event>
<event>
 7    1  0.2842702E-009  0.2553140E+03  0.7561462E-02  0.1109992E+00
         -2   -1    0    0    0  501 -0.00000000000E+00  0.00000000000E+00  0.16766959718E+03  0.16766959718E+03  0.00000000000E+00 0. -1.
          2   -1    0    0  501    0  0.00000000000E+00 -0.00000000000E+00 -0.39838921630E+03  0.39838921630E+03  0.00000000000E+00 0.  1.
         25    2    1    2    0    0  0.19628598046E+03 -0.11875126356E+03 -0.13690790318E+03  0.29499462835E+03  0.12509199847E+03 0.  0.
          5    1    3    3  502    0 -0.15396208485E+02 -0.25209576850E+02 -0.15798374635E+02  0.33758362546E+02  0.41800000000E+01 0.  1.
         -5    1    3    3    0  502  0.21168218894E+03 -0.93541686711E+02 -0.12110952854E+03  0.26123626581E+03  0.41800000000E+01 0.  1.
        -11    1    1    2    0    0 -0.20700377004E+03  0.11867617648E+03 -0.99966939284E+02  0.25870443488E+03  0.00000000000E+00 0.  1.
         11    1    1    2    0    0  0.10717789582E+02  0.75087078523E-01  0.61552233496E+01  0.12359750244E+02  0.00000000000E+00 0. -1.
</event>
<event>
 7    1  0.2842702E-009  0.1786485E+03  0.7561462E-02  0.1169117E+00
         -1   -1    0    0    0  501 -0.00000000000E+00  0.00000000000E+00  0.15946131948E+03  0.15946131948E+03  0.00000000000E+00 0.  1.
          1   -1    0    0  501    0  0.00000000000E+00 -0.00000000000E+00 -0.26237882853E+03  0.26237882853E+03  0.00000000000E+00 0. -1.
         25    2    1    2    0    0 -0.14182878757E+03  0.80969190340E+02  0.56536722320E+01  0.20579356164E+03  0.12509041223E+03 0.  0.
          5    1    3    3  502    0 -0.13336371084E+03  0.95428045212E+02  0.38666052555E+02  0.16853761362E+03  0.41800000000E+01 0.  1.
         -5    1    3    3    0  502 -0.84650767281E+01 -0.14458854872E+02 -0.33012380323E+02  0.37255948019E+02  0.41800000000E+01 0.  1.
        -11    1    1    2    0    0  0.40669869823E+02  0.77889902722E+01  0.25984974463E+01  0.41490467217E+02  0.00000000000E+00 0.  1.
         11    1    1    2    0    0  0.10115891775E+03 -0.88758180612E+02 -0.11116967873E+03  0.17455611916E+03  0.00000000000E+00 0. -1.
</event>
<event>
 7    1  0.2842702E-009  0.1242168E+03  0.7561462E-02  0.1236298E+00
          2   -1    0    0  501    0  0.00000000000E+00  0.00000000000E+00  0.12721225425E+03  0.12721225425E+03  0.00000000000E+00 0. -1.
         -2   -1    0    0    0  501 -0.00000000000E+00 -0.00000000000E+00 -0.27077558239E+03  0.27077558239E+03  0.00000000000E+00 0.  1.
         25    2    1    2    0    0  0.25360094970E+02  0.11877300807E+03  0.19196895725E+02  0.17540886435E+03  0.12509830944E+03 0.  0.
          5    1    3    3  502    0  0.27654063188E+02  0.11846626163E+03  0.59036284077E+02  0.13528398868E+03  0.41800000000E+01 0. -1.
         -5    1    3    3    0  502 -0.22939682179E+01  0.30674644349E+00 -0.39839388352E+02  0.40124875674E+02  0.41800000000E+01 0. -1.
        -11    1    1    2    0    0 -0.23523602164E+02 -0.87532329237E+02 -0.16795980272E+03  0.19085534797E+03  0.00000000000E+00 0.  1.
         11    1    1    2    0    0 -0.18364928055E+01 -0.31240678835E+02  0.51995788557E+01  0.31723624323E+02  0.00000000000E+00 0. -1.
</event>
<event>
 7    1  0.2842702E-009  0.1977151E+03  0.7561462E-02  0.1151681E+00
          3   -1    0    0  501    0  0.00000000000E+00  0.00000000000E+00  0.27982774282E+03  0.27982774282E+03  0.00000000000E+00 0. -1.
         -3   -1    0    0    0  501 -0.00000000000E+00 -0.00000000000E+00 -0.16183923287E+03  0.16183923287E+03  0.00000000000E+00 0.  1.
         25    2    1    2    0    0  0.14083410039E+03 -0.10202011967E+03  0.11884963994E+03  0.24497416527E+03  0.12507899939E+03 0.  0.
          5    1    3    3  502    0  0.90995172015E+01 -0.76815419486E+02  0.62076466064E+02  0.99269179120E+02  0.41800000000E+01 0. -1.
         -5    1    3    3    0  502  0.13173458318E+03 -0.25204700180E+02  0.56773173875E+02  0.14570498615E+03  0.41800000000E+01 0. -1.
        -11    1    1    2    0    0 -0.18065740353E+02  0.44843406941E+02  0.31174911305E+02  0.57525448416E+02  0.00000000000E+00 0. -1.
         11    1    1    2    0    0 -0.12276836003E+03  0.57176712725E+02 -0.32036041297E+02  0.13916736200E+03  0.00000000000E+00 0.  1.
</event>
<event>
 7    1  0.2842702E-009  0.9450278E+02  0.7561462E-02  0.1292300E+00
          2   -1    0    0  501    0  0.00000000000E+00  0.00000000000E+00  0.56587718665E+03  0.56587718665E+03  0.00000000000E+00 0. -1.
         -2   -1    0    0    0  501 -0.00000000000E+00 -0.00000000000E+00 -0.30207767889E+02  0.30207767889E+02  0.00000000000E+00 0.  1.
         25    2    1    2    0    0 -0.49732470669E+02  0.43248713406E+02  0.33934301680E+03  0.36762132309E+03  0.12509190336E+03 0.  0.
          5    1    3    3  502    0 -0.12660280546E+02 -0.48141864640E+01 -0.71156679545E+01  0.15860776313E+02  0.41800000000E+01 0. -1.
         -5    1    3    3    0  502 -0.37072190124E+02  0.48062899870E+02  0.34645868476E+03  0.35176054678E+03  0.41800000000E+01 0. -1.
        -11    1    1    2    0    0  0.15297863229E+02 -0.69198895576E+02  0.14527837806E+03  0.16164256525E+03  0.00000000000E+00 0. -1.
         11    1    1    2    0    0  0.34434607440E+02  0.25950182170E+02  0.51048023891E+02  0.66821066195E+02  0.00000000000E+00 0.  1.
</event>
<event>
 7    1  0.2842702E-009  0.1694610E+03  0.7561462E-02  0.1178411E+00
          1   -1    0    0  501    0  0.00000000000E+00  0.00000000000E+00  0.41848277614E+03  0.41848277614E+03  0.00000000000E+00 0. -1.
         -1   -1    0    0    0  501 -0.00000000000E+00 -0.00000000000E+00 -0.77937914919E+02  0.77937914919E+02  0.00000000000E+00 0.  1.
         25    2    1    2    0    0 -0.11214402436E+03 -0.73683547482E+02  0.10780220879E+03  0.21278625499E+03  0.12510446324E+03 0.  0.
          5    1    3    3  502    0  0.17539087204E+02  0.16970503540E+02  0.19661591669E+02  0.31617529273E+02  0.41800000000E+01 0. -1.
         -5    1    3    3    0  502 -0.12968311156E+03 -0.90654051022E+02  0.88140617121E+02  0.18116872572E+03  0.41800000000E+01 0. -1.
        -11    1    1    2    0    0  0.42848059407E+02  0.75217678439E+02  0.89563202624E+02  0.12456011645E+03  0.00000000000E+00 0.  1.
         11    1    1    2    0    0  0.69295964953E+02 -0.15341309572E+01  0.14317944981E+03  0.15907431962E+03  0.00000000000E+00 0. -1.
</event>
<event>
 7    1  0.2842702E-009  0.8451889E+02  0.7561462E-02  0.1316695E+00
         -4   -1    0    0    0  501 -0.00000000000E+00  0.00000000000E+00  0.14239720325E+03  0.14239720325E+03  0.00000000000E+00 0.  1.
          4   -1    0    0  501    0  0.00000000000E+00 -0.00000000000E+00 -0.94302728303E+02  0.94302728303E+02  0.00000000000E+00 0. -1.
         25    2    1    2    0    0  0.15242052963E+02 -0.45301831874E+02  0.37260641361E+02  0.13899568695E+03  0.12508744720E+03 0.  0.
          5    1    3    3  502    0  0.12189314053E+02  0.26318617305E+02 -0.29043795095E+02  0.41258495215E+02  0.41800000000E+01 0.  1.
         -5    1    3    3    0  502  0.30527389097E+01 -0.71620449178E+02  0.66304436456E+02  0.97737191739E+02  0.41800000000E+01 0.  1.
        -11    1    1    2    0    0 -0.32826844050E+02  0.32337236188E+02 -0.27442344840E+02  0.53631901186E+02  0.00000000000E+00 0. -1.
         11    1    1    2    0    0  0.17584791087E+02  0.12964595686E+02  0.38276178422E+02  0.44072343408E+02  0.00000000000E+00 0.  1.
</event>
<event>
 7    1  0.2842702E-009  0.2170128E+03  0.7561462E-02  0.1136130E+00
          2   -1    0    0  501    0  0.00000000000E+00  0.00000000000E+00  0.21011706580E+04  0.21011706580E+04  0.00000000000E+00 0. -1.
         -2   -1    0    0    0  501 -0.00000000000E+00 -0.00000000000E+00 -0.30989853500E+02  0.30989853500E+02  0.00000000000E+00 0.  1.
         25    2    1    2    0    0 -0.14172620420E+03  0.13592536871E+03  0.16042373760E+04  0.16210451101E+04  0.12509063664E+03 0.  0.
          5    1    3    3  502    0 -0.15196298052E+03  0.76802624363E+02  0.10763696546E+04  0.10897616695E+04  0.41800000000E+01 0. -1.
         -5    1    3    3    0  502  0.10236776317E+02  0.59122744345E+02  0.52786772140E+03  0.53128344054E+03  0.41800000000E+01 0. -1.
        -11    1    1    2    0    0  0.10894219993E+03 -0.68782540639E+02  0.35219598761E+03  0.37502193870E+03  0.00000000000E+00 0. -1.
         11    1    1    2    0    0  0.32784004276E+02 -0.67142828069E+02  0.11374744086E+03  0.13609346274E+03  0.00000000000E+00 0.  1.
</event>
<event>
 7    1  0.2842702E-009  0.1084462E+03  0.7561462E-02  0.1263475E+00
         -2   -1    0    0    0  501 -0.00000000000E+00  0.00000000000E+00  0.42867996231E+02  0.42867996231E+02  0.00000000000E+00 0.  1.
          2   -1    0    0  501    0  0.00000000000E+00 -0.00000000000E+00 -0.48247852522E+03  0.48247852522E+03  0.00000000000E+00 0. -1.
         25    2    1    2    0    0 -0.27301609176E+02  0.40374560322E+02 -0.92665056968E+02  0.16312352988E+03  0.12508793001E+03 0.  0.
          5    1    3    3  502    0 -0.75327564858E+02  0.25864311785E+02 -0.75802982869E+02  0.11003076508E+03  0.41800000000E+01 0. -1.
         -5    1    3    3    0  502  0.48025955682E+02  0.14510248537E+02 -0.16862074099E+02  0.53092764806E+02  0.41800000000E+01 0. -1.
        -11    1    1    2    0    0  0.37213854582E+02  0.74511868253E+01 -0.58918007530E+02  0.70083684044E+02  0.00000000000E+00 0.  1.
         11    1    1    2    0    0 -0.99122454065E+01 -0.47825747147E+02 -0.28802746450E+03  0.29213930753E+03  0.00000000000E+00 0. -1.
</event>
<event>
 7    1  0.2842702E-009  0.1194755E+03  0.7561462E-02  0.1243965E+00
          4   -1    0    0  501    0  0.00000000000E+00  0.00000000000E+00  0.14421620264E+03  0.14421620264E+03  0.00000000000E+00 0. -1.
         -4   -1    0    0    0  501 -0.00000000000E+00 -0.00000000000E+00 -0.15023547379E+03  0.15023547379E+03  0.00000000000E+00 0.  1.
         25    2    1    2    0    0 -0.65156387014E+02  0.60467373308E+02 -0.45489804805E+02  0.16005801199E+03  0.12509031480E+03 0.  0.
          5    1    3    3  502    0 -0.25450229276E+02  0.73069322288E+02  0.22077175937E+02  0.80571174294E+02  0.41800000000E+01 0. -1.
         -5    1    3    3    0  502 -0.39706157737E+02 -0.12601948980E+02 -0.67566980742E+02  0.79486837697E+02  0.41800000000E+01 0. -1.
        -11    1    1    2    0    0  0.20352656733E+01 -0.56301071016E+02  0.43246467127E+02  0.71022600789E+02  0.00000000000E+00 0. -1.
         11    1    1    2    0    0  0.63121121340E+02 -0.41663022919E+01 -0.37759334784E+01  0.63371063647E+02  0.00000000000E+00 0.  1.
</event>
<event>
 7    1  0.2842702E-009  0.1958222E+03  0.7561462E-02  0.1153312E+00
         -1   -1    0    0    0  501 -0.00000000000E+00  0.00000000000E+00  0.22859440048E+03  0.22859440048E+03  0.00000000000E+00 0.  1.
          1   -1    0    0  501    0  0.00000000000E+00 -0.00000000000E+00 -0.22361523934E+03  0.22361523934E+03  0.00000000000E+00 0. -1.
         25    2    1    2    0    0 -0.92553336157E+02  0.15679487945E+03 -0.75971317472E+02  0.23360128310E+03  0.12508862511E+03 0.  0.
          5    1    3    3  502    0 -0.14489454848E+01  0.90216187985E+02 -0.79933962698E+02  0.12061496926E+03  0.41800000000E+01 0. -1.
         -5    1    3    3    0  502 -0.91104390672E+02  0.66578691468E+02  0.39626452258E+01  0.11298631384E+03  0.41800000000E+01 0. -1.
        -11    1    1    2    0    0  0.93245022800E+02 -0.12176693055E+03  0.95501536744E+02  0.18067197673E+03  0.00000000000E+00 0.  1.
         11    1    1    2    0    0 -0.69168664331E+00 -0.35027948900E+02 -0.14551058124E+02  0.37936379995E+02  0.00000000000E+00 0. -1.
</event>
<event>
 7    1  0.2842702E-009  0.8686611E+02  0.7561462E-02  0.1310623E+00
          2   -1    0    0  501    0  0.00000000000E+00  0.00000000000E+00  0.26122490350E+03  0.26122490350E+03  0.00000000000E+00 0. -1.
         -2   -1    0    0    0  501 -0.00000000000E+00 -0.00000000000E+00 -0.71043260334E+02  0.71043260334E+02  0.00000000000E+00 0.  1.
         25    2    1    2    0    0  0.62539038061E+02 -0.46647201445E+02  0.70679471340E+02  0.16349390682E+03  0.12509027626E+03 0.  0.
          5    1    3    3  502    0  0.23050003109E+02  0.72636856095E+01 -0.32363714531E+02  0.40607218449E+02  0.41800000000E+01 0. -1.
         -5    1    3    3    0  502  0.39489034952E+02 -0.53910887054E+02  0.10304318587E+03  0.12288668837E+03  0.41800000000E+01 0. -1.
        -11    1    1    2    0    0 -0.26848777430E+02  0.48433965480E+01 -0.92275115813E+01  0.28800387316E+02  0.00000000000E+00 0.  1.
         11    1    1    2    0    0 -0.35690260631E+02  0.41803804897E+02  0.12872968341E+03  0.13997386970E+03  0.00000000000E+00 0. -1.
</event>
<event>
 7    1  0.2842702E-009  0.2009007E+03  0.7561462E-02  0.1148981E+00
          1   -1    0    0  501    0  0.00000000000E+00  0.00000000000E+00  0.51637667747E+03  0.51637667747E+03  0.00000000000E+00 0. -1.
         -1   -1    0    0    0  501 -0.00000000000E+00 -0.00000000000E+00 -0.92246186235E+02  0.92246186235E+02  0.00000000000E+00 0.  1.
         25    2    1    2    0    0  0.17349407829E+03  0.66413930562E+02  0.26951486868E+03  0.35042483185E+03  0.12509313715E+03 0.  0.
          5    1    3    3  502    0  0.39205397220E+02 -0.30548435529E+02  0.27006828279E+02  0.56719584432E+02  0.41800000000E+01 0.  1.
         -5    1    3    3    0  502  0.13428868107E+03  0.96962366091E+02  0.24250804040E+03  0.29370524742E+03  0.41800000000E+01 0.  1.
        -11    1    1    2    0    0 -0.63304672615E+02 -0.31058009624E+02  0.11683489074E+03  0.13646418296E+03  0.00000000000E+00 0. -1.
         11    1    1    2    0    0 -0.11018940568E+03 -0.35355920938E+02  0.37780731810E+02  0.12173384889E+03  0.00000000000E+00 0.  1.
</event>
<event>
 7    1  0.2842702E-009  0.1092113E+03  0.7561462E-02  0.1262037E+00
         -2   -1    0    0    0  501 -0.00000000000E+00  0.00000000000E+00  0.20209739127E+03  0.20209739127E+03  0.00000000000E+00 0.  1.
          2   -1    0    0  501    0  0.00000000000E+00 -0.00000000000E+00 -0.71260173001E+02  0.71260173001E+02  0.00000000000E+00 0. -1.
         25    2    1    2    0    0 -0.14874043784E+02 -0.38416103548E+02  0.83239326254E+02  0.15579865352E+03  0.12508957116E+03 0.  0.
          5    1    3    3  502    0 -0.40993836581E+02 -0.63002537005E+02  0.91763800003E+02  0.11869238264E+03  0.41800000000E+01 0. -1.
         -5    1    3    3    0  502  0.26119792796E+02  0.24586433457E+02 -0.85244737482E+01  0.37106270879E+02  0.41800000000E+01 0. -1.
        -11    1    1    2    0    0 -0.31276689527E+02 -0.16444717457E+02  0.10647057116E+02  0.36905553312E+02  0.00000000000E+00 0.  1.
         11    1    1    2    0    0  0.46150733311E+02  0.54860821005E+02  0.36950834903E+02  0.80653357442E+02  0.00000000000E+00 0. -1.
</event>
<event>
 7    1  0.2842702E-009  0.1558694E+03  0.7561462E-02  0.1193441E+00
          2   -1    0    0  501    0  0.00000000000E+00  0.00000000000E+00  0.56844296421E+03  0.56844296421E+03  0.00000000000E+00 0. -1.
         -2   -1    0    0    0  501 -0.00000000000E+00 -0.00000000000E+00 -0.10307628884E+03  0.10307628884E+03  0.00000000000E+00 0.  1.
         25    2    1    2    0    0 -0.23289401768E+02 -0.12527818962E+03  0.48278085979E+03  0.51474434927E+03  0.12508942999E+03 0.  0.
          5    1    3    3  502    0 -0.67168687020E+02 -0.10908018785E+03  0.30434229295E+03  0.33022995560E+03  0.41800000000E+01 0. -1.
         -5    1    3    3    0  502  0.43879285252E+02 -0.16198001777E+02  0.17843856684E+03  0.18451439367E+03  0.41800000000E+01 0. -1.
        -11    1    1    2    0    0  0.33316049076E+02  0.46546141284E+02 -0.44934668719E+02  0.72771057759E+02  0.00000000000E+00 0.  1.
         11    1    1    2    0    0 -0.10026647308E+02  0.78732048340E+02  0.27520484299E+02  0.84003846032E+02  0.00000000000E+00 0. -1.
</event>
<event>
 7    1  0.2842702E-009  0.9743630E+02  0.7561462E-02  0.1285781E+00
         -2   -1    0    0    0  501 -0.00000000000E+00  0.00000000000E+00  0.14412410120E+02  0.14412410120E+02  0.00000000000E+00 0.  1.
          2   -1    0    0  501    0  0.00000000000E+00 -0.00000000000E+00 -0.96774288457E+03  0.96774288457E+03  0.00000000000E+00 0. -1.
         25    2    1    2    0    0 -0.12817071900E+01 -0.26219584116E+02 -0.66063728268E+03  0.67288743200E+03  0.12508703975E+03 0.  0.
          5    1    3    3  502    0  0.67466020057E+01 -0.59773224279E+02 -0.59980237222E+03  0.60282560754E+03  0.41800000000E+01 0. -1.
         -5    1    3    3    0  502 -0.80283091958E+01  0.33553640163E+02 -0.60834910460E+02  0.70061824465E+02  0.41800000000E+01 0. -1.
        -11    1    1    2    0    0  0.39588150366E+02  0.42604610586E+02 -0.17598679579E+03  0.18534758371E+03  0.00000000000E+00 0.  1.
         11    1    1    2    0    0 -0.38306443176E+02 -0.16385026470E+02 -0.11670639598E+03  0.12392027898E+03  0.00000000000E+00 0. -1.
</event>
<event>
 7    1  0.2842702E-009  0.9718686E+02  0.7561462E-02  0.1286325E+00
         -3   -1    0    0    0  501 -0.00000000000E+00  0.00000000000E+00  0.34174918357E+03  0.34174918357E+03  0.00000000000E+00 0.  1.
          3   -1    0    0  501    0  0.00000000000E+00 -0.00000000000E+00 -0.43210447575E+02  0.43210447575E+02  0.00000000000E+00 0. -1.
         25    2    1    2    0    0  0.26041290628E+02  0.18842637429E+02  0.23904505055E+03  0.27170506210E+03  0.12509160952E+03 0.  0.
          5    1    3    3  502    0  0.41977983067E+02  0.59230906192E+02  0.86291589567E+02  0.11284574489E+03  0.41800000000E+01 0. -1.
         -5    1    3    3    0  502 -0.15936692438E+02 -0.40388268763E+02  0.15275346099E+03  0.15885931721E+03  0.41800000000E+01 0. -1.
        -11    1    1    2    0    0  0.12869503977E+02  0.19528776019E+02  0.53363496259E+02  0.58263710476E+02  0.00000000000E+00 0.  1.
         11    1    1    2    0    0 -0.38910794606E+02 -0.38371413448E+02  0.61301891821E+01  0.54990858570E+02  0.00000000000E+00 0. -1.
</event>
<event>
 7    1  0.2842702E-009  0.5453582E+02  0.7561462E-02  0.1422307E+00
         -2   -1    0    0    0  501 -0.00000000000E+00  0.00000000000E+00  0.14831072764E+03  0.14831072764E+03  0.00000000000E+00 0.  1.
          2   -1    0    0  501    0  0.00000000000E+00 -0.00000000000E+00 -0.76026209475E+02  0.76026209475E+02  0.00000000000E+00 0. -1.
         25    2    1    2    0    0  0.19629206186E+02 -0.43039329050E+01  0.19427201058E+02  0.12816902828E+03  0.12508418803E+03 0.  0.
          5    1    3    3  502    0  0.98510153601E+01 -0.40033804895E+02 -0.40273244834E+02  0.57785419333E+02  0.41800000000E+01 0. -1.
         -5    1    3    3    0  502  0.97781908258E+01  0.35729871990E+02  0.59700445892E+02  0.70383608943E+02  0.41800000000E+01 0. -1.
        -11    1    1    2    0    0 -0.76662557657E+01 -0.94214400224E+01  0.70068507216E+02  0.71113505841E+02  0.00000000000E+00 0.  1.
         11    1    1    2    0    0 -0.11962950420E+02  0.13725372927E+02 -0.17211190106E+02  0.25054402999E+02  0.00000000000E+00 0. -1.
</event>
<event>
 7    1  0.2842702E-009  0.1497023E+03  0.7561462E-02  0.1200839E+00
         -2   -1    0    0    0  501 -0.00000000000E+00  0.00000000000E+00  0.25318115747E+02  0.25318115747E+02  0.00000000000E+00 0.  1.
          2   -1    0    0  501    0  0.00000000000E+00 -0.00000000000E+00 -0.10225721928E+04  0.10225721928E+04  0.00000000000E+00 0. -1.
         25    2    1    2    0    0  0.78564540978E+02  0.82698803384E+02 -0.54640138093E+03  0.57202091374E+03  0.12506789149E+03 0.  0.
          5    1    3    3  502    0 -0.22969245274E+02  0.17364844427E+02 -0.30458434534E+02  0.42122591144E+02  0.41800000000E+01 0. -1.
         -5    1    3    3    0  502  0.10153378625E+03  0.65333958956E+02 -0.51594294640E+03  0.52989832259E+03  0.41800000000E+01 0. -1.
        -11    1    1    2    0    0  0.19449943749E+02 -0.36020185917E+02 -0.16755084041E+03  0.17247909504E+03  0.00000000000E+00 0. -1.
         11    1    1    2    0    0 -0.98014484726E+02 -0.46678617466E+02 -0.28330185569E+03  0.30339029975E+03  0.00000000000E+00 0.  1.
</event>
<event>
 7    1  0.2927309E-009  0.9322210E+02  0.7561462E-02  0.1295231E+00
         -1   -1    0    0    0  501 -0.00000000000E+00  0.00000000000E+00  0.56391242656E+02  0.56391242656E+02  0.00000000000E+00 0.  1.
          1   -1    0    0  501    0  0.00000000000E+00 -0.00000000000E+00 -0.26355406586E+03  0.26355406586E+03  0.00000000000E+00 0. -1.
         25    2    1    2    0    0  0.24992604965E+02  0.31143584109E+02 -0.65707602127E+02  0.14683287147E+03  0.12509136674E+03 0.  0.
          5    1    3    3  502    0  0.34105942893E+02  0.74721012671E+02 -0.23970541194E+02  0.85665070596E+02  0.41800000000E+01 0.  1.
         -5    1    3    3    0  502 -0.91133379285E+01 -0.43577428562E+02 -0.41737060933E+02  0.61167800873E+02  0.41800000000E+01 0.  1.
        -11    1    1    2    0    0  0.12342461995E+02 -0.29213966043E+01  0.89959764124E+01  0.15549871955E+02  0.00000000000E+00 0.  1.
         11    1    1    2    0    0 -0.37335066959E+02 -0.28222187505E+02 -0.15045119749E+03  0.15756256509E+03  0.00000000000E+00 0. -1.
</event>
<event>
 7    1  0.2842702E-009  0.1814129E+03  0.7561462E-02  0.1166443E+00
          1   -1    0    0  501    0  0.00000000000E+00  0.00000000000E+00  0.11485022122E+03  0.11485022122E+03  0.00000000000E+00 0. -1.
         -1   -1    0    0    0  501 -0.00000000000E+00 -0.00000000000E+00 -0.51974870275E+03  0.51974870275E+03  0.00000000000E+00 0.  1.
         25    2    1    2    0    0  0.15649201331E+03 -0.83797214532E+01 -0.14363337953E+02  0.20103308205E+03  0.12509206465E+03 0.  0.
          5    1    3    3  502    0  0.47482684589E+02  0.55655459008E+02  0.30723901232E+01  0.73341989571E+02  0.41800000000E+01 0. -1.
         -5    1    3    3    0  502  0.10900932872E+03 -0.64035180461E+02 -0.17435728077E+02  0.12769109248E+03  0.41800000000E+01 0. -1.
        -11    1    1    2    0    0 -0.42606183636E+02 -0.17836062051E+02 -0.31288001251E+02  0.55788448767E+02  0.00000000000E+00 0.  1.
         11    1    1    2    0    0 -0.11388582967E+03  0.26215783504E+02 -0.35924714233E+03  0.37777739315E+03  0.00000000000E+00 0. -1.
</event>
<event>
 7    1  0.2842702E-009  0.1236527E+03  0.7561462E-02  0.1237190E+00
         -4   -1    0    0    0  501 -0.00000000000E+00  0.00000000000E+00  0.16221704310E+03  0.16221704310E+03  0.00000000000E+00 0.  1.
          4   -1    0    0  501    0  0.00000000000E+00 -0.00000000000E+00 -0.12643580950E+03  0.12643580950E+03  0.00000000000E+00 0. -1.
         25    2    1    2    0    0  0.29925356302E+01 -0.91674834632E+02  0.19842098950E+02  0.15637341481E+03  0.12508279416E+03 0.  0.
          5    1    3    3  502    0 -0.24845939359E+02 -0.11550762183E+03  0.15421684166E+02  0.11922513219E+03  0.41800000000E+01 0.  1.
         -5    1    3    3    0  502  0.27838474989E+02  0.23832787195E+02  0.44204147840E+01  0.37148282626E+02  0.41800000000E+01 0.  1.
        -11    1    1    2    0    0 -0.63957760433E+01  0.61055756259E+02  0.55073977022E+02  0.82473354900E+02  0.00000000000E+00 0.  1.
         11    1    1    2    0    0  0.34032404131E+01  0.30619078373E+02 -0.39134842372E+02  0.49806082894E+02  0.00000000000E+00 0. -1.
</event>
<event>
 7    1  0.2842702E-009  0.1077216E+03  0.7561462E-02  0.1264848E+00
         -1   -1    0    0    0  501 -0.00000000000E+00  0.00000000000E+00  0.30300662566E+03  0.30300662566E+03  0.00000000000E+00 0.  1.
          1   -1    0    0  501    0  0.00000000000E+00 -0.00000000000E+00 -0.83332016936E+02  0.83332016936E+02  0.00000000000E+00 0. -1.
         25    2    1    2    0    0  0.23361594043E+02  0.17255504118E+02 -0.17911791082E+02  0.12965949783E+03  0.12508891485E+03 0.  0.
          5    1    3    3  502    0 -0.15843530315E+02  0.63613974049E+02 -0.20299327216E+02  0.68755292397E+02  0.41800000000E+01 0. -1.
         -5    1    3    3    0  502  0.39205124358E+02 -0.46358469931E+02  0.23875361337E+01  0.60904205430E+02  0.41800000000E+01 0. -1.
        -11    1    1    2    0    0  0.19364431750E+02  0.23087034808E+02  0.13620932385E+03  0.13950258885E+03  0.00000000000E+00 0.  1.
         11    1    1    2    0    0 -0.42726025793E+02 -0.40342538926E+02  0.10137707596E+03  0.11717655592E+03  0.00000000000E+00 0. -1.
</event>
<event>
 7    1  0.2842702E-009  0.1422574E+03  0.7561462E-02  0.1210323E+00
          1   -1    0    0  501    0  0.00000000000E+00  0.00000000000E+00  0.83846704686E+03  0.83846704686E+03  0.00000000000E+00 0. -1.
         -1   -1    0    0    0  501 -0.00000000000E+00 -0.00000000000E+00 -0.52232052039E+02  0.52232052039E+02  0.00000000000E+00 0.  1.
         25    2    1    2    0    0  0.87574741529E+02 -0.79961405590E+02  0.67625405137E+03  0.69787555998E+03  0.12509034131E+03 0.  0.
          5    1    3    3  502    0  0.11625763432E+03 -0.64984574960E+02  0.60509160532E+03  0.61959031283E+03  0.41800000000E+01 0.  1.
         -5    1    3    3    0  502 -0.28682892790E+02 -0.14976830630E+02  0.71162446047E+02  0.78285247153E+02  0.41800000000E+01 0.  1.
        -11    1    1    2    0    0 -0.61580634138E+02  0.54132559386E+02  0.55826408759E+01  0.82180742061E+02  0.00000000000E+00 0.  1.
         11    1    1    2    0    0 -0.25994107391E+02  0.25828846204E+02  0.10439830257E+03  0.11064279685E+03  0.00000000000E+00 0. -1.
</event>
<event>
 7    1  0.2842702E-009  0.1149122E+03  0.7561462E-02  0.1251735E+00
         -4   -1    0    0    0  501 -0.00000000000E+00  0.00000000000E+00  0.23058590374E+03  0.23058590374E+03  0.00000000000E+00 0.  1.
          4   -1    0    0  501    0  0.00000000000E+00 -0.00000000000E+00 -0.71351622198E+02  0.71351622198E+02  0.00000000000E+00 0. -1.
         25    2    1    2    0    0  0.38668240009E+02 -0.20279238834E+02  0.14930776527E+03  0.19961465138E+03  0.12508684967E+03 0.  0.
          5    1    3    3  502    0  0.24935956348E+02  0.52363786247E+02  0.59135550675E+02  0.82935238486E+02  0.41800000000E+01 0.  1.
         -5    1    3    3    0  502  0.13732283661E+02 -0.72643025081E+02  0.90172214600E+02  0.11667941289E+03  0.41800000000E+01 0.  1.
        -11    1    1    2    0    0  0.50649211005E+01  0.46408351221E+02 -0.97845550317E+01  0.47698280954E+02  0.00000000000E+00 0. -1.
         11    1    1    2    0    0 -0.43733161110E+02 -0.26129112387E+02  0.19711071302E+02  0.54624593606E+02  0.00000000000E+00 0.  1.
</event>
<event>
 7    1  0.2842702E-009  0.6551771E+02  0.7561462E-02  0.1376035E+00
         -1   -1    0    0    0  501 -0.00000000000E+00  0.00000000000E+00  0.42480282161E+03  0.42480282161E+03  0.00000000000E+00 0.  1.
          1   -1    0    0  501    0  0.00000000000E+00 -0.00000000000E+00 -0.29196047955E+02  0.29196047955E+02  0.00000000000E+00 0. -1.
         25    2    1    2    0    0 -0.25866559030E+02  0.13235744227E+02  0.24098275297E+03  0.27306678492E+03  0.12509403661E+03 0.  0.
          5    1    3    3  502    0  0.66145691595E+00 -0.19311608774E+02 -0.74118432763E+01  0.21113587555E+02  0.41800000000E+01 0.  1.
         -5    1    3    3    0  502 -0.26528015946E+02  0.32547353001E+02  0.24839459625E+03  0.25195319736E+03  0.41800000000E+01 0.  1.
        -11    1    1    2    0    0  0.46514731438E+02 -0.47910751545E+01  0.15132020058E+03  0.15838048411E+03  0.00000000000E+00 0.  1.
         11    1    1    2    0    0 -0.20648172408E+02 -0.84446690721E+01  0.33038201015E+01  0.22551600538E+02  0.00000000000E+00 0. -1.
</event>
<event>
 7    1  0.2842702E-009  0.1412757E+03  0.7561462E-02  0.1211623E+00
          3   -1    0    0  501    0  0.00000000000E+00  0.00000000000E+00  0.15747711002E+03  0.15747711002E+03  0.00000000000E+00 0. -1.
         -3   -1    0    0    0  501 -0.00000000000E+00 -0.00000000000E+00 -0.25421380388E+03  0.25421380388E+03  0.00000000000E+00 0.  1.
         25    2    1    2    0    0 -0.67780530117E+02  0.10695518457E+03  0.63198388805E+02  0.18887912121E+03  0.12509066437E+03 0.  0.
          5    1    3    3  502    0 -0.54881442126E+02  0.94166568044E+02 -0.13539988781E+02  0.10990959432E+03  0.41800000000E+01 0. -1.
         -5    1    3    3    0  502 -0.12899087991E+02  0.12788616529E+02  0.76738377586E+02  0.78969526897E+02  0.41800000000E+01 0. -1.
        -11    1    1    2    0    0 -0.94342039997E+01 -0.67449144971E+02 -0.63603557222E+02  0.93186929629E+02  0.00000000000E+00 0. -1.
         11    1    1    2    0    0  0.77214734117E+02 -0.39506039602E+02 -0.96331525438E+02  0.12962486306E+03  0.00000000000E+00 0.  1.
</event>
<event>
 7    1  0.2842702E-009  0.1402782E+03  0.7561462E-02  0.1212955E+00
          1   -1    0    0  501    0  0.00000000000E+00  0.00000000000E+00  0.10962881774E+04  0.10962881774E+04  0.00000000000E+00 0. -1.
         -1   -1    0    0    0  501 -0.00000000000E+00 -0.00000000000E+00 -0.20656369029E+02  0.20656369029E+02  0.00000000000E+00 0.  1.
         25    2    1    2    0    0  0.26161537659E+02 -0.89023142140E+02  0.74476777040E+03  0.76087839189E+03  0.12508936621E+03 0.  0.
          5    1    3    3  502    0 -0.49902498611E+02 -0.38920183584E+02  0.26121072059E+03  0.26880021021E+03  0.41800000000E+01 0. -1.
         -5    1    3    3    0  502  0.76064036270E+02 -0.50102958556E+02  0.48355704980E+03  0.49207818168E+03  0.41800000000E+01 0. -1.
        -11    1    1    2    0    0 -0.54764787002E+01  0.10159911270E+03  0.21716661227E+03  0.23982015972E+03  0.00000000000E+00 0.  1.
         11    1    1    2    0    0 -0.20685058959E+02 -0.12575970565E+02  0.11369742567E+03  0.11624599478E+03  0.00000000000E+00 0. -1.
</event>
<event>
 7    1  0.2842702E-009  0.1010555E+03  0.7561462E-02  0.1278092E+00
         -2   -1    0    0    0  501 -0.00000000000E+00  0.00000000000E+00  0.26717181869E+03  0.26717181869E+03  0.00000000000E+00 0.  1.
          2   -1    0    0  501    0  0.00000000000E+00 -0.00000000000E+00 -0.54537892371E+02  0.54537892371E+02  0.00000000000E+00 0. -1.
         25    2    1    2    0    0  0.50719606963E+02  0.51764029620E+00  0.13043503060E+03  0.18770294551E+03  0.12508537909E+03 0.  0.
          5    1    3    3  502    0 -0.23864919455E+02 -0.40029130346E+02  0.27735653288E+02  0.54393055808E+02  0.41800000000E+01 0. -1.
         -5    1    3    3    0  502  0.74584526418E+02  0.40546770642E+02  0.10269937731E+03  0.13330988970E+03  0.41800000000E+01 0. -1.
        -11    1    1    2    0    0 -0.36173851110E+02  0.22859483598E+02  0.94586197739E+02  0.10381547234E+03  0.00000000000E+00 0.  1.
         11    1    1    2    0    0 -0.14545755853E+02 -0.23377123894E+02 -0.12387302018E+02  0.30191293218E+02  0.00000000000E+00 0. -1.
</event>
<event>
 7    1  0.2842702E-009  0.1127546E+03  0.7561462E-02  0.1255552E+00
          2   -1    0    0  501    0  0.00000000000E+00  0.00000000000E+00  0.84653725391E+02  0.84653725391E+02  0.00000000000E+00 0. -1.
         -2   -1    0    0    0  501 -0.00000000000E+00 -0.00000000000E+00 -0.21267941601E+03  0.21267941601E+03  0.00000000000E+00 0.  1.
         25    2    1    2    0    0  0.78100252314E+02  0.46502430616E+01 -0.61857630607E+02  0.15998412690E+03  0.12508908915E+03 0.  0.
          5    1    3    3  502    0  0.10371398327E+03  0.32396196700E+02 -0.38314923828E+02  0.11528924353E+03  0.41800000000E+01 0.  1.
         -5    1    3    3    0  502 -0.25613730956E+02 -0.27745953638E+02 -0.23542706779E+02  0.44694883367E+02  0.41800000000E+01 0.  1.
        -11    1    1    2    0    0 -0.23041977774E+02 -0.56075699379E+01  0.22683901245E+02  0.32816717630E+02  0.00000000000E+00 0. -1.
         11    1    1    2    0    0 -0.55058274540E+02  0.95732687630E+00 -0.88851961256E+02  0.10453229687E+03  0.00000000000E+00 0.  1.
</event>
<event>
 7    1  0.2842702E-009  0.1312308E+03  0.7561462E-02  0.1225641E+00
          2   -1    0    0  501    0  0.00000000000E+00  0.00000000000E+00  0.13412723806E+04  0.13412723806E+04  0.00000000000E+00 0. -1.
         -2   -1    0    0    0  501 -0.00000000000E+00 -0.00000000000E+00 -0.15986369806E+02  0.15986369806E+02  0.00000000000E+00 0.  1.
         25    2    1    2    0    0 -0.87893676515E+02 -0.41001436816E+02  0.66905014205E+03  0.68751890477E+03  0.12509090952E+03 0.  0.
          5    1    3    3  502    0 -0.14708146247E+02  0.25691521023E+02  0.39447160185E+03  0.39560295864E+03  0.41800000000E+01 0. -1.
         -5    1    3    3    0  502 -0.73185530268E+02 -0.66692957839E+02  0.27457854019E+03  0.29191594612E+03  0.41800000000E+01 0. -1.
        -11    1    1    2    0    0  0.67216700404E+01 -0.26841494935E+02  0.11734343244E+03  0.12056171795E+03  0.00000000000E+00 0.  1.
         11    1    1    2    0    0  0.81172006474E+02  0.67842931751E+02  0.53889243630E+03  0.54917812768E+03  0.00000000000E+00 0. -1.
</event>
<event>
 7    1  0.2842702E-009  0.1052900E+03  0.7561462E-02  0.1269549E+00
         -1   -1    0    0    0  501 -0.00000000000E+00  0.00000000000E+00  0.28666179116E+02  0.28666179116E+02  0.00000000000E+00 0.  1.
          1   -1    0    0  501    0  0.00000000000E+00 -0.00000000000E+00 -0.54109209030E+03  0.54109209030E+03  0.00000000000E+00 0. -1.
         25    2    1    2    0    0  0.89443120777E+01 -0.57023064468E+02 -0.27020441411E+03  0.30329948475E+03  0.12509405040E+03 0.  0.
          5    1    3    3  502    0 -0.41442145398E+02 -0.37188613200E+02 -0.22738019371E+03  0.23413600590E+03  0.41800000000E+01 0. -1.
         -5    1    3    3    0  502  0.50386457476E+02 -0.19834451268E+02 -0.42824220399E+02  0.69163478851E+02  0.41800000000E+01 0. -1.
        -11    1    1    2    0    0 -0.40624122230E+02  0.55414407736E+02 -0.10402581638E+03  0.12466934814E+03  0.00000000000E+00 0.  1.
         11    1    1    2    0    0  0.31679810153E+02  0.16086567321E+01 -0.13819568069E+03  0.14178943652E+03  0.00000000000E+00 0. -1.
</event>
<event>
 7    1  0.2842702E-009  0.3140606E+03  0.7561462E-02  0.1078416E+00
          2   -1    0    0  501    0  0.00000000000E+00  0.00000000000E+00  0.15040701236E+04  0.15040701236E+04  0.00000000000E+00 0. -1.
         -2   -1    0    0    0  501 -0.00000000000E+00 -0.00000000000E+00 -0.10005841134E+03  0.10005841134E+03  0.00000000000E+00 0.  1.
         25    2    1    2    0    0 -0.27316944193E+03 -0.12091737372E+03  0.25335001616E+03  0.41118906263E+03  0.12509060421E+03 0.  0.
          5    1    3    3  502    0 -0.24674526734E+03 -0.14384505949E+03  0.24139269766E+03  0.37398199820E+03  0.41800000000E+01 0.  1.
         -5    1    3    3    0  502 -0.26424174594E+02  0.22927685764E+02  0.11957318496E+02  0.37207064424E+02  0.41800000000E+01 0.  1.
        -11    1    1    2    0    0  0.13779199128E+03  0.21903420218E+02  0.65417370447E+03  0.66888685762E+03  0.00000000000E+00 0.  1.
         11    1    1    2    0    0  0.13537745065E+03  0.99013953504E+02  0.49648799166E+03  0.52405261472E+03  0.00000000000E+00 0. -1.
</event>
<event>
 7    1  0.2842702E-009  0.1099361E+03  0.7561462E-02  0.1260688E+00
         -2   -1    0    0    0  501 -0.00000000000E+00  0.00000000000E+00  0.17395307315E+03  0.17395307315E+03  0.00000000000E+00 0.  1.
          2   -1    0    0  501    0  0.00000000000E+00 -0.00000000000E+00 -0.99493146773E+02  0.99493146773E+02  0.00000000000E+00 0. -1.
         25    2    1    2    0    0 -0.28513226692E+02 -0.16134192509E+02 -0.62104333436E+01  0.12945716920E+03  0.12508905991E+03 0.  0.
          5    1    3    3  502    0 -0.22311274644E+02 -0.68143019094E+02 -0.21072740109E+02  0.74851832331E+02  0.41800000000E+01 0. -1.
         -5    1    3    3    0  502 -0.62019520478E+01  0.52008826585E+02  0.14862306766E+02  0.54605336867E+02  0.41800000000E+01 0. -1.
        -11    1    1    2    0    0 -0.75901392930E+00 -0.35842939718E+02  0.76147335775E+02  0.84164773959E+02  0.00000000000E+00 0.  1.
         11    1    1    2    0    0  0.29272240621E+02  0.51977132227E+02  0.45230239496E+01  0.59824276771E+02  0.00000000000E+00 0. -1.
</event>
<event>
 7    1  0.2842702E-009  0.7235087E+02  0.7561462E-02  0.1352276E+00
          1   -1    0    0  501    0  0.00000000000E+00  0.00000000000E+00  0.11286083582E+03  0.11286083582E+03  0.00000000000E+00 0. -1.
         -1   -1    0    0    0  501 -0.00000000000E+00 -0.00000000000E+00 -0.13993182135E+03  0.13993182135E+03  0.00000000000E+00 0.  1.
         25    2    1    2    0    0  0.58467534779E+02 -0.21844906828E+02 -0.52390348438E+01  0.13989652281E+03  0.12509171447E+03 0.  0.
          5    1    3    3  502    0  0.10798431015E+02 -0.25781399464E+02  0.55613600235E+02  0.62382943196E+02  0.41800000000E+01 0. -1.
         -5    1    3    3    0  502  0.47669103764E+02  0.39364926362E+01 -0.60852635079E+02  0.77513579610E+02  0.41800000000E+01 0. -1.
        -11    1    1    2    0    0 -0.19881401254E+02 -0.60853291446E+01  0.33784149438E+02  0.39669510961E+02  0.00000000000E+00 0. -1.
         11    1    1    2    0    0 -0.38586133526E+02  0.27930235972E+02 -0.55616100123E+02  0.73226623402E+02  0.00000000000E+00 0.  1.
</event>
<event>
 7    1  0.2842702E-009  0.1101777E+03  0.7561462E-02  0.1260241E+00
         -2   -1    0    0    0  501 -0.00000000000E+00  0.00000000000E+00  0.45419503205E+02  0.45419503205E+02  0.00000000000E+00 0.  1.
          2   -1    0    0  501    0  0.00000000000E+00 -0.00000000000E+00 -0.66601600117E+03  0.66601600117E+03  0.00000000000E+00 0. -1.
         25    2    1    2    0    0 -0.43770637695E+02 -0.96591625720E+02 -0.50104684361E+03  0.52720070975E+03  0.12508732145E+03 0.  0.
          5    1    3    3  502    0  0.49221360249E+01 -0.27780976774E+02 -0.37145360715E+03  0.37254699671E+03  0.41800000000E+01 0.  1.
         -5    1    3    3    0  502 -0.48692773720E+02 -0.68810648946E+02 -0.12959323646E+03  0.15465371304E+03  0.41800000000E+01 0.  1.
        -11    1    1    2    0    0  0.13983384447E+02  0.14679757247E+02  0.14086424183E+02  0.24687196271E+02  0.00000000000E+00 0.  1.
         11    1    1    2    0    0  0.29787253248E+02  0.81911868473E+02 -0.13363607853E+03  0.15954759835E+03  0.00000000000E+00 0. -1.
</event>
<event>
 7    1  0.2842702E-009  0.1068119E+03  0.7561462E-02  0.1266590E+00
         -4   -1    0    0    0  501 -0.00000000000E+00  0.00000000000E+00  0.19472573877E+02  0.19472573877E+02  0.00000000000E+00 0.  1.
          4   -1    0    0  501    0  0.00000000000E+00 -0.00000000000E+00 -0.66600550879E+03  0.66600550879E+03  0.00000000000E+00 0. -1.
         25    2    1    2    0    0 -0.16549910701E+02 -0.13256407858E+02 -0.45934133290E+03  0.47654141821E+03  0.12509049230E+03 0.  0.
          5    1    3    3  502    0  0.25732645422E+02  0.46575545686E+02 -0.18342075795E+03  0.19102904842E+03  0.41800000000E+01 0.  1.
         -5    1    3    3    0  502 -0.42282556123E+02 -0.59831953544E+02 -0.27592057495E+03  0.28551236978E+03  0.41800000000E+01 0.  1.
        -11    1    1    2    0    0  0.37574424107E+01  0.48874771345E+02 -0.67618512873E+02  0.83517213380E+02  0.00000000000E+00 0.  1.
         11    1    1    2    0    0  0.12792468290E+02 -0.35618363487E+02 -0.11957308914E+03  0.12541945108E+03  0.00000000000E+00 0. -1.
</event>
<event>
 7    1  0.2842702E-009  0.9271723E+02  0.7561462E-02  0.1296402E+00
          2   -1    0    0  501    0  0.00000000000E+00  0.00000000000E+00  0.21875948022E+03  0.21875948022E+03  0.00000000000E+00 0. -1.
         -2   -1    0    0    0  501 -0.00000000000E+00 -0.00000000000E+00 -0.57703058528E+02  0.57703058528E+02  0.00000000000E+00 0.  1.
         25    2    1    2    0    0 -0.72746301572E+01 -0.23854047012E+02  0.11190258718E+03  0.16968022369E+03  0.12508898230E+03 0.  0.
          5    1    3    3  502    0 -0.31240953759E+02  0.22588642655E+02 -0.72984320399E+01  0.39458629969E+02  0.41800000000E+01 0.  1.
         -5    1    3    3    0  502  0.23966323602E+02 -0.46442689668E+02  0.11920101922E+03  0.13022159373E+03  0.41800000000E+01 0.  1.
        -11    1    1    2    0    0  0.21546302246E+02  0.55487525924E+02  0.36608308737E+02  0.69880447496E+02  0.00000000000E+00 0.  1.
         11    1    1    2    0    0 -0.14271672089E+02 -0.31633478911E+02  0.12545525783E+02  0.36901867560E+02  0.00000000000E+00 0. -1.
</event>
<event>
 7    1  0.2842702E-009  0.1206261E+03  0.7561462E-02  0.1242068E+00
         -2   -1    0    0    0  501 -0.00000000000E+00  0.00000000000E+00  0.33601987744E+02  0.33601987744E+02  0.00000000000E+00 0.  1.
          2   -1    0    0  501    0  0.00000000000E+00 -0.00000000000E+00 -0.54649249634E+03  0.54649249634E+03  0.00000000000E+00 0. -1.
         25    2    1    2    0    0 -0.43425497221E+02 -0.35986180958E+02 -0.40801690922E+03  0.43047265327E+03  0.12509247768E+03 0.  0.
          5    1    3    3  502    0  0.21699147448E+02  0.33880740068E+02 -0.14832561253E+03  0.15374237308E+03  0.41800000000E+01 0.  1.
         -5    1    3    3    0  502 -0.65124644669E+02 -0.69866921026E+02 -0.25969129669E+03  0.27673028019E+03  0.41800000000E+01 0.  1.
        -11    1    1    2    0    0 -0.93829691367E+01 -0.23708366004E+02 -0.37010856086E+02  0.44943633549E+02  0.00000000000E+00 0.  1.
         11    1    1    2    0    0  0.52808466357E+02  0.59694546962E+02 -0.67862743289E+02  0.10467819727E+03  0.00000000000E+00 0. -1.
</event>
<event>
 7    1  0.2842702E-009  0.9198160E+02  0.7561462E-02  0.1298123E+00
         -1   -1    0    0    0  501 -0.00000000000E+00  0.00000000000E+00  0.28092217224E+03  0.28092217224E+03  0.00000000000E+00 0.  1.
          1   -1    0    0  501    0  0.00000000000E+00 -0.00000000000E+00 -0.50651153761E+02  0.50651153761E+02  0.00000000000E+00 0. -1.
         25    2    1    2    0    0 -0.29897514607E+02 -0.39293523497E+02  0.11560934788E+03  0.17734280236E+03  0.12508839220E+03 0.  0.
          5    1    3    3  502    0 -0.22258989952E+02 -0.74321414932E+02  0.27995520325E+02  0.82585452165E+02  0.41800000000E+01 0.  1.
         -5    1    3    3    0  502 -0.76385246554E+01  0.35027891435E+02  0.87613827556E+02  0.94757350197E+02  0.41800000000E+01 0.  1.
        -11    1    1    2    0    0 -0.80302430544E+01  0.30092878648E+02  0.11070479079E+03  0.11500268193E+03  0.00000000000E+00 0.  1.
         11    1    1    2    0    0  0.37927757661E+02  0.92006448490E+01  0.39568798102E+01  0.39227841703E+02  0.00000000000E+00 0. -1.
</event>
<event>
 7    1  0.2842702E-009  0.1210577E+03  0.7561462E-02  0.1241362E+00
          1   -1    0    0  501    0  0.00000000000E+00  0.00000000000E+00  0.60372682605E+03  0.60372682605E+03  0.00000000000E+00 0. -1.
         -1   -1    0    0    0  501 -0.00000000000E+00 -0.00000000000E+00 -0.30900927477E+02  0.30900927477E+02  0.00000000000E+00 0.  1.
         25    2    1    2    0    0  0.72519768631E+02 -0.25328733904E+02  0.24237950848E+03  0.28336549861E+03  0.12509003985E+03 0.  0.
          5    1    3    3  502    0  0.44719365780E+02  0.37942858308E+02  0.18280224828E+03  0.19202504146E+03  0.41800000000E+01 0. -1.
         -5    1    3    3    0  502  0.27800402851E+02 -0.63271592211E+02  0.59577260200E+02  0.91340457151E+02  0.41800000000E+01 0. -1.
        -11    1    1    2    0    0 -0.15932696969E+02  0.49907530579E+02  0.10247206363E+03  0.11508751569E+03  0.00000000000E+00 0.  1.
         11    1    1    2    0    0 -0.56587071662E+02 -0.24578796675E+02  0.22797432646E+03  0.23617473923E+03  0.00000000000E+00 0. -1.
</event>
<event>
 7    1  0.2842702E-009  0.1062531E+03  0.7561462E-02  0.1267670E+00
         -4   -1    0    0    0  501 -0.00000000000E+00  0.00000000000E+00  0.21994958936E+02  0.21994958936E+02  0.00000000000E+00 0.  1.
          4   -1    0    0  501    0  0.00000000000E+00 -0.00000000000E+00 -0.61281876462E+03  0.61281876462E+03  0.00000000000E+00 0. -1.
         25    2    1    2    0    0  0.14397133771E+02  0.32404166066E+02 -0.40530276522E+03  0.42564705894E+03  0.12509108623E+03 0.  0.
          5    1    3    3  502    0 -0.30514014055E+02  0.62923206204E+02 -0.28675067288E+03  0.29518444358E+03  0.41800000000E+01 0. -1.
         -5    1    3    3    0  502  0.44911147826E+02 -0.30519040138E+02 -0.11855209234E+03  0.13046261536E+03  0.41800000000E+01 0. -1.
        -11    1    1    2    0    0  0.83119765554E+01  0.24952814042E+02 -0.21638659730E+02  0.34058236563E+02  0.00000000000E+00 0.  1.
         11    1    1    2    0    0 -0.22709110326E+02 -0.57356980108E+02 -0.16388238074E+03  0.17510842805E+03  0.00000000000E+00 0. -1.
</event>
<event>
 7    1  0.2842702E-009  0.1246494E+03  0.7561462E-02  0.1235618E+00
          1   -1    0    0  501    0  0.00000000000E+00  0.00000000000E+00  0.16627866359E+03  0.16627866359E+03  0.00000000000E+00 0. -1.
         -1   -1    0    0    0  501 -0.00000000000E+00 -0.00000000000E+00 -0.11336343536E+03  0.11336343536E+03  0.00000000000E+00 0.  1.
         25    2    1    2    0    0 -0.41088510222E+02  0.69151410023E+02  0.61597174329E+01  0.14882752494E+03  0.12506601009E+03 0.  0.
          5    1    3    3  502    0 -0.81626011236E+02  0.58672489378E+02 -0.15008084997E+02  0.10172503003E+03  0.41800000000E+01 0.  1.
         -5    1    3    3    0  502  0.40537501014E+02  0.10478920645E+02  0.21167802430E+02  0.47102494903E+02  0.41800000000E+01 0.  1.
        -11    1    1    2    0    0  0.93173705588E+01 -0.73899786122E+02  0.60416028723E+02  0.95906664574E+02  0.00000000000E+00 0. -1.
         11    1    1    2    0    0  0.31771139663E+02  0.47483760998E+01 -0.13660517930E+02  0.34907909436E+02  0.00000000000E+00 0.  1.
</event>
<event>
 7    1  0.2842702E-009  0.7699217E+02  0.7561462E-02  0.1337811E+00
          4   -1    0    0  501    0  0.00000000000E+00  0.00000000000E+00  0.11958681595E+03  0.11958681595E+03  0.00000000000E+00 0. -1.
         -4   -1    0    0    0  501 -0.00000000000E+00 -0.00000000000E+00 -0.10699583919E+03  0.10699583919E+03  0.00000000000E+00 0.  1.
         25    2    1    2    0    0 -0.18184047087E+02  0.28779835942E+02  0.13856039802E+02  0.13037966031E+03  0.12509167622E+03 0.  0.
          5    1    3    3  502    0 -0.40136471634E+02 -0.10171177146E+02 -0.41720889832E+02  0.58927873270E+02  0.41800000000E+01 0. -1.
         -5    1    3    3    0  502  0.21952424547E+02  0.38951013088E+02  0.55576929634E+02  0.71451787043E+02  0.41800000000E+01 0. -1.
        -11    1    1    2    0    0  0.32582035869E+02  0.28534300503E+01 -0.34904638252E+02  0.47833721326E+02  0.00000000000E+00 0.  1.
         11    1    1    2    0    0 -0.14397988782E+02 -0.31633265993E+02  0.33639575212E+02  0.48369273498E+02  0.00000000000E+00 0. -1.
</event>
<event>
 7    1  0.2842702E-009  0.2197738E+03  0.7561462E-02  0.1134052E+00
         -1   -1    0    0    0  501 -0.00000000000E+00  0.00000000000E+00  0.60343138095E+03  0.60343138095E+03  0.00000000000E+00 0.  1.
          1   -1    0    0  501    0  0.00000000000E+00 -0.00000000000E+00 -0.94717594716E+02  0.94717594716E+02  0.00000000000E+00 0. -1.
         25    2    1    2    0    0 -0.12412135554E+01  0.20979503987E+03  0.21559061520E+03  0.32579552848E+03  0.12509162103E+03 0.  0.
          5    1    3    3  502    0  0.43936111287E+02  0.69802662706E+02  0.27641103931E+02  0.87087867252E+02  0.41800000000E+01 0. -1.
         -5    1    3    3    0  502 -0.45177324843E+02  0.13999237717E+03  0.18794951127E+03  0.23870766123E+03  0.41800000000E+01 0. -1.
        -11    1    1    2    0    0  0.11540944592E+01 -0.98639866669E+02  0.63713302821E+02  0.11743313070E+03  0.00000000000E+00 0.  1.
         11    1    1    2    0    0  0.87119096189E-01 -0.11115517320E+03  0.22940986821E+03  0.25492031648E+03  0.00000000000E+00 0. -1.
</event>
<event>
 7    1  0.2842702E-009  0.1313327E+03  0.7561462E-02  0.1225492E+00
         -1   -1    0    0    0  501 -0.00000000000E+00  0.00000000000E+00  0.17730131025E+03  0.17730131025E+03  0.00000000000E+00 0.  1.
          1   -1    0    0  501    0  0.00000000000E+00 -0.00000000000E+00 -0.11564701246E+03  0.11564701246E+03  0.00000000000E+00 0. -1.
         25    2    1    2    0    0  0.10139768699E+01  0.88436737282E+02  0.34530932693E+01  0.15327615055E+03  0.12513820289E+03 0.  0.
          5    1    3    3  502    0 -0.49096122037E+02  0.64224610452E+02  0.36084053074E+02  0.88627089951E+02  0.41800000000E+01 0. -1.
         -5    1    3    3    0  502  0.50110098907E+02  0.24212126829E+02 -0.32630959805E+02  0.64649060595E+02  0.41800000000E+01 0. -1.
        -11    1    1    2    0    0  0.39813401611E+02 -0.71230475326E+02  0.46190491773E+02  0.93768060092E+02  0.00000000000E+00 0.  1.
         11    1    1    2    0    0 -0.40827378481E+02 -0.17206261955E+02  0.12010712754E+02  0.45904112071E+02  0.00000000000E+00 0. -1.
</event>
<event>
 7    1  0.2842702E-009  0.1088494E+03  0.7561462E-02  0.1262716E+00
          1   -1    0    0  501    0  0.00000000000E+00  0.00000000000E+00  0.67344957580E+02  0.67344957580E+02  0.00000000000E+00 0. -1.
         -1   -1    0    0    0  501 -0.00000000000E+00 -0.00000000000E+00 -0.18998834797E+03  0.18998834797E+03  0.00000000000E+00 0.  1.
         25    2    1    2    0    0 -0.26038598443E+02  0.17938585407E+00 -0.48457158521E+02  0.13665094481E+03  0.12508934294E+03 0.  0.
          5    1    3    3  502    0 -0.69945999818E+02 -0.21601623392E+02 -0.47661174933E+02  0.87453604955E+02  0.41800000000E+01 0. -1.
         -5    1    3    3    0  502  0.43907401375E+02  0.21781009247E+02 -0.79598358857E+00  0.49197339858E+02  0.41800000000E+01 0. -1.
        -11    1    1    2    0    0 -0.10289040827E+02 -0.39987837649E+02 -0.31603682082E+02  0.51996963778E+02  0.00000000000E+00 0. -1.
         11    1    1    2    0    0  0.36327639270E+02  0.39808451795E+02 -0.42582549792E+02  0.68685396963E+02  0.00000000000E+00 0.  1.
</event>
<event>
 7    1  0.2842702E-009  0.1329980E+03  0.7561462E-02  0.1223074E+00
          1   -1    0    0  501    0  0.00000000000E+00  0.00000000000E+00  0.19127974956E+03  0.19127974956E+03  0.00000000000E+00 0. -1.
         -1   -1    0    0    0  501 -0.00000000000E+00 -0.00000000000E+00 -0.11757506936E+03  0.11757506936E+03  0.00000000000E+00 0.  1.
         25    2    1    2    0    0 -0.80369859191E+02 -0.49297260077E+02  0.81220410395E+02  0.17645334934E+03  0.12509794287E+03 0.  0.
          5    1    3    3  502    0 -0.94132841065E+02 -0.63916011581E+01  0.14079090697E+02  0.95485797516E+02  0.41800000000E+01 0.  1.
         -5    1    3    3    0  502  0.13762981875E+02 -0.42905658919E+02  0.67141319698E+02  0.80967551823E+02  0.41800000000E+01 0.  1.
        -11    1    1    2    0    0  0.68525065677E+02 -0.68979097438E+01 -0.23530962833E+02  0.72780299509E+02  0.00000000000E+00 0.  1.
         11    1    1    2    0    0  0.11844793514E+02  0.56195169821E+02  0.16015232639E+02  0.59621170075E+02  0.00000000000E+00 0. -1.
</event>
<event>
 7    1  0.2842702E-009  0.1021568E+03  0.7561462E-02  0.1275825E+00
         -4   -1    0    0    0  501 -0.00000000000E+00  0.00000000000E+00  0.18923676813E+03  0.18923676813E+03  0.00000000000E+00 0.  1.
          4   -1    0    0  501    0  0.00000000000E+00 -0.00000000000E+00 -0.98731862996E+02  0.98731862996E+02  0.00000000000E+00 0. -1.
         25    2    1    2    0    0  0.43337063163E+02 -0.57930555561E+02  0.92301351678E+02  0.17147420610E+03  0.12509921472E+03 0.  0.
          5    1    3    3  502    0  0.62278579104E+02  0.20544791213E+01  0.88499258773E+02  0.10831635843E+03  0.41800000000E+01 0. -1.
         -5    1    3    3    0  502 -0.18941515942E+02 -0.59985034683E+02  0.38020929048E+01  0.63157847672E+02  0.41800000000E+01 0. -1.
        -11    1    1    2    0    0 -0.82052991497E+01  0.37053176102E+02 -0.43756730643E+02  0.57921639047E+02  0.00000000000E+00 0. -1.
         11    1    1    2    0    0 -0.35131764013E+02  0.20877379459E+02  0.41960284097E+02  0.58572785978E+02  0.00000000000E+00 0.  1.
</event>
<event>
 7    1  0.2842702E-009  0.2194835E+03  0.7561462E-02  0.1134269E+00
         -4   -1    0    0    0  501 -0.00000000000E+00  0.00000000000E+00  0.29001744077E+03  0.29001744077E+03  0.00000000000E+00 0.  1.
          4   -1    0    0  501    0  0.00000000000E+00 -0.00000000000E+00 -0.19724385137E+03  0.19724385137E+03  0.00000000000E+00 0. -1.
         25    2    1    2    0    0 -0.87687849621E+01  0.21187808551E+03  0.21937456710E+02  0.24718014863E+03  0.12509020409E+03 0.  0.
          5    1    3    3  502    0 -0.30842228518E+02  0.64547357699E+02 -0.44131081009E+02  0.84158357617E+02  0.41800000000E+01 0. -1.
         -5    1    3    3    0  502  0.22073443556E+02  0.14733072782E+03  0.66068537719E+02  0.16302179101E+03  0.41800000000E+01 0. -1.
        -11    1    1    2    0    0 -0.21494880124E+02 -0.10588962552E+03  0.72017075140E+02  0.12985030526E+03  0.00000000000E+00 0.  1.
         11    1    1    2    0    0  0.30263665086E+02 -0.10598845999E+03 -0.11809424474E+01  0.11023083825E+03  0.00000000000E+00 0. -1.
</event>
<event>
 7    1  0.2842702E-009  0.1089682E+03  0.7561462E-02  0.1262493E+00
          2   -1    0    0  501    0  0.00000000000E+00  0.00000000000E+00  0.52384891883E+03  0.52384891883E+03  0.00000000000E+00 0. -1.
         -2   -1    0    0    0  501 -0.00000000000E+00 -0.00000000000E+00 -0.35074344705E+02  0.35074344705E+02  0.00000000000E+00 0.  1.
         25    2    1    2    0    0  0.14084844447E+02  0.80946085661E+02  0.32518033624E+03  0.35796990611E+03  0.12509816537E+03 0.  0.
          5    1    3    3  502    0  0.10936225588E+02  0.90657076247E+02  0.33243059148E+03  0.34476930991E+03  0.41800000000E+01 0.  1.
         -5    1    3    3    0  502  0.31486188584E+01 -0.97109905864E+01 -0.72502552450E+01  0.13200596199E+02  0.41800000000E+01 0.  1.
        -11    1    1    2    0    0 -0.20439364906E+02 -0.96527486080E+02  0.12829554250E+03  0.16184890927E+03  0.00000000000E+00 0. -1.
         11    1    1    2    0    0  0.63545204590E+01  0.15581400419E+02  0.35298695389E+02  0.39104448154E+02  0.00000000000E+00 0.  1.
</event>
<event>
 7    1  0.2842702E-009  0.1109723E+03  0.7561462E-02  0.1258780E+00
          2   -1    0    0  501    0  0.00000000000E+00  0.00000000000E+00  0.46561511172E+03  0.46561511172E+03  0.00000000000E+00 0. -1.
         -2   -1    0    0    0  501 -0.00000000000E+00 -0.00000000000E+00 -0.42072627144E+02  0.42072627144E+02  0.00000000000E+00 0.  1.
         25    2    1    2    0    0 -0.38009179625E+02  0.79280477014E+02  0.23084476030E+03  0.27688897042E+03  0.12509239309E+03 0.  0.
          5    1    3    3  502    0 -0.51201710448E+02  0.61974410146E+02  0.23982904926E+03  0.25297803844E+03  0.41800000000E+01 0. -1.
         -5    1    3    3    0  502  0.13192530823E+02  0.17306066868E+02 -0.89842889550E+01  0.23910931977E+02  0.41800000000E+01 0. -1.
        -11    1    1    2    0    0  0.92068671895E+00 -0.82088100243E+02  0.91227524669E+02  0.12272638316E+03  0.00000000000E+00 0.  1.
         11    1    1    2    0    0  0.37088492906E+02  0.28076232285E+01  0.10147019960E+03  0.10807238529E+03  0.00000000000E+00 0. -1.
</event>
<event>
 7    1  0.4736580E-009  0.1170587E+03  0.7561462E-02  0.1248030E+00
         -4   -1    0    0    0  501 -0.00000000000E+00  0.00000000000E+00  0.10165360239E+03  0.10165360239E+03  0.00000000000E+00 0. -1.
          4   -1    0    0  501    0  0.00000000000E+00 -0.00000000000E+00 -0.18056105425E+03  0.18056105425E+03  0.00000000000E+00 0.  1.
         25    2    1    2    0    0 -0.65061694399E+02  0.45935824886E+01  0.69666180017E+01  0.14124646679E+03  0.12509158859E+03 0.  0.
          5    1    3    3  502    0 -0.74425526267E+02 -0.43161951878E+02  0.24165860459E+02  0.89462697600E+02  0.41800000000E+01 0.  1.
         -5    1    3    3    0  502  0.93638318683E+01  0.47755534367E+02 -0.17199242458E+02  0.51783769185E+02  0.41800000000E+01 0.  1.
        -11    1    1    2    0    0 -0.17849422123E+01  0.25688505328E+02  0.27584540357E+01  0.25897768115E+02  0.00000000000E+00 0. -1.
         11    1    1    2    0    0  0.66846636611E+02 -0.30282087817E+02 -0.88632523892E+02  0.11507042174E+03  0.00000000000E+00 0.  1.
</event>
<event>
 7    1  0.2842702E-009  0.4410896E+02  0.7561462E-02  0.1479982E+00
          3   -1    0    0  501    0  0.00000000000E+00  0.00000000000E+00  0.16545708256E+03  0.16545708256E+03  0.00000000000E+00 0. -1.
         -3   -1    0    0    0  501 -0.00000000000E+00 -0.00000000000E+00 -0.74150891570E+02  0.74150891570E+02  0.00000000000E+00 0.  1.
         25    2    1    2    0    0 -0.12880640721E+02 -0.37699785304E+01  0.32165346760E+02  0.12985487327E+03  0.12509018721E+03 0.  0.
          5    1    3    3  502    0 -0.85036458478E+01 -0.13148150566E+02 -0.47098561738E+02  0.49808962786E+02  0.41800000000E+01 0.  1.
         -5    1    3    3    0  502 -0.43769948732E+01  0.93781720358E+01  0.79263908498E+02  0.80045910484E+02  0.41800000000E+01 0.  1.
        -11    1    1    2    0    0 -0.20735836957E+02  0.14793357621E+02  0.68563430608E+02  0.73142069842E+02  0.00000000000E+00 0. -1.
         11    1    1    2    0    0  0.33616477678E+02 -0.11023379090E+02 -0.94225863800E+01  0.36611031017E+02  0.00000000000E+00 0.  1.
</event>
<event>
 7    1  0.2842702E-009  0.2436962E+03  0.7561462E-02  0.1117355E+00
          2   -1    0    0  501    0  0.00000000000E+00  0.00000000000E+00  0.24703394190E+03  0.24703394190E+03  0.00000000000E+00 0. -1.
         -2   -1    0    0    0  501 -0.00000000000E+00 -0.00000000000E+00 -0.25119583358E+03  0.25119583358E+03  0.00000000000E+00 0.  1.
         25    2    1    2    0    0 -0.28470607364E+02  0.21800746257E+03 -0.37821772282E+02  0.25577120476E+03  0.12510233214E+03 0.  0.
          5    1    3    3  502    0 -0.23289281284E+02 -0.65997847538E+01 -0.17474544270E+02  0.30145976165E+02  0.41800000000E+01 0. -1.
         -5    1    3    3    0  502 -0.51813260798E+01  0.22460724733E+03 -0.20347228012E+02  0.22562522860E+03  0.41800000000E+01 0. -1.
        -11    1    1    2    0    0 -0.29370900102E+02 -0.12651088018E+03  0.33841340845E+02  0.13421210424E+03  0.00000000000E+00 0.  1.
         11    1    1    2    0    0  0.57841507465E+02 -0.91496582399E+02 -0.18146024231E+00  0.10824646648E+03  0.00000000000E+00 0. -1.
</event>
<event>
 7    1  0.2842702E-009  0.8944460E+02  0.7561462E-02  0.1304202E+00
         -3   -1    0    0    0  501 -0.00000000000E+00  0.00000000000E+00  0.23154164197E+02  0.23154164197E+02  0.00000000000E+00 0.  1.
          3   -1    0    0  501    0  0.00000000000E+00 -0.00000000000E+00 -0.72307325740E+03  0.72307325740E+03  0.00000000000E+00 0. -1.
         25    2    1    2    0    0  0.30315115446E+02 -0.42413312367E+01 -0.56240837416E+03  0.57696439233E+03  0.12509090924E+03 0.  0.
          5    1    3    3  502    0  0.59636712902E+02  0.16233036071E+02 -0.50773342964E+03  0.51149854053E+03  0.41800000000E+01 0.  1.
         -5    1    3    3    0  502 -0.29321597456E+02 -0.20474367307E+02 -0.54674944519E+02  0.65465851802E+02  0.41800000000E+01 0.  1.
        -11    1    1    2    0    0  0.24481679895E+02  0.86422063444E+01 -0.58880787481E+01  0.26621604991E+02  0.00000000000E+00 0.  1.
         11    1    1    2    0    0 -0.54796795341E+02 -0.44008751077E+01 -0.13162264030E+03  0.14264142428E+03  0.00000000000E+00 0. -1.
</event>
<event>
 7    1  0.2842702E-009  0.2262651E+03  0.7561462E-02  0.1129296E+00
         -1   -1    0    0    0  501 -0.00000000000E+00  0.00000000000E+00  0.73584903002E+02  0.73584903002E+02  0.00000000000E+00 0.  1.
          1   -1    0    0  501    0  0.00000000000E+00 -0.00000000000E+00 -0.99057292962E+03  0.99057292962E+03  0.00000000000E+00 0. -1.
         25    2    1    2    0    0 -0.22333701176E+03 -0.58562728446E+01 -0.26341893995E+03  0.36735638399E+03  0.12508980047E+03 0.  0.
          5    1    3    3  502    0 -0.14084734586E+03 -0.27604371252E+02 -0.23849493328E+03  0.27838333598E+03  0.41800000000E+01 0. -1.
         -5    1    3    3    0  502 -0.82489665899E+02  0.21748098408E+02 -0.24924006669E+02  0.88973048014E+02  0.41800000000E+01 0. -1.
        -11    1    1    2    0    0  0.95990359180E+02  0.61129504939E+01 -0.15663738182E+03  0.18381182389E+03  0.00000000000E+00 0.  1.
         11    1    1    2    0    0  0.12734665258E+03 -0.25667764929E+00 -0.49693170485E+03  0.51298962474E+03  0.00000000000E+00 0. -1.
</event>
<event>
 7    1  0.2842702E-009  0.1200881E+03  0.7561462E-02  0.1242952E+00
         -2   -1    0    0    0  501 -0.00000000000E+00  0.00000000000E+00  0.34528924684E+03  0.34528924684E+03  0.00000000000E+00 0.  1.
          2   -1    0    0  501    0  0.00000000000E+00 -0.00000000000E+00 -0.55632838486E+02  0.55632838486E+02  0.00000000000E+00 0. -1.
         25    2    1    2    0    0 -0.30452017396E+02 -0.72165002578E+02  0.21134193724E+03  0.25777585098E+03  0.12509141439E+03 0.  0.
          5    1    3    3  502    0 -0.97933283556E+01 -0.91867681501E+02  0.76913658508E+02  0.12028617314E+03  0.41800000000E+01 0.  1.
         -5    1    3    3    0  502 -0.20658689040E+02  0.19702678923E+02  0.13442827873E+03  0.13748967784E+03  0.41800000000E+01 0.  1.
        -11    1    1    2    0    0  0.48762084355E+02  0.83937337766E+02  0.56450592770E+02  0.11229375301E+03  0.00000000000E+00 0. -1.
         11    1    1    2    0    0 -0.18310066959E+02 -0.11772335189E+02  0.21863878347E+02  0.30852481330E+02  0.00000000000E+00 0.  1.
</event>
<event>
 7    1  0.2842702E-009  0.1738820E+03  0.7561462E-02  0.1173859E+00
         -2   -1    0    0    0  501 -0.00000000000E+00  0.00000000000E+00  0.43618075058E+03  0.43618075058E+03  0.00000000000E+00 0.  1.
          2   -1    0    0  501    0  0.00000000000E+00 -0.00000000000E+00 -0.84295409887E+02  0.84295409887E+02  0.00000000000E+00 0. -1.
         25    2    1    2    0    0 -0.14410548230E+03 -0.61453884642E+02  0.20430821386E+03  0.28624484174E+03  0.12510512861E+03 0.  0.
          5    1    3    3  502    0 -0.12132734598E+03 -0.82646004169E+02  0.10091409917E+03  0.17819038891E+03  0.41800000000E+01 0.  1.
         -5    1    3    3    0  502 -0.22778136321E+02  0.21192119527E+02  0.10339411469E+03  0.10805445283E+03  0.41800000000E+01 0.  1.
        -11    1    1    2    0    0  0.62036322013E+02  0.61624969701E+02  0.11827286611E+03  0.14708709324E+03  0.00000000000E+00 0.  1.
         11    1    1    2    0    0  0.82069160286E+02 -0.17108505885E+00  0.29304260726E+02  0.87144225494E+02  0.00000000000E+00 0. -1.
</event>
<event>
 7    1  0.2842702E-009  0.1432263E+03  0.7561462E-02  0.1209052E+00
         -2   -1    0    0    0  501 -0.00000000000E+00  0.00000000000E+00  0.13469922297E+02  0.13469922297E+02  0.00000000000E+00 0.  1.
          2   -1    0    0  501    0  0.00000000000E+00 -0.00000000000E+00 -0.19526102755E+04  0.19526102755E+04  0.00000000000E+00 0. -1.
         25    2    1    2    0    0  0.78990001965E+02 -0.72949250971E+02 -0.13542237111E+04  0.13642323505E+04  0.12508809957E+03 0.  0.
          5    1    3    3  502    0  0.82833469006E+02  0.70871029381E+01 -0.78017864487E+03  0.78460678108E+03  0.41800000000E+01 0.  1.
         -5    1    3    3    0  502 -0.38434670414E+01 -0.80036353909E+02 -0.57404506626E+03  0.57962556938E+03  0.41800000000E+01 0.  1.
        -11    1    1    2    0    0 -0.18608427061E+02 -0.94093888889E+01 -0.24364396718E+02  0.32069206170E+02  0.00000000000E+00 0.  1.
         11    1    1    2    0    0 -0.60381574904E+02  0.82358639860E+02 -0.56055224540E+03  0.56977864120E+03  0.00000000000E+00 0. -1.
</event>
<event>
 7    1  0.2842702E-009  0.3082964E+03  0.7561462E-02  0.1081165E+00
         -2   -1    0    0    0  501 -0.00000000000E+00  0.00000000000E+00  0.78204647021E+02  0.78204647021E+02  0.00000000000E+00 0. -1.
          2   -1    0    0  501    0  0.00000000000E+00 -0.00000000000E+00 -0.13166209700E+04  0.13166209700E+04  0.00000000000E+00 0.  1.
         25    2    1    2    0    0  0.29414649284E+03 -0.64878699782E+02 -0.65661108282E+03  0.73315654216E+03  0.12509594834E+03 0.  0.
          5    1    3    3  502    0  0.46652005724E+02 -0.19561880385E+02 -0.24902851332E+03  0.25414906974E+03  0.41800000000E+01 0. -1.
         -5    1    3    3    0  502  0.24749448712E+03 -0.45316819398E+02 -0.40758256950E+03  0.47900747242E+03  0.41800000000E+01 0. -1.
        -11    1    1    2    0    0 -0.15761363346E+03  0.80119428932E+02 -0.30180869001E+03  0.34978517080E+03  0.00000000000E+00 0. -1.
         11    1    1    2    0    0 -0.13653285938E+03 -0.15240729150E+02 -0.27999655010E+03  0.31188390402E+03  0.00000000000E+00 0.  1.
</event>
<event>
 7    1  0.2842702E-009  0.1456185E+03  0.7561462E-02  0.1205963E+00
          1   -1    0    0  501    0  0.00000000000E+00  0.00000000000E+00  0.19393958858E+03  0.19393958858E+03  0.00000000000E+00 0. -1.
         -1   -1    0    0    0  501 -0.00000000000E+00 -0.00000000000E+00 -0.19091277297E+03  0.19091277297E+03  0.00000000000E+00 0.  1.
         25    2    1    2    0    0 -0.11557259629E+03 -0.74323412555E+02 -0.78077630567E+02  0.20155623745E+03  0.12509118992E+03 0.  0.
          5    1    3    3  502    0 -0.63708502749E+02 -0.76654792733E+02  0.89203994029E+01  0.10015875647E+03  0.41800000000E+01 0.  1.
         -5    1    3    3    0  502 -0.51864093538E+02  0.23313801781E+01 -0.86998029970E+02  0.10139748099E+03  0.41800000000E+01 0.  1.
        -11    1    1    2    0    0  0.59958835121E+02  0.52343056645E+02 -0.35263310342E+01  0.79669897066E+02  0.00000000000E+00 0.  1.
         11    1    1    2    0    0  0.55613761166E+02  0.21980355910E+02  0.84630777209E+02  0.10362622703E+03  0.00000000000E+00 0. -1.
</event>
<event>
 7    1  0.2842702E-009  0.1434214E+03  0.7561462E-02  0.1208798E+00
         -1   -1    0    0    0  501 -0.00000000000E+00  0.00000000000E+00  0.14355041080E+03  0.14355041080E+03  0.00000000000E+00 0.  1.
          1   -1    0    0  501    0  0.00000000000E+00 -0.00000000000E+00 -0.18283182190E+03  0.18283182190E+03  0.00000000000E+00 0. -1.
         25    2    1    2    0    0 -0.11416630903E+03  0.11406830510E+02 -0.56657274667E+02  0.17892432818E+03  0.12505921215E+03 0.  0.
          5    1    3    3  502    0 -0.89241852278E+02  0.48583558755E+02  0.59276657977E+01  0.10186795375E+03  0.41800000000E+01 0. -1.
         -5    1    3    3    0  502 -0.24924456749E+02 -0.37176728245E+02 -0.62584940465E+02  0.77056374430E+02  0.41800000000E+01 0. -1.
        -11    1    1    2    0    0  0.30156894041E+02  0.33385637329E+02 -0.14161567461E+02  0.47165549196E+02  0.00000000000E+00 0. -1.
         11    1    1    2    0    0  0.84009414987E+02 -0.44792467839E+02  0.31537431031E+02  0.10029235533E+03  0.00000000000E+00 0.  1.
</event>
<event>
 7    1  0.2842702E-009  0.2007423E+03  0.7561462E-02  0.1149114E+00
         -1   -1    0    0    0  501 -0.00000000000E+00  0.00000000000E+00  0.12300901637E+03  0.12300901637E+03  0.00000000000E+00 0.  1.
          1   -1    0    0  501    0  0.00000000000E+00 -0.00000000000E+00 -0.47962312219E+03  0.47962312219E+03  0.00000000000E+00 0. -1.
         25    2    1    2    0    0 -0.13111476995E+03 -0.15085493167E+03 -0.28810664018E+03  0.37229083684E+03  0.12508692088E+03 0.  0.
          5    1    3    3  502    0 -0.36990585730E+02 -0.27626054895E+02 -0.17306792734E+03  0.17916886508E+03  0.41800000000E+01 0.  1.
         -5    1    3    3    0  502 -0.94124184217E+02 -0.12322887677E+03 -0.11503871284E+03  0.19312197176E+03  0.41800000000E+01 0.  1.
        -11    1    1    2    0    0  0.39034289125E+02  0.50163842136E+02  0.21250036453E+02  0.67019779428E+02  0.00000000000E+00 0.  1.
         11    1    1    2    0    0  0.92080480822E+02  0.10069108953E+03 -0.89757502095E+02  0.16332152229E+03  0.00000000000E+00 0. -1.
</event>
<event>
 7    1  0.2842702E-009  0.1033271E+03  0.7561462E-02  0.1273451E+00
         -1   -1    0    0    0  501 -0.00000000000E+00  0.00000000000E+00  0.31399856446E+03  0.31399856446E+03  0.00000000000E+00 0.  1.
          1   -1    0    0  501    0  0.00000000000E+00 -0.00000000000E+00 -0.42199196568E+02  0.42199196568E+02  0.00000000000E+00 0. -1.
         25    2    1    2    0    0 -0.18151166454E+02 -0.47239674298E+02  0.14001016773E+03  0.19445173582E+03  0.12509028269E+03 0.  0.
          5    1    3    3  502    0 -0.33473671238E+02  0.29138075884E+02  0.14876667432E+02  0.46992571395E+02  0.41800000000E+01 0. -1.
         -5    1    3    3    0  502  0.15322504785E+02 -0.76377750182E+02  0.12513350029E+03  0.14745916442E+03  0.41800000000E+01 0. -1.
        -11    1    1    2    0    0  0.10722370397E+02 -0.16618916570E+02  0.69391074848E+02  0.72154548599E+02  0.00000000000E+00 0.  1.
         11    1    1    2    0    0  0.74287960570E+01  0.63858590868E+02  0.62398125318E+02  0.89591476613E+02  0.00000000000E+00 0. -1.
</event>
<event>
 7    1  0.2842702E-009  0.2162244E+03  0.7561462E-02  0.1136730E+00
          2   -1    0    0  501    0  0.00000000000E+00  0.00000000000E+00  0.44967232334E+03  0.44967232334E+03  0.00000000000E+00 0. -1.
         -2   -1    0    0    0  501 -0.00000000000E+00 -0.00000000000E+00 -0.12752447457E+03  0.12752447457E+03  0.00000000000E+00 0.  1.
         25    2    1    2    0    0 -0.15298325245E+03  0.11196654224E+03  0.48049225054E+02  0.23215617377E+03  0.12508948348E+03 0.  0.
          5    1    3    3  502    0 -0.11802234112E+03  0.95769635486E+01  0.18478568391E+02  0.11991630883E+03  0.41800000000E+01 0.  1.
         -5    1    3    3    0  502 -0.34960911339E+02  0.10238957869E+03  0.29570656663E+02  0.11223986494E+03  0.41800000000E+01 0.  1.
        -11    1    1    2    0    0  0.90687716970E+02 -0.17234379622E+02  0.90619341945E+02  0.12935668125E+03  0.00000000000E+00 0.  1.
         11    1    1    2    0    0  0.62295535484E+02 -0.94732162622E+02  0.18347928178E+03  0.21568394288E+03  0.00000000000E+00 0. -1.
</event>
<event>
 7    1  0.3001217E-009  0.1153803E+03  0.7561462E-02  0.1250919E+00
          1   -1    0    0  501    0  0.00000000000E+00  0.00000000000E+00  0.23435986799E+03  0.23435986799E+03  0.00000000000E+00 0. -1.
         -1   -1    0    0    0  501 -0.00000000000E+00 -0.00000000000E+00 -0.86300693390E+02  0.86300693390E+02  0.00000000000E+00 0.  1.
         25    2    1    2    0    0  0.41097898796E+01  0.65920557729E+02  0.15216451221E+03  0.20775995861E+03  0.12509097218E+03 0.  0.
          5    1    3    3  502    0 -0.30581607882E+02 -0.26472723175E+02  0.29345311961E+02  0.50146381196E+02  0.41800000000E+01 0. -1.
         -5    1    3    3    0  502  0.34691397762E+02  0.92393280904E+02  0.12281920025E+03  0.15761357741E+03  0.41800000000E+01 0. -1.
        -11    1    1    2    0    0 -0.31213428057E+02 -0.17389146068E+02 -0.34396446409E+02  0.49596129058E+02  0.00000000000E+00 0.  1.
         11    1    1    2    0    0  0.27103638177E+02 -0.48531411661E+02  0.30291108807E+02  0.63304473720E+02  0.00000000000E+00 0. -1.
</event>
<event>
 7    1  0.2842702E-009  0.1900648E+03  0.7561462E-02  0.1158403E+00
         -2   -1    0    0    0  501 -0.00000000000E+00  0.00000000000E+00  0.82162800852E+02  0.82162800852E+02  0.00000000000E+00 0.  1.
          2   -1    0    0  501    0  0.00000000000E+00 -0.00000000000E+00 -0.52524195272E+03  0.52524195272E+03  0.00000000000E+00 0. -1.
         25    2    1    2    0    0 -0.61547180574E+02  0.15780697801E+03 -0.28559506030E+03  0.35482797438E+03  0.12508898909E+03 0.  0.
          5    1    3    3  502    0 -0.46236012449E+02  0.17836220712E+03 -0.25618368774E+03  0.31559214192E+03  0.41800000000E+01 0. -1.
         -5    1    3    3    0  502 -0.15311168125E+02 -0.20555229113E+02 -0.29411372557E+02  0.39235832461E+02  0.41800000000E+01 0. -1.
        -11    1    1    2    0    0  0.80672700882E+01 -0.34840811133E+02 -0.10087151339E+03  0.10702347957E+03  0.00000000000E+00 0. -1.
         11    1    1    2    0    0  0.53479910486E+02 -0.12296616688E+03 -0.56612578185E+02  0.14555329962E+03  0.00000000000E+00 0.  1.
</event>
<event>
 7    1  0.2842702E-009  0.1411766E+03  0.7561462E-02  0.1211754E+00
         -2   -1    0    0    0  501 -0.00000000000E+00  0.00000000000E+00  0.28204418632E+02  0.28204418632E+02  0.00000000000E+00 0.  1.
          2   -1    0    0  501    0  0.00000000000E+00 -0.00000000000E+00 -0.10390286214E+04  0.10390286214E+04  0.00000000000E+00 0. -1.
         25    2    1    2    0    0  0.12882917961E+03  0.18691227386E+02 -0.60621704377E+03  0.63252352166E+03  0.12506231168E+03 0.  0.
          5    1    3    3  502    0  0.90548587414E+02  0.41601762006E+02 -0.55742938956E+03  0.56628151129E+03  0.41800000000E+01 0.  1.
         -5    1    3    3    0  502  0.38280592193E+02 -0.22910534620E+02 -0.48787654213E+02  0.66242010377E+02  0.41800000000E+01 0.  1.
        -11    1    1    2    0    0 -0.51179499783E+02 -0.30025316999E+02 -0.73663559019E+02  0.94589538461E+02  0.00000000000E+00 0.  1.
         11    1    1    2    0    0 -0.77649679824E+02  0.11334089613E+02 -0.33094359999E+03  0.34011997991E+03  0.00000000000E+00 0. -1.
</event>
<event>
 7    1  0.2842702E-009  0.1013564E+03  0.7561462E-02  0.1277469E+00
          1   -1    0    0  501    0  0.00000000000E+00  0.00000000000E+00  0.76605004075E+02  0.76605004075E+02  0.00000000000E+00 0. -1.
         -1   -1    0    0    0  501 -0.00000000000E+00 -0.00000000000E+00 -0.23406387952E+03  0.23406387952E+03  0.00000000000E+00 0.  1.
         25    2    1    2    0    0 -0.24379187805E+02 -0.11182978886E+02 -0.17207540271E+03  0.21441053328E+03  0.12507009535E+03 0.  0.
          5    1    3    3  502    0  0.27666537143E+02  0.40191183786E+02 -0.39384814388E+02  0.62844288014E+02  0.41800000000E+01 0. -1.
         -5    1    3    3    0  502 -0.52045724948E+02 -0.51374162672E+02 -0.13269058832E+03  0.15156624527E+03  0.41800000000E+01 0. -1.
        -11    1    1    2    0    0  0.25652885244E+02 -0.29895452554E+02 -0.18459338142E+02  0.43503514449E+02  0.00000000000E+00 0.  1.
         11    1    1    2    0    0 -0.12736974393E+01  0.41078431440E+02  0.33075865405E+02  0.52754835864E+02  0.00000000000E+00 0. -1.
</event>
<event>
 7    1  0.2842702E-009  0.1055652E+03  0.7561462E-02  0.1269010E+00
          1   -1    0    0  501    0  0.00000000000E+00  0.00000000000E+00  0.40616280281E+02  0.40616280281E+02  0.00000000000E+00 0. -1.
         -1   -1    0    0    0  501 -0.00000000000E+00 -0.00000000000E+00 -0.32302980640E+03  0.32302980640E+03  0.00000000000E+00 0.  1.
         25    2    1    2    0    0  0.18874234075E+02 -0.29739456504E+02 -0.17972383149E+03  0.22178264935E+03  0.12508483506E+03 0.  0.
          5    1    3    3  502    0  0.60945103938E+02 -0.36820037503E+02 -0.15879719089E+03  0.17408055919E+03  0.41800000000E+01 0.  1.
         -5    1    3    3    0  502 -0.42070869863E+02  0.70805809985E+01 -0.20926640601E+02  0.47702090155E+02  0.41800000000E+01 0.  1.
        -11    1    1    2    0    0 -0.32773302536E+01 -0.32555070373E+02 -0.44269659643E+02  0.55048853444E+02  0.00000000000E+00 0.  1.
         11    1    1    2    0    0 -0.15596903822E+02  0.62294526878E+02 -0.58420034987E+02  0.86814583888E+02  0.00000000000E+00 0. -1.
</event>
<event>
 7    1  0.2842702E-009  0.1161172E+03  0.7561462E-02  0.1249643E+00
          2   -1    0    0  501    0  0.00000000000E+00  0.00000000000E+00  0.12479168068E+03  0.12479168068E+03  0.00000000000E+00 0. -1.
         -2   -1    0    0    0  501 -0.00000000000E+00 -0.00000000000E+00 -0.13079040963E+03  0.13079040963E+03  0.00000000000E+00 0.  1.
         25    2    1    2    0    0 -0.48736971927E+02 -0.45824873933E+02 -0.14020938543E+02  0.14256392374E+03  0.12511064755E+03 0.  0.
          5    1    3    3  502    0  0.31539177718E+02  0.55681270591E+01  0.23603311108E+02  0.40003905626E+02  0.41800000000E+01 0.  1.
         -5    1    3    3    0  502 -0.80276149645E+02 -0.51393000992E+02 -0.37624249651E+02  0.10256001811E+03  0.41800000000E+01 0.  1.
        -11    1    1    2    0    0  0.17762150799E+02  0.65476962593E+02 -0.15302327487E+02  0.69547737978E+02  0.00000000000E+00 0.  1.
         11    1    1    2    0    0  0.30974821128E+02 -0.19652088660E+02  0.23324537081E+02  0.43470428599E+02  0.00000000000E+00 0. -1.
</event>
<event>
 7    1  0.2842702E-009  0.8059290E+02  0.7561462E-02  0.1327377E+00
          3   -1    0    0  501    0  0.00000000000E+00  0.00000000000E+00  0.12440978729E+03  0.12440978729E+03  0.00000000000E+00 0. -1.
         -3   -1    0    0    0  501 -0.00000000000E+00 -0.00000000000E+00 -0.14423467339E+03  0.14423467339E+03  0.00000000000E+00 0.  1.
         25    2    1    2    0    0  0.27095649948E+02 -0.61193919567E+02  0.30606617892E+02  0.14517802834E+03  0.12514401630E+03 0.  0.
          5    1    3    3  502    0  0.44164743802E+02 -0.47144124042E+02  0.72764349654E+02  0.97392073638E+02  0.41800000000E+01 0. -1.
         -5    1    3    3    0  502 -0.17069093855E+02 -0.14049795526E+02 -0.42157731762E+02  0.47785954701E+02  0.41800000000E+01 0. -1.
        -11    1    1    2    0    0 -0.28283518604E+02  0.25030245908E+02  0.21129925252E+02  0.43277527379E+02  0.00000000000E+00 0. -1.
         11    1    1    2    0    0  0.11878686565E+01  0.36163673659E+02 -0.71561429246E+02  0.80188904970E+02  0.00000000000E+00 0.  1.
</event>
<event>
 7    1  0.2842702E-009  0.7393192E+02  0.7561462E-02  0.1347211E+00
         -1   -1    0    0    0  501 -0.00000000000E+00  0.00000000000E+00  0.14059637063E+03  0.14059637063E+03  0.00000000000E+00 0.  1.
          1   -1    0    0  501    0  0.00000000000E+00 -0.00000000000E+00 -0.10205916875E+03  0.10205916875E+03  0.00000000000E+00 0. -1.
         25    2    1    2    0    0  0.38147832126E+02 -0.15624178021E+01 -0.12289784795E+02  0.13136088933E+03  0.12508775396E+03 0.  0.
          5    1    3    3  502    0  0.77238754235E+00  0.24838885143E+02 -0.60026834389E+02  0.65101920436E+02  0.41800000000E+01 0.  1.
         -5    1    3    3    0  502  0.37375444584E+02 -0.26401302946E+02  0.47737049594E+02  0.66258968895E+02  0.41800000000E+01 0.  1.
        -11    1    1    2    0    0 -0.51069083886E+02  0.19449747942E+02 -0.13281819649E+01  0.54663590180E+02  0.00000000000E+00 0. -1.
         11    1    1    2    0    0  0.12921251760E+02 -0.17887330139E+02  0.52155168633E+02  0.56631059868E+02  0.00000000000E+00 0.  1.
</event>
<event>
 7    1  0.2842702E-009  0.1056334E+03  0.7561462E-02  0.1268877E+00
         -2   -1    0    0    0  501 -0.00000000000E+00  0.00000000000E+00  0.16772459324E+02  0.16772459324E+02  0.00000000000E+00 0. -1.
          2   -1    0    0  501    0  0.00000000000E+00 -0.00000000000E+00 -0.13137605957E+04  0.13137605957E+04  0.00000000000E+00 0.  1.
         25    2    1    2    0    0  0.24440603736E+02 -0.46418792470E+02 -0.10809221961E+04  0.10893978895E+04  0.12507166013E+03 0.  0.
          5    1    3    3  502    0  0.49104965417E+02  0.82605157569E+01 -0.82478526115E+03  0.82629760568E+03  0.41800000000E+01 0.  1.
         -5    1    3    3    0  502 -0.24664361681E+02 -0.54679308227E+02 -0.25613693494E+03  0.26310028378E+03  0.41800000000E+01 0.  1.
        -11    1    1    2    0    0  0.39858076353E+01  0.66336895427E+02 -0.10063100493E+03  0.12059464959E+03  0.00000000000E+00 0.  1.
         11    1    1    2    0    0 -0.28426411371E+02 -0.19918102957E+02 -0.11543493540E+03  0.12054051601E+03  0.00000000000E+00 0. -1.
</event>
<event>
 7    1  0.2842702E-009  0.1840901E+03  0.7561462E-02  0.1163902E+00
         -2   -1    0    0    0  501 -0.00000000000E+00  0.00000000000E+00  0.26417068631E+02  0.26417068631E+02  0.00000000000E+00 0.  1.
          2   -1    0    0  501    0  0.00000000000E+00 -0.00000000000E+00 -0.16492300054E+04  0.16492300054E+04  0.00000000000E+00 0. -1.
         25    2    1    2    0    0 -0.41522407314E+02  0.17041366670E+03 -0.91191793244E+03  0.93702077556E+03  0.12509472498E+03 0.  0.
          5    1    3    3  502    0 -0.73856278033E+01  0.87530477288E+02 -0.18787416968E+03  0.20743747970E+03  0.41800000000E+01 0.  1.
         -5    1    3    3    0  502 -0.34136779511E+02  0.82883189412E+02 -0.72404376277E+03  0.72958329586E+03  0.41800000000E+01 0.  1.
        -11    1    1    2    0    0 -0.20549590350E+02 -0.65018283200E+02 -0.37510585872E+03  0.38125328597E+03  0.00000000000E+00 0. -1.
         11    1    1    2    0    0  0.62071997665E+02 -0.10539538350E+03 -0.33578914559E+03  0.35737301249E+03  0.00000000000E+00 0.  1.
</event>
<event>
 7    1  0.2842702E-009  0.1340619E+03  0.7561462E-02  0.1221550E+00
          2   -1    0    0  501    0  0.00000000000E+00  0.00000000000E+00  0.10039811447E+04  0.10039811447E+04  0.00000000000E+00 0. -1.
         -2   -1    0    0    0  501 -0.00000000000E+00 -0.00000000000E+00 -0.28512912004E+02  0.28512912004E+02  0.00000000000E+00 0.  1.
         25    2    1    2    0    0  0.92913949169E+02  0.73619656813E+02  0.68241312475E+03  0.70383807656E+03  0.12509000504E+03 0.  0.
          5    1    3    3  502    0 -0.55441984251E+01  0.78885576011E+01 -0.69812572600E+00  0.10532200944E+02  0.41800000000E+01 0.  1.
         -5    1    3    3    0  502  0.98458147594E+02  0.65731099212E+02  0.68311125048E+03  0.69330587562E+03  0.41800000000E+01 0.  1.
        -11    1    1    2    0    0  0.90842637504E+01  0.50063110631E+01  0.22552915804E+01  0.10614769826E+02  0.00000000000E+00 0.  1.
         11    1    1    2    0    0 -0.10199821292E+03 -0.78625967877E+02  0.29079981635E+03  0.31804121030E+03  0.00000000000E+00 0. -1.
</event>
<event>
 7    1  0.2842702E-009  0.1078832E+03  0.7561462E-02  0.1264541E+00
         -1   -1    0    0    0  501 -0.00000000000E+00  0.00000000000E+00  0.64613813389E+03  0.64613813389E+03  0.00000000000E+00 0.  1.
          1   -1    0    0  501    0  0.00000000000E+00 -0.00000000000E+00 -0.34859156344E+02  0.34859156344E+02  0.00000000000E+00 0. -1.
         25    2    1    2    0    0 -0.75564103432E+01 -0.94101120554E+02  0.23828524073E+03  0.28519994365E+03  0.12508809569E+03 0.  0.
          5    1    3    3  502    0  0.16603563445E+02 -0.89945993096E+02  0.70437714337E+02  0.11552014540E+03  0.41800000000E+01 0. -1.
         -5    1    3    3    0  502 -0.24159973789E+02 -0.41551274583E+01  0.16784752639E+03  0.16967979825E+03  0.41800000000E+01 0. -1.
        -11    1    1    2    0    0  0.15368731148E+02  0.22131036841E+02  0.15576613558E+02  0.31122525262E+02  0.00000000000E+00 0. -1.
         11    1    1    2    0    0 -0.78123208050E+01  0.71970083713E+02  0.35741712326E+03  0.36467482133E+03  0.00000000000E+00 0.  1.
</event>
<event>
 7    1  0.2842702E-009  0.8442839E+02  0.7561462E-02  0.1316934E+00
         -2   -1    0    0    0  501 -0.00000000000E+00  0.00000000000E+00  0.15302106626E+03  0.15302106626E+03  0.00000000000E+00 0.  1.
          2   -1    0    0  501    0  0.00000000000E+00 -0.00000000000E+00 -0.83210235738E+02  0.83210235738E+02  0.00000000000E+00 0. -1.
         25    2    1    2    0    0 -0.64247396751E+01  0.29865468677E+02  0.62887647739E+02  0.14330168515E+03  0.12508914113E+03 0.  0.
          5    1    3    3  502    0  0.33515891585E+02  0.23817326090E+02  0.86825679479E+02  0.96160028222E+02  0.41800000000E+01 0. -1.
         -5    1    3    3    0  502 -0.39940631260E+02  0.60481425867E+01 -0.23938031740E+02  0.47141656926E+02  0.41800000000E+01 0. -1.
        -11    1    1    2    0    0 -0.36413650854E+02 -0.34225266881E+01  0.18919179977E+02  0.41177700622E+02  0.00000000000E+00 0.  1.
         11    1    1    2    0    0  0.42838390529E+02 -0.26442941988E+02 -0.11995997197E+02  0.51751916224E+02  0.00000000000E+00 0. -1.
</event>
<event>
 7    1  0.2842702E-009  0.8488098E+02  0.7561462E-02  0.1315744E+00
         -1   -1    0    0    0  501 -0.00000000000E+00  0.00000000000E+00  0.40251694837E+02  0.40251694837E+02  0.00000000000E+00 0.  1.
          1   -1    0    0  501    0  0.00000000000E+00 -0.00000000000E+00 -0.39293141709E+03  0.39293141709E+03  0.00000000000E+00 0. -1.
         25    2    1    2    0    0  0.43463428366E+02  0.39443901417E+02 -0.28991222335E+03  0.32115652101E+03  0.12509005865E+03 0.  0.
          5    1    3    3  502    0 -0.15662648529E+02 -0.11490831422E+02 -0.20419751801E+03  0.20516202506E+03  0.41800000000E+01 0. -1.
         -5    1    3    3    0  502  0.59126076895E+02  0.50934732839E+02 -0.85714705344E+02  0.11599449595E+03  0.41800000000E+01 0. -1.
        -11    1    1    2    0    0  0.55368722274E+01 -0.16934433885E+02  0.10784000016E+02  0.20826105286E+02  0.00000000000E+00 0.  1.
         11    1    1    2    0    0 -0.49000300594E+02 -0.22509467532E+02 -0.73551498920E+02  0.91200485636E+02  0.00000000000E+00 0. -1.
</event>
<event>
 7    1  0.2842702E-009  0.1231387E+03  0.7561462E-02  0.1238007E+00
         -2   -1    0    0    0  501 -0.00000000000E+00  0.00000000000E+00  0.52323015112E+02  0.52323015112E+02  0.00000000000E+00 0.  1.
          2   -1    0    0  501    0  0.00000000000E+00 -0.00000000000E+00 -0.36026027705E+03  0.36026027705E+03  0.00000000000E+00 0. -1.
         25    2    1    2    0    0  0.47417736875E+02  0.47400792984E+02 -0.25815459132E+03  0.29459616022E+03  0.12509127727E+03 0.  0.
          5    1    3    3  502    0  0.39441237325E+02 -0.37998803722E+02 -0.83082956911E+02  0.99598044233E+02  0.41800000000E+01 0. -1.
         -5    1    3    3    0  502  0.79764995493E+01  0.85399596705E+02 -0.17507163441E+03  0.19499811599E+03  0.41800000000E+01 0. -1.
        -11    1    1    2    0    0  0.61907657248E+01  0.19088957037E+02 -0.17676145807E+02  0.26742475420E+02  0.00000000000E+00 0. -1.
         11    1    1    2    0    0 -0.53608502599E+02 -0.66489750020E+02 -0.32106524810E+02  0.91244656524E+02  0.00000000000E+00 0.  1.
</event>
<event>
 7    1  0.3140063E-009  0.1235883E+03  0.7561462E-02  0.1237292E+00
         -2   -1    0    0    0  501 -0.00000000000E+00  0.00000000000E+00  0.51052101145E+02  0.51052101145E+02  0.00000000000E+00 0.  1.
          2   -1    0    0  501    0  0.00000000000E+00 -0.00000000000E+00 -0.42108587127E+03  0.42108587127E+03  0.00000000000E+00 0. -1.
         25    2    1    2    0    0 -0.59951121764E+02  0.76157458481E+02 -0.17269437701E+03  0.23423216210E+03  0.12508901800E+03 0.  0.
          5    1    3    3  502    0  0.28860334242E+02  0.30748126203E+02 -0.10603271052E+03  0.11418745227E+03  0.41800000000E+01 0.  1.
         -5    1    3    3    0  502 -0.88811456006E+02  0.45409332278E+02 -0.66661666498E+02  0.12004470982E+03  0.41800000000E+01 0.  1.
        -11    1    1    2    0    0  0.60605672613E+02 -0.49370486158E+02 -0.19607312424E+03  0.21108093828E+03  0.00000000000E+00 0.  1.
         11    1    1    2    0    0 -0.65455084940E+00 -0.26786972323E+02 -0.12662688730E+01  0.26824872039E+02  0.00000000000E+00 0. -1.
</event>
<event>
 7    1  0.2842702E-009  0.8936589E+02  0.7561462E-02  0.1304395E+00
          2   -1    0    0  501    0  0.00000000000E+00  0.00000000000E+00  0.56225293560E+02  0.56225293560E+02  0.00000000000E+00 0.  1.
         -2   -1    0    0    0  501 -0.00000000000E+00 -0.00000000000E+00 -0.24297425345E+03  0.24297425345E+03  0.00000000000E+00 0. -1.
         25    2    1    2    0    0  0.51550812261E+01 -0.40585468399E+02 -0.91872720035E+02  0.16052489518E+03  0.12511550735E+03 0.  0.
          5    1    3    3  502    0 -0.19445175074E+01 -0.76794813767E+02 -0.96154835711E+02  0.12314401894E+03  0.41800000000E+01 0.  1.
         -5    1    3    3    0  502  0.70995987335E+01  0.36209345368E+02  0.42821156758E+01  0.37380876245E+02  0.41800000000E+01 0.  1.
        -11    1    1    2    0    0 -0.27577173933E+02  0.26099092837E+02  0.21628323745E+01  0.38030790327E+02  0.00000000000E+00 0.  1.
         11    1    1    2    0    0  0.22422092707E+02  0.14486375562E+02 -0.97039072230E+02  0.10064386150E+03  0.00000000000E+00 0. -1.
</event>
<event>
 7    1  0.2842702E-009  0.1454287E+03  0.7561462E-02  0.1206205E+00
         -1   -1    0    0    0  501 -0.00000000000E+00  0.00000000000E+00  0.51761097388E+02  0.51761097388E+02  0.00000000000E+00 0.  1.
          1   -1    0    0  501    0  0.00000000000E+00 -0.00000000000E+00 -0.46210049742E+03  0.46210049742E+03  0.00000000000E+00 0. -1.
         25    2    1    2    0    0 -0.41224390660E+02 -0.96521944692E+02 -0.16957662720E+03  0.23541521311E+03  0.12509258123E+03 0.  0.
          5    1    3    3  502    0  0.43498220106E+02 -0.49710181904E+02 -0.74863896820E+02  0.99926336790E+02  0.41800000000E+01 0. -1.
         -5    1    3    3    0  502 -0.84722610766E+02 -0.46811762788E+02 -0.94712730382E+02  0.13548887632E+03  0.41800000000E+01 0. -1.
        -11    1    1    2    0    0 -0.18013576552E+02  0.48768638341E+01 -0.92447131695E+02  0.94311955232E+02  0.00000000000E+00 0. -1.
         11    1    1    2    0    0  0.59237967212E+02  0.91645080858E+02 -0.14831564114E+03  0.18413442647E+03  0.00000000000E+00 0.  1.
</event>
<event>
 7    1  0.2842702E-009  0.6360068E+02  0.7561462E-02  0.1383314E+00
          1   -1    0    0  501    0  0.00000000000E+00  0.00000000000E+00  0.37514784881E+02  0.37514784881E+02  0.00000000000E+00 0. -1.
         -1   -1    0    0    0  501 -0.00000000000E+00 -0.00000000000E+00 -0.34946955733E+03  0.34946955733E+03  0.00000000000E+00 0.  1.
         25    2    1    2    0    0 -0.17614063972E+02  0.20048732490E+02 -0.22125505854E+03  0.25556725539E+03  0.12509442104E+03 0.  0.
          5    1    3    3  502    0  0.18061177911E+01  0.10066618643E+02 -0.23102090442E+03  0.23128495315E+03  0.41800000000E+01 0.  1.
         -5    1    3    3    0  502 -0.19420181763E+02  0.99821138476E+01  0.97658458835E+01  0.24282302247E+02  0.41800000000E+01 0.  1.
        -11    1    1    2    0    0 -0.32327671684E+02  0.12109328039E+02 -0.23677234472E+02  0.41860788506E+02  0.00000000000E+00 0.  1.
         11    1    1    2    0    0  0.49941735656E+02 -0.32158060529E+02 -0.67022479443E+02  0.89556298316E+02  0.00000000000E+00 0. -1.
</event>
<event>
 7    1  0.2842702E-009  0.9605339E+02  0.7561462E-02  0.1288821E+00
         -2   -1    0    0    0  501 -0.00000000000E+00  0.00000000000E+00  0.23973087938E+03  0.23973087938E+03  0.00000000000E+00 0.  1.
          2   -1    0    0  501    0  0.00000000000E+00 -0.00000000000E+00 -0.99218473201E+02  0.99218473201E+02  0.00000000000E+00 0. -1.
         25    2    1    2    0    0 -0.41135682826E+02 -0.73390445250E+02  0.15270361909E+03  0.21457555596E+03  0.12508386017E+03 0.  0.
          5    1    3    3  502    0 -0.73387741245E+01  0.50425313801E+01  0.12398517032E+03  0.12437475463E+03  0.41800000000E+01 0. -1.
         -5    1    3    3    0  502 -0.33796908702E+02 -0.78432976630E+02  0.28718448769E+02  0.90200801330E+02  0.41800000000E+01 0. -1.
        -11    1    1    2    0    0 -0.78168119481E+01  0.31118260487E+02 -0.42249933080E+02  0.53051913538E+02  0.00000000000E+00 0. -1.
         11    1    1    2    0    0  0.48952494774E+02  0.42272184763E+02  0.30058720169E+02  0.71321883090E+02  0.00000000000E+00 0.  1.
</event>
<event>
 7    1  0.2842702E-009  0.1616267E+03  0.7561462E-02  0.1186872E+00
          1   -1    0    0  501    0  0.00000000000E+00  0.00000000000E+00  0.11018902925E+04  0.11018902925E+04  0.00000000000E+00 0. -1.
         -1   -1    0    0    0  501 -0.00000000000E+00 -0.00000000000E+00 -0.43474581077E+02  0.43474581077E+02  0.00000000000E+00 0.  1.
         25    2    1    2    0    0  0.12121468973E+03  0.47806936272E+02  0.90436614647E+03  0.92222757383E+03  0.12508823642E+03 0.  0.
          5    1    3    3  502    0  0.11879609620E+03  0.75775660363E+02  0.59103750938E+03  0.60761605728E+03  0.41800000000E+01 0. -1.
         -5    1    3    3    0  502  0.24185935244E+01 -0.27968724091E+02  0.31332863710E+03  0.31461151655E+03  0.41800000000E+01 0. -1.
        -11    1    1    2    0    0 -0.13095416398E+03 -0.31150703235E+02  0.15304148736E+03  0.20381623152E+03  0.00000000000E+00 0. -1.
         11    1    1    2    0    0  0.97394742593E+01 -0.16656233038E+02  0.10080776149E+01  0.19321068250E+02  0.00000000000E+00 0.  1.
</event>
<event>
 7    1  0.2842702E-009  0.1273364E+03  0.7561462E-02  0.1231462E+00
          2   -1    0    0  501    0  0.00000000000E+00  0.00000000000E+00  0.13070417178E+03  0.13070417178E+03  0.00000000000E+00 0. -1.
         -2   -1    0    0    0  501 -0.00000000000E+00 -0.00000000000E+00 -0.22883456276E+03  0.22883456276E+03  0.00000000000E+00 0.  1.
         25    2    1    2    0    0  0.48145218907E+02 -0.11611969852E+03 -0.40252217458E+00  0.17733929125E+03  0.12508923099E+03 0.  0.
          5    1    3    3  502    0  0.39266273373E+02 -0.10157139172E+03 -0.53511185544E+02  0.12140637224E+03  0.41800000000E+01 0. -1.
         -5    1    3    3    0  502  0.88789455339E+01 -0.14548306798E+02  0.53108663369E+02  0.55932919013E+02  0.41800000000E+01 0. -1.
        -11    1    1    2    0    0 -0.81772827370E+01  0.51647631030E+02 -0.92383400462E+02  0.10615572724E+03  0.00000000000E+00 0.  1.
         11    1    1    2    0    0 -0.39967936170E+02  0.64472067491E+02 -0.53444683442E+01  0.76043716046E+02  0.00000000000E+00 0. -1.
</event>
<event>
 7    1  0.2842702E-009  0.1094818E+03  0.7561462E-02  0.1261533E+00
         -1   -1    0    0    0  501 -0.00000000000E+00  0.00000000000E+00  0.36086665073E+02  0.36086665073E+02  0.00000000000E+00 0.  1.
          1   -1    0    0  501    0  0.00000000000E+00 -0.00000000000E+00 -0.72336997555E+03  0.72336997555E+03  0.00000000000E+00 0. -1.
         25    2    1    2    0    0 -0.23359081550E+02 -0.65058338071E+02 -0.59462441944E+03  0.61155477446E+03  0.12507121142E+03 0.  0.
          5    1    3    3  502    0 -0.66415125594E+02 -0.23436642045E+02 -0.19345561776E+03  0.20591938603E+03  0.41800000000E+01 0.  1.
         -5    1    3    3    0  502  0.43056044044E+02 -0.41621696027E+02 -0.40116880167E+03  0.40563538843E+03  0.41800000000E+01 0.  1.
        -11    1    1    2    0    0 -0.15157982131E+02  0.39091683576E+02 -0.92379035321E+02  0.10144855994E+03  0.00000000000E+00 0. -1.
         11    1    1    2    0    0  0.38517063681E+02  0.25966654495E+02 -0.27985572047E+00  0.46453306228E+02  0.00000000000E+00 0.  1.
</event>
<event>
 7    1  0.2842702E-009  0.9518839E+02  0.7561462E-02  0.1290752E+00
          2   -1    0    0  501    0  0.00000000000E+00  0.00000000000E+00  0.49955154666E+03  0.49955154666E+03  0.00000000000E+00 0. -1.
         -2   -1    0    0    0  501 -0.00000000000E+00 -0.00000000000E+00 -0.36444116500E+02  0.36444116500E+02  0.00000000000E+00 0.  1.
         25    2    1    2    0    0 -0.21583233577E+02 -0.18252044181E+02  0.40064756587E+03  0.42067012077E+03  0.12508359355E+03 0.  0.
          5    1    3    3  502    0  0.10302371931E+02 -0.48213019704E+02  0.62674629479E+02  0.79851209864E+02  0.41800000000E+01 0.  1.
         -5    1    3    3    0  502 -0.31885605507E+02  0.29960975523E+02  0.33797293639E+03  0.34081891090E+03  0.41800000000E+01 0.  1.
        -11    1    1    2    0    0 -0.16868535133E+02  0.46348626654E+02  0.31487937427E+02  0.58516945184E+02  0.00000000000E+00 0.  1.
         11    1    1    2    0    0  0.38451768709E+02 -0.28096582472E+02  0.30971926856E+02  0.56808597207E+02  0.00000000000E+00 0. -1.
</event>
<event>
 7    1  0.2842702E-009  0.8172194E+02  0.7561462E-02  0.1324235E+00
          3   -1    0    0  501    0  0.00000000000E+00  0.00000000000E+00  0.37612935949E+03  0.37612935949E+03  0.00000000000E+00 0. -1.
         -3   -1    0    0    0  501 -0.00000000000E+00 -0.00000000000E+00 -0.41811444233E+02  0.41811444233E+02  0.00000000000E+00 0.  1.
         25    2    1    2    0    0  0.23999161794E+02  0.55769915425E+02  0.15951937310E+03  0.21161390897E+03  0.12509105820E+03 0.  0.
          5    1    3    3  502    0 -0.49511135251E+01  0.30570418751E+02 -0.13716890364E+02  0.34127547656E+02  0.41800000000E+01 0. -1.
         -5    1    3    3    0  502  0.28950275320E+02  0.25199496674E+02  0.17323626346E+03  0.17748636132E+03  0.41800000000E+01 0. -1.
        -11    1    1    2    0    0 -0.16439092653E+01 -0.68056783770E+02  0.66872883983E+02  0.95427516299E+02  0.00000000000E+00 0.  1.
         11    1    1    2    0    0 -0.22355252529E+02  0.12286868344E+02  0.10792565818E+03  0.11089937846E+03  0.00000000000E+00 0. -1.
</event>
<event>
 7    1  0.2842702E-009  0.2870417E+03  0.7561462E-02  0.1091904E+00
         -2   -1    0    0    0  501 -0.00000000000E+00  0.00000000000E+00  0.14160042216E+03  0.14160042216E+03  0.00000000000E+00 0.  1.
          2   -1    0    0  501    0  0.00000000000E+00 -0.00000000000E+00 -0.96517354521E+03  0.96517354521E+03  0.00000000000E+00 0. -1.
         25    2    1    2    0    0 -0.28184130832E+03 -0.35050742500E+02 -0.70772125573E+03  0.77277624505E+03  0.12510264379E+03 0.  0.
          5    1    3    3  502    0 -0.14643129569E+03 -0.42651703186E+02 -0.22881001844E+03  0.27501416160E+03  0.41800000000E+01 0. -1.
         -5    1    3    3    0  502 -0.13541001263E+03  0.76009606859E+01 -0.47891123728E+03  0.49776208345E+03  0.41800000000E+01 0. -1.
        -11    1    1    2    0    0  0.13141177146E+03  0.21631977357E+00 -0.12221133052E+03  0.17945670726E+03  0.00000000000E+00 0. -1.
         11    1    1    2    0    0  0.15042953685E+03  0.34834422726E+02  0.63594631933E+01  0.15454101506E+03  0.00000000000E+00 0.  1.
</event>
<event>
 7    1  0.2842702E-009  0.9601931E+02  0.7561462E-02  0.1288897E+00
          2   -1    0    0  501    0  0.00000000000E+00  0.00000000000E+00  0.15392757735E+03  0.15392757735E+03  0.00000000000E+00 0. -1.
         -2   -1    0    0    0  501 -0.00000000000E+00 -0.00000000000E+00 -0.93333037313E+02  0.93333037313E+02  0.00000000000E+00 0.  1.
         25    2    1    2    0    0 -0.43206361635E+02  0.16591197225E+02  0.53657869086E+02  0.14376282910E+03  0.12508607678E+03 0.  0.
          5    1    3    3  502    0 -0.74845444417E+02  0.36854470630E+02  0.63232125371E+02  0.10476577034E+03  0.41800000000E+01 0. -1.
         -5    1    3    3    0  502  0.31639082782E+02 -0.20263273405E+02 -0.95742562851E+01  0.38997058758E+02  0.41800000000E+01 0. -1.
        -11    1    1    2    0    0  0.16040091974E+02 -0.34581383159E+02  0.41258370897E+02  0.56173034285E+02  0.00000000000E+00 0. -1.
         11    1    1    2    0    0  0.27166269661E+02  0.17990185933E+02 -0.34321699944E+02  0.47324751285E+02  0.00000000000E+00 0.  1.
</event>
<event>
 7    1  0.2842702E-009  0.6672192E+02  0.7561462E-02  0.1371609E+00
         -1   -1    0    0    0  501 -0.00000000000E+00  0.00000000000E+00  0.10912893602E+03  0.10912893602E+03  0.00000000000E+00 0.  1.
          1   -1    0    0  501    0  0.00000000000E+00 -0.00000000000E+00 -0.16657931543E+03  0.16657931543E+03  0.00000000000E+00 0. -1.
         25    2    1    2    0    0 -0.17187850519E+02 -0.37743137581E+02  0.39535948781E+02  0.13758671640E+03  0.12508815549E+03 0.  0.
          5    1    3    3  502    0 -0.65654227590E+01 -0.71569250374E+01 -0.45388221413E+02  0.46603534147E+02  0.41800000000E+01 0.  1.
         -5    1    3    3    0  502 -0.10622427760E+02 -0.30586212543E+02  0.84924170194E+02  0.90983182250E+02  0.41800000000E+01 0.  1.
        -11    1    1    2    0    0  0.33491915035E+02  0.56307943333E+02 -0.91954308915E+02  0.11290654447E+03  0.00000000000E+00 0. -1.
         11    1    1    2    0    0 -0.16304064516E+02 -0.18564805752E+02 -0.50320192729E+01  0.25214990587E+02  0.00000000000E+00 0.  1.
</event>
<event>
 7    1  0.2842702E-009  0.1406109E+03  0.7561462E-02  0.1212509E+00
          1   -1    0    0  501    0  0.00000000000E+00  0.00000000000E+00  0.17386082050E+03  0.17386082050E+03  0.00000000000E+00 0. -1.
         -1   -1    0    0    0  501 -0.00000000000E+00 -0.00000000000E+00 -0.24921738568E+03  0.24921738568E+03  0.00000000000E+00 0.  1.
         25    2    1    2    0    0 -0.99918699963E+02  0.81877559340E+02 -0.16178968016E+03  0.24189011548E+03  0.12508895249E+03 0.  0.
          5    1    3    3  502    0 -0.11177558488E+03  0.68554998276E+02 -0.70802429377E+02  0.14907724699E+03  0.41800000000E+01 0.  1.
         -5    1    3    3    0  502  0.11856884913E+02  0.13322561063E+02 -0.90987250783E+02  0.92812868494E+02  0.41800000000E+01 0.  1.
        -11    1    1    2    0    0  0.92622335631E+02 -0.64505789394E+02  0.23230803335E+02  0.11523699123E+03  0.00000000000E+00 0.  1.
         11    1    1    2    0    0  0.72963643316E+01 -0.17371769946E+02  0.63202311652E+02  0.65951099472E+02  0.00000000000E+00 0. -1.
</event>
<event>
 7    1  0.2842702E-009  0.2539390E+03  0.7561462E-02  0.1110840E+00
          1   -1    0    0  501    0  0.00000000000E+00  0.00000000000E+00  0.25700476835E+04  0.25700476835E+04  0.00000000000E+00 0. -1.
         -1   -1    0    0    0  501 -0.00000000000E+00 -0.00000000000E+00 -0.25357445083E+02  0.25357445083E+02  0.00000000000E+00 0.  1.
         25    2    1    2    0    0  0.19900803935E+03 -0.11651293576E+03  0.12099087559E+04  0.12380252365E+04  0.12509126573E+03 0.  0.
          5    1    3    3  502    0  0.17202826153E+03 -0.14281733924E+03  0.99746702110E+03  0.10222271987E+04  0.41800000000E+01 0. -1.
         -5    1    3    3    0  502  0.26979777822E+02  0.26304403477E+02  0.21244173481E+03  0.21579803786E+03  0.41800000000E+01 0. -1.
        -11    1    1    2    0    0 -0.19712301467E+03  0.84827424956E+02  0.11844808933E+04  0.12037641636E+04  0.00000000000E+00 0.  1.
         11    1    1    2    0    0 -0.18850246795E+01  0.31685510809E+02  0.15030058920E+03  0.15361572845E+03  0.00000000000E+00 0. -1.
</event>
<event>
 7    1  0.2842702E-009  0.1087164E+03  0.7561462E-02  0.1262966E+00
         -2   -1    0    0    0  501 -0.00000000000E+00  0.00000000000E+00  0.15590746792E+03  0.15590746792E+03  0.00000000000E+00 0.  1.
          2   -1    0    0  501    0  0.00000000000E+00 -0.00000000000E+00 -0.14958575304E+03  0.14958575304E+03  0.00000000000E+00 0. -1.
         25    2    1    2    0    0  0.87679250161E+02 -0.50023593360E+02  0.37146706606E+02  0.16500284025E+03  0.12512413307E+03 0.  0.
          5    1    3    3  502    0  0.36857229254E+02  0.92990837543E+01 -0.39856125523E+02  0.55235056338E+02  0.41800000000E+01 0. -1.
         -5    1    3    3    0  502  0.50822020906E+02 -0.59322677114E+02  0.77002832128E+02  0.10976778391E+03  0.41800000000E+01 0. -1.
        -11    1    1    2    0    0 -0.72196531007E+02  0.40337435746E+02  0.21181513562E+02  0.85370394920E+02  0.00000000000E+00 0.  1.
         11    1    1    2    0    0 -0.15482719153E+02  0.96861576137E+01 -0.52006505290E+02  0.55119985797E+02  0.00000000000E+00 0. -1.
</event>
<event>
 7    1  0.2842702E-009  0.1427713E+03  0.7561462E-02  0.1209648E+00
          1   -1    0    0  501    0  0.00000000000E+00  0.00000000000E+00  0.37391467448E+02  0.37391467448E+02  0.00000000000E+00 0. -1.
         -1   -1    0    0    0  501 -0.00000000000E+00 -0.00000000000E+00 -0.56916378689E+03  0.56916378689E+03  0.00000000000E+00 0.  1.
         25    2    1    2    0    0 -0.24737385176E+02 -0.90018322254E+02 -0.34579981179E+03  0.37939528164E+03  0.12509209939E+03 0.  0.
          5    1    3    3  502    0 -0.47670473831E+02  0.12955456927E+02 -0.13055496181E+03  0.13965095200E+03  0.41800000000E+01 0.  1.
         -5    1    3    3    0  502  0.22933088655E+02 -0.10297377918E+03 -0.21524484998E+03  0.23974432964E+03  0.41800000000E+01 0.  1.
        -11    1    1    2    0    0  0.58365598676E+02  0.70426127876E+02 -0.13352037927E+03  0.16184583491E+03  0.00000000000E+00 0. -1.
         11    1    1    2    0    0 -0.33628213500E+02  0.19592194378E+02 -0.52452128384E+02  0.65314137794E+02  0.00000000000E+00 0.  1.
</event>
<event>
 7    1  0.2842702E-009  0.1521177E+03  0.7561462E-02  0.1197895E+00
         -2   -1    0    0    0  501 -0.00000000000E+00  0.00000000000E+00  0.85856683236E+02  0.85856683236E+02  0.00000000000E+00 0.  1.
          2   -1    0    0  501    0  0.00000000000E+00 -0.00000000000E+00 -0.47467701225E+03  0.47467701225E+03  0.00000000000E+00 0. -1.
         25    2    1    2    0    0  0.32419949250E+02  0.13480765097E+03 -0.33987760604E+03  0.38779923391E+03  0.12508917964E+03 0.  0.
          5    1    3    3  502    0 -0.28351943148E+02  0.41097379113E+02 -0.30039545953E+02  0.58418096265E+02  0.41800000000E+01 0. -1.
         -5    1    3    3    0  502  0.60771892397E+02  0.93710271859E+02 -0.30983806009E+03  0.32938113764E+03  0.41800000000E+01 0. -1.
        -11    1    1    2    0    0 -0.85379068829E+01 -0.98723279541E+02  0.10020280905E+02  0.99597127502E+02  0.00000000000E+00 0.  1.
         11    1    1    2    0    0 -0.23882042367E+02 -0.36084371430E+02 -0.58963003879E+02  0.73137334075E+02  0.00000000000E+00 0. -1.
</event>
<event>
 7    1  0.2842702E-009  0.8562798E+02  0.7561462E-02  0.1313798E+00
         -2   -1    0    0    0  501 -0.00000000000E+00  0.00000000000E+00  0.14624611832E+03  0.14624611832E+03  0.00000000000E+00 0.  1.
          2   -1    0    0  501    0  0.00000000000E+00 -0.00000000000E+00 -0.82904542035E+02  0.82904542035E+02  0.00000000000E+00 0. -1.
         25    2    1    2    0    0  0.27720436413E+01  0.70379706258E+01  0.56874858978E+02  0.13762175697E+03  0.12509109141E+03 0.  0.
          5    1    3    3  502    0 -0.11800657593E+02  0.51352716586E+02  0.71171418286E+02  0.88652130269E+02  0.41800000000E+01 0.  1.
         -5    1    3    3    0  502  0.14572701235E+02 -0.44314745960E+02 -0.14296559308E+02  0.48969626697E+02  0.41800000000E+01 0.  1.
        -11    1    1    2    0    0 -0.18253539633E+02 -0.35072288914E+02  0.31764623677E+02  0.50717339009E+02  0.00000000000E+00 0.  1.
         11    1    1    2    0    0  0.15481495991E+02  0.28034318288E+02 -0.25297906373E+02  0.40811564377E+02  0.00000000000E+00 0. -1.
</event>
<event>
 7    1  0.2842702E-009  0.9039847E+02  0.7561462E-02  0.1301890E+00
         -2   -1    0    0    0  501 -0.00000000000E+00  0.00000000000E+00  0.52530563588E+02  0.52530563588E+02  0.00000000000E+00 0.  1.
          2   -1    0    0  501    0  0.00000000000E+00 -0.00000000000E+00 -0.25917923895E+03  0.25917923895E+03  0.00000000000E+00 0. -1.
         25    2    1    2    0    0 -0.40263839586E+02  0.31788033662E+01 -0.12779856835E+03  0.18333704064E+03  0.12509482335E+03 0.  0.
          5    1    3    3  502    0 -0.36599566137E+02  0.51119012833E+02 -0.21467062020E+02  0.66565673333E+02  0.41800000000E+01 0.  1.
         -5    1    3    3    0  502 -0.36642734495E+01 -0.47940209467E+02 -0.10633150633E+03  0.11677136730E+03  0.41800000000E+01 0.  1.
        -11    1    1    2    0    0  0.51720340731E+02 -0.14194796287E+02 -0.92827511075E+02  0.10720742838E+03  0.00000000000E+00 0. -1.
         11    1    1    2    0    0 -0.11456501144E+02  0.11015992921E+02  0.13977404067E+02  0.21165333519E+02  0.00000000000E+00 0.  1.
</event>
<event>
 7    1  0.2842702E-009  0.1033065E+03  0.7561462E-02  0.1273493E+00
         -1   -1    0    0    0  501 -0.00000000000E+00  0.00000000000E+00  0.11682454799E+03  0.11682454799E+03  0.00000000000E+00 0.  1.
          1   -1    0    0  501    0  0.00000000000E+00 -0.00000000000E+00 -0.98408050111E+02  0.98408050111E+02  0.00000000000E+00 0. -1.
         25    2    1    2    0    0  0.20737624572E+02  0.62736159490E+01  0.14329481242E+02  0.12775915292E+03  0.12509060633E+03 0.  0.
          5    1    3    3  502    0 -0.46055865739E+02 -0.20657997723E+02 -0.99999443697E+01  0.51627191734E+02  0.41800000000E+01 0. -1.
         -5    1    3    3    0  502  0.66793490311E+02  0.26931613672E+02  0.24329425612E+02  0.76131961182E+02  0.41800000000E+01 0. -1.
        -11    1    1    2    0    0 -0.50292735623E+02  0.81300834162E+01  0.14529179592E+02  0.52976924905E+02  0.00000000000E+00 0. -1.
         11    1    1    2    0    0  0.29555111051E+02 -0.14403699365E+02 -0.10442162950E+02  0.34496520284E+02  0.00000000000E+00 0.  1.
</event>
<event>
 7    1  0.2842702E-009  0.1745970E+03  0.7561462E-02  0.1173137E+00
         -2   -1    0    0    0  501 -0.00000000000E+00  0.00000000000E+00  0.38331346259E+02  0.38331346259E+02  0.00000000000E+00 0.  1.
          2   -1    0    0  501    0  0.00000000000E+00 -0.00000000000E+00 -0.85637178048E+03  0.85637178048E+03  0.00000000000E+00 0. -1.
         25    2    1    2    0    0 -0.97137809489E+02 -0.10642175415E+03 -0.41678739352E+03  0.45838925481E+03  0.12509050219E+03 0.  0.
          5    1    3    3  502    0 -0.53008198374E+02 -0.12884198670E+03 -0.33283153369E+03  0.36083850799E+03  0.41800000000E+01 0. -1.
         -5    1    3    3    0  502 -0.44129611115E+02  0.22420232548E+02 -0.83955859831E+02  0.97550746817E+02  0.41800000000E+01 0. -1.
        -11    1    1    2    0    0  0.78251079386E+02  0.34045507268E+02 -0.28967513731E+03  0.30198346505E+03  0.00000000000E+00 0. -1.
         11    1    1    2    0    0  0.18886730103E+02  0.72376246882E+02 -0.11157790340E+03  0.13433040688E+03  0.00000000000E+00 0.  1.
</event>
<event>
 7    1  0.2842702E-009  0.1694381E+03  0.7561462E-02  0.1178435E+00
          2   -1    0    0  501    0  0.00000000000E+00  0.00000000000E+00  0.24877027266E+03  0.24877027266E+03  0.00000000000E+00 0. -1.
         -2   -1    0    0    0  501 -0.00000000000E+00 -0.00000000000E+00 -0.15522458977E+03  0.15522458977E+03  0.00000000000E+00 0.  1.
         25    2    1    2    0    0 -0.94033280535E+02  0.13191532541E+03  0.47074143749E+02  0.21001752608E+03  0.12508986899E+03 0.  0.
          5    1    3    3  502    0 -0.73398518035E+02  0.42321873738E+02  0.75637600901E+02  0.11365299167E+03  0.41800000000E+01 0. -1.
         -5    1    3    3    0  502 -0.20634762500E+02  0.89593451674E+02 -0.28563457152E+02  0.96364534403E+02  0.41800000000E+01 0. -1.
        -11    1    1    2    0    0  0.37280438344E+02 -0.54064202816E+02  0.68769086921E+02  0.95089202464E+02  0.00000000000E+00 0. -1.
         11    1    1    2    0    0  0.56752842191E+02 -0.77851122595E+02 -0.22297547785E+02  0.98888133885E+02  0.00000000000E+00 0.  1.
</event>
<event>
 7    1  0.3060416E-009  0.1389856E+03  0.7561462E-02  0.1214700E+00
          2   -1    0    0  501    0  0.00000000000E+00  0.00000000000E+00  0.43918036804E+03  0.43918036804E+03  0.00000000000E+00 0. -1.
         -2   -1    0    0    0  501 -0.00000000000E+00 -0.00000000000E+00 -0.46042524450E+02  0.46042524450E+02  0.00000000000E+00 0.  1.
         25    2    1    2    0    0  0.36869465837E+02 -0.80921541079E+02  0.25101907716E+03  0.29422027400E+03  0.12508932494E+03 0.  0.
          5    1    3    3  502    0 -0.14626530064E+02 -0.95811919068E+02  0.13391179907E+03  0.16535931044E+03  0.41800000000E+01 0.  1.
         -5    1    3    3    0  502  0.51495995901E+02  0.14890377989E+02  0.11710727809E+03  0.12886096357E+03  0.41800000000E+01 0.  1.
        -11    1    1    2    0    0 -0.32105393723E+02 -0.11905493123E+02  0.31611041554E+02  0.46602092451E+02  0.00000000000E+00 0.  1.
         11    1    1    2    0    0 -0.47640721140E+01  0.92827034203E+02  0.11050772488E+03  0.14440052604E+03  0.00000000000E+00 0. -1.
</event>
<event>
 7    1  0.2842702E-009  0.1015429E+03  0.7561462E-02  0.1277085E+00
         -1   -1    0    0    0  501 -0.00000000000E+00  0.00000000000E+00  0.38182509975E+02  0.38182509975E+02  0.00000000000E+00 0.  1.
          1   -1    0    0  501    0  0.00000000000E+00 -0.00000000000E+00 -0.35848387230E+03  0.35848387230E+03  0.00000000000E+00 0. -1.
         25    2    1    2    0    0 -0.31500426775E+02  0.99410595639E+01 -0.12999473419E+03  0.18340491647E+03  0.12509049091E+03 0.  0.
          5    1    3    3  502    0 -0.65136451026E+02  0.27643177880E+02 -0.12650124280E+03  0.14500668731E+03  0.41800000000E+01 0. -1.
         -5    1    3    3    0  502  0.33636024251E+02 -0.17702118316E+02 -0.34934913896E+01  0.38398229156E+02  0.41800000000E+01 0. -1.
        -11    1    1    2    0    0  0.80664502436E+01  0.38934277708E+02 -0.58380259977E+02  0.70634271817E+02  0.00000000000E+00 0. -1.
         11    1    1    2    0    0  0.23433976532E+02 -0.48875337272E+02 -0.13192636815E+03  0.14262719398E+03  0.00000000000E+00 0.  1.
</event>
<event>
 7    1  0.2842702E-009  0.1679148E+03  0.7561462E-02  0.1180040E+00
          2   -1    0    0  501    0  0.00000000000E+00  0.00000000000E+00  0.52938861149E+03  0.52938861149E+03  0.00000000000E+00 0. -1.
         -2   -1    0    0    0  501 -0.00000000000E+00 -0.00000000000E+00 -0.73415082194E+02  0.73415082194E+02  0.00000000000E+00 0.  1.
         25    2    1    2    0    0 -0.16425487446E+03  0.42373872147E+01  0.23682217749E+03  0.31421316559E+03  0.12509016926E+03 0.  0.
          5    1    3    3  502    0 -0.79256411923E+02  0.24005213421E+02  0.27448645526E+02  0.87342599248E+02  0.41800000000E+01 0.  1.
         -5    1    3    3    0  502 -0.84998462537E+02 -0.19767826206E+02  0.20937353196E+03  0.22687056634E+03  0.41800000000E+01 0.  1.
        -11    1    1    2    0    0  0.11194385673E+03 -0.12296368545E+02  0.20484855549E+03  0.23376389461E+03  0.00000000000E+00 0. -1.
         11    1    1    2    0    0  0.52311017732E+02  0.80589813305E+01  0.14302796318E+02  0.54826633480E+02  0.00000000000E+00 0.  1.
</event>
<event>
 7    1  0.2842702E-009  0.1686712E+03  0.7561462E-02  0.1179241E+00
         -2   -1    0    0    0  501 -0.00000000000E+00  0.00000000000E+00  0.41656000787E+03  0.41656000787E+03  0.00000000000E+00 0.  1.
          2   -1    0    0  501    0  0.00000000000E+00 -0.00000000000E+00 -0.69359557344E+02  0.69359557344E+02  0.00000000000E+00 0. -1.
         25    2    1    2    0    0 -0.12889170302E+03 -0.20594093863E+02  0.18499010048E+03  0.25866219197E+03  0.12509038520E+03 0.  0.
          5    1    3    3  502    0 -0.13353083971E+03  0.22160109059E+02  0.12196566033E+03  0.18224886910E+03  0.41800000000E+01 0.  1.
         -5    1    3    3    0  502  0.46391366855E+01 -0.42754202922E+02  0.63024440148E+02  0.76413322874E+02  0.41800000000E+01 0.  1.
        -11    1    1    2    0    0  0.13038787753E+03 -0.74768354867E+01  0.13973568092E+03  0.19126673050E+03  0.00000000000E+00 0.  1.
         11    1    1    2    0    0 -0.14961745038E+01  0.28070929349E+02  0.22474669130E+02  0.35990642745E+02  0.00000000000E+00 0. -1.
</event>
<event>
 7    1  0.2842702E-009  0.3932995E+03  0.7561462E-02  0.1046125E+00
         -1   -1    0    0    0  501 -0.00000000000E+00  0.00000000000E+00  0.21895814512E+03  0.21895814512E+03  0.00000000000E+00 0.  1.
          1   -1    0    0  501    0  0.00000000000E+00 -0.00000000000E+00 -0.74740834663E+03  0.74740834663E+03  0.00000000000E+00 0. -1.
         25    2    1    2    0    0  0.15050653493E+03 -0.35130450275E+03 -0.17805401957E+03  0.43979269916E+03  0.12508922271E+03 0.  0.
          5    1    3    3  502    0 -0.90572408876E+01 -0.12266470546E+03 -0.47806797248E+02  0.13202888260E+03  0.41800000000E+01 0.  1.
         -5    1    3    3    0  502  0.15956377582E+03 -0.22863979729E+03 -0.13024722233E+03  0.30776381656E+03  0.41800000000E+01 0.  1.
        -11    1    1    2    0    0 -0.58731870819E+02  0.19259550199E+03 -0.12902892240E+03  0.23914623738E+03  0.00000000000E+00 0. -1.
         11    1    1    2    0    0 -0.91774664110E+02  0.15870900076E+03 -0.22136725955E+03  0.28742755521E+03  0.00000000000E+00 0.  1.
</event>
<event>
 7    1  0.2842702E-009  0.9681769E+02  0.7561462E-02  0.1287134E+00
          3   -1    0    0  501    0  0.00000000000E+00  0.00000000000E+00  0.12151887807E+03  0.12151887807E+03  0.00000000000E+00 0. -1.
         -3   -1    0    0    0  501 -0.00000000000E+00 -0.00000000000E+00 -0.14396422343E+03  0.14396422343E+03  0.00000000000E+00 0.  1.
         25    2    1    2    0    0 -0.56743608542E+02  0.24375319706E+02  0.29535800990E+02  0.14259884288E+03  0.12509225847E+03 0.  0.
          5    1    3    3  502    0 -0.66491087826E+02 -0.83743808624E+01  0.64802124015E+02  0.93316572440E+02  0.41800000000E+01 0. -1.
         -5    1    3    3    0  502  0.97474792834E+01  0.32749700568E+02 -0.35266323025E+02  0.49282270436E+02  0.41800000000E+01 0. -1.
        -11    1    1    2    0    0  0.63533617311E+02  0.32502903816E+01 -0.65568503631E+02  0.91358161018E+02  0.00000000000E+00 0.  1.
         11    1    1    2    0    0 -0.67900087684E+01 -0.27625610088E+02  0.13587357281E+02  0.31526097596E+02  0.00000000000E+00 0. -1.
</event>
<event>
 7    1  0.2842702E-009  0.2271101E+03  0.7561462E-02  0.1128690E+00
          2   -1    0    0  501    0  0.00000000000E+00  0.00000000000E+00  0.45716223303E+02  0.45716223303E+02  0.00000000000E+00 0. -1.
         -2   -1    0    0    0  501 -0.00000000000E+00 -0.00000000000E+00 -0.12183221470E+04  0.12183221470E+04  0.00000000000E+00 0.  1.
         25    2    1    2    0    0 -0.16336014694E+03  0.11477196374E+03 -0.77674387035E+03  0.81168909422E+03  0.12509598025E+03 0.  0.
          5    1    3    3  502    0 -0.60818629280E+02  0.11782342567E+03 -0.45699348589E+03  0.47585899577E+03  0.41800000000E+01 0. -1.
         -5    1    3    3    0  502 -0.10254151766E+03 -0.30514619341E+01 -0.31975038446E+03  0.33583009845E+03  0.41800000000E+01 0. -1.
        -11    1    1    2    0    0  0.15102498203E+03 -0.59609765415E+02 -0.29265391508E+03  0.33467623660E+03  0.00000000000E+00 0.  1.
         11    1    1    2    0    0  0.12335164903E+02 -0.55162198321E+02 -0.10320813822E+03  0.11767303944E+03  0.00000000000E+00 0. -1.
</event>
<event>
 7    1  0.2842702E-009  0.1443086E+03  0.7561462E-02  0.1207646E+00
         -2   -1    0    0    0  501 -0.00000000000E+00  0.00000000000E+00  0.20871690743E+02  0.20871690743E+02  0.00000000000E+00 0.  1.
          2   -1    0    0  501    0  0.00000000000E+00 -0.00000000000E+00 -0.12175855908E+04  0.12175855908E+04  0.00000000000E+00 0. -1.
         25    2    1    2    0    0 -0.90457484395E+02  0.37672115637E+02 -0.88071191130E+03  0.89493210758E+03  0.12509301213E+03 0.  0.
          5    1    3    3  502    0  0.11211961613E+02  0.51770811442E+02 -0.38830422001E+03  0.39192290655E+03  0.41800000000E+01 0. -1.
         -5    1    3    3    0  502 -0.10166944601E+03 -0.14098695805E+02 -0.49240769129E+03  0.50300920103E+03  0.41800000000E+01 0. -1.
        -11    1    1    2    0    0  0.48594314656E+02 -0.66180904043E+02 -0.16584840946E+03  0.18505948880E+03  0.00000000000E+00 0.  1.
         11    1    1    2    0    0  0.41863169739E+02  0.28508788406E+02 -0.15015357927E+03  0.15846568513E+03  0.00000000000E+00 0. -1.
</event>
<event>
 7    1  0.2842702E-009  0.1290148E+03  0.7561462E-02  0.1228925E+00
         -3   -1    0    0    0  501 -0.00000000000E+00  0.00000000000E+00  0.13064857092E+03  0.13064857092E+03  0.00000000000E+00 0.  1.
          3   -1    0    0  501    0  0.00000000000E+00 -0.00000000000E+00 -0.14353733667E+03  0.14353733667E+03  0.00000000000E+00 0. -1.
         25    2    1    2    0    0  0.57764650185E+02  0.60171639656E+02  0.50712620977E+01  0.15042867688E+03  0.12508272502E+03 0.  0.
          5    1    3    3  502    0  0.91800342850E+02  0.24297524094E+02  0.22765383828E+02  0.97741535313E+02  0.41800000000E+01 0.  1.
         -5    1    3    3    0  502 -0.34035692665E+02  0.35874115562E+02 -0.17694121730E+02  0.52687141565E+02  0.41800000000E+01 0.  1.
        -11    1    1    2    0    0 -0.12122384040E+02 -0.66208629157E+02  0.12626614135E+02  0.68483327564E+02  0.00000000000E+00 0.  1.
         11    1    1    2    0    0 -0.45642266145E+02  0.60369895006E+01 -0.30586641979E+02  0.55273903143E+02  0.00000000000E+00 0. -1.
</event>
<event>
 7    1  0.2842702E-009  0.1529628E+03  0.7561462E-02  0.1196879E+00
         -1   -1    0    0    0  501 -0.00000000000E+00  0.00000000000E+00  0.19036986816E+03  0.19036986816E+03  0.00000000000E+00 0.  1.
          1   -1    0    0  501    0  0.00000000000E+00 -0.00000000000E+00 -0.23960071314E+03  0.23960071314E+03  0.00000000000E+00 0. -1.
         25    2    1    2    0    0 -0.97205813395E+02 -0.10106999122E+03  0.93391551394E+02  0.20984282424E+03  0.12509162934E+03 0.  0.
          5    1    3    3  502    0 -0.64721899553E+01  0.83936339726E+01 -0.23250775482E+02  0.25892340462E+02  0.41800000000E+01 0.  1.
         -5    1    3    3    0  502 -0.90733623439E+02 -0.10946362520E+03  0.11664232688E+03  0.18395048378E+03  0.41800000000E+01 0.  1.
        -11    1    1    2    0    0  0.82240143437E+02  0.43957246848E+02 -0.12961013699E+03  0.15966987303E+03  0.00000000000E+00 0. -1.
         11    1    1    2    0    0  0.14965669957E+02  0.57112744376E+02 -0.13012259378E+02  0.60457884031E+02  0.00000000000E+00 0.  1.
</event>
<event>
 6    1  0.2842702E-009  0.8230319E+02  0.7561462E-02  0.1322640E+00
          1   -1    0    0  501    0  0.00000000000E+00  0.00000000000E+00  0.51358248651E+02  0.51358248651E+02  0.00000000000E+00 0. -1.
         -1   -1    0    0    0  501 -0.00000000000E+00 -0.00000000000E+00 -0.29247332703E+03  0.29247332703E+03  0.00000000000E+00 0.  1.
          5    1    1    2  502    0  0.14399377172E+02 -0.23167024647E+01 -0.16026018944E+03  0.16097673711E+03  0.41800000000E+01 0.  1.
         -5    1    1    2    0  502 -0.72361151524E+01 -0.51806121320E+02 -0.39850643361E+01  0.52626881976E+02  0.41800000000E+01 0.  1.
        -11    1    1    2    0    0 -0.21231816986E+02 -0.15271016340E+02 -0.60276970031E+00  0.26160224080E+02  0.00000000000E+00 0.  1.
         11    1    1    2    0    0  0.14068554967E+02  0.69393840125E+02 -0.76267054901E+02  0.10406773251E+03  0.00000000000E+00 0. -1.
</event>
<event>
 7    1  0.2842702E-009  0.1048150E+03  0.7561462E-02  0.1270485E+00
         -1   -1    0    0    0  501 -0.00000000000E+00  0.00000000000E+00  0.65298947265E+02  0.65298947265E+02  0.00000000000E+00 0.  1.
          1   -1    0    0  501    0  0.00000000000E+00 -0.00000000000E+00 -0.21666611739E+03  0.21666611739E+03  0.00000000000E+00 0. -1.
         25    2    1    2    0    0  0.45718728400E+02 -0.12187456049E+02 -0.10200084501E+03  0.16820001654E+03  0.12509331305E+03 0.  0.
          5    1    3    3  502    0 -0.23182276141E+02  0.38410001431E+02 -0.18751299663E+02  0.48803993443E+02  0.41800000000E+01 0. -1.
         -5    1    3    3    0  502  0.68901004541E+02 -0.50597457479E+02 -0.83249545344E+02  0.11939602309E+03  0.41800000000E+01 0. -1.
        -11    1    1    2    0    0 -0.84399970124E+01  0.34515398203E+02 -0.59355123793E+02  0.69177864835E+02  0.00000000000E+00 0. -1.
         11    1    1    2    0    0 -0.37278731388E+02 -0.22327942154E+02  0.99887986708E+01  0.44587183289E+02  0.00000000000E+00 0.  1.
</event>
<event>
 6    1  0.2842702E-009  0.9966787E+02  0.7561462E-02  0.1280996E+00
          1   -1    0    0  501    0  0.00000000000E+00  0.00000000000E+00  0.20267552260E+02  0.20267552260E+02  0.00000000000E+00 0. -1.
         -1   -1    0    0    0  501 -0.00000000000E+00 -0.00000000000E+00 -0.71792381239E+03  0.71792381239E+03  0.00000000000E+00 0.  1.
          5    1    1    2  502    0 -0.68317155037E+02  0.18827438252E+01 -0.11800703706E+03  0.13643280981E+03  0.41800000000E+01 0. -1.
         -5    1    1    2    0  502  0.24543659306E+02  0.10854454689E+02 -0.32664806266E+03  0.32777528833E+03  0.41800000000E+01 0. -1.
        -11    1    1    2    0    0 -0.24288474654E+02  0.16776442428E+02 -0.94022934352E+02  0.98547913249E+02  0.00000000000E+00 0.  1.
         11    1    1    2    0    0  0.68061970385E+02 -0.29513640943E+02 -0.15897822606E+03  0.17543535327E+03  0.00000000000E+00 0. -1.
</event>
<event>
 7    1  0.2842702E-009  0.3050130E+03  0.7561462E-02  0.1082761E+00
          1   -1    0    0  501    0  0.00000000000E+00  0.00000000000E+00  0.88231833199E+02  0.88231833199E+02  0.00000000000E+00 0. -1.
         -1   -1    0    0    0  501 -0.00000000000E+00 -0.00000000000E+00 -0.11596402762E+04  0.11596402762E+04  0.00000000000E+00 0.  1.
         25    2    1    2    0    0 -0.99233522966E+02  0.28106920138E+03 -0.46753984600E+03  0.56840867676E+03  0.12509087967E+03 0.  0.
          5    1    3    3  502    0 -0.45091092991E+02  0.22684644080E+03 -0.41593102758E+03  0.47592920322E+03  0.41800000000E+01 0. -1.
         -5    1    3    3    0  502 -0.54142429975E+02  0.54222760577E+02 -0.51608818418E+02  0.92479473542E+02  0.41800000000E+01 0. -1.
        -11    1    1    2    0    0  0.10204159462E+03 -0.23991123033E+03 -0.56728438964E+03  0.62432480665E+03  0.00000000000E+00 0.  1.
         11    1    1    2    0    0 -0.28080716564E+01 -0.41157971054E+02 -0.36584207369E+02  0.55138625994E+02  0.00000000000E+00 0. -1.
</event>
<event>
 7    1  0.2842702E-009  0.1145820E+03  0.7561462E-02  0.1252312E+00
          2   -1    0    0  501    0  0.00000000000E+00  0.00000000000E+00  0.34559797870E+03  0.34559797870E+03  0.00000000000E+00 0.  1.
         -2   -1    0    0    0  501 -0.00000000000E+00 -0.00000000000E+00 -0.61586782535E+02  0.61586782535E+02  0.00000000000E+00 0. -1.
         25    2    1    2    0    0  0.29694748393E+02 -0.47457613143E+02  0.42264314078E+02  0.14341486004E+03  0.12509015432E+03 0.  0.
          5    1    3    3  502    0  0.38034794740E+02 -0.80599731742E+02  0.57095742680E+02  0.10592619412E+03  0.41800000000E+01 0.  1.
         -5    1    3    3    0  502 -0.83400463463E+01  0.33142118600E+02 -0.14831428602E+02  0.37488665923E+02  0.41800000000E+01 0.  1.
        -11    1    1    2    0    0 -0.17481413690E+02  0.74137254674E+02  0.17420426236E+03  0.19012905454E+03  0.00000000000E+00 0.  1.
         11    1    1    2    0    0 -0.12213334703E+02 -0.26679641532E+02  0.67542619728E+02  0.73640846658E+02  0.00000000000E+00 0. -1.
</event>
<event>
 7    1  0.2842702E-009  0.1638185E+03  0.7561462E-02  0.1184452E+00
          1   -1    0    0  501    0  0.00000000000E+00  0.00000000000E+00  0.42260181190E+03  0.42260181190E+03  0.00000000000E+00 0. -1.
         -1   -1    0    0    0  501 -0.00000000000E+00 -0.00000000000E+00 -0.65619921443E+02  0.65619921443E+02  0.00000000000E+00 0.  1.
         25    2    1    2    0    0  0.12153339068E+03 -0.25155552284E+02  0.16337777682E+03  0.24029200340E+03  0.12507910330E+03 0.  0.
          5    1    3    3  502    0  0.11811816667E+03  0.26743105782E+02  0.93373185758E+02  0.15298078057E+03  0.41800000000E+01 0.  1.
         -5    1    3    3    0  502  0.34152240070E+01 -0.51898658066E+02  0.70004591057E+02  0.87311222836E+02  0.41800000000E+01 0.  1.
        -11    1    1    2    0    0  0.15187793256E+02 -0.38238226486E+00  0.26192590768E+02  0.30279813264E+02  0.00000000000E+00 0. -1.
         11    1    1    2    0    0 -0.13672118393E+03  0.25537934549E+02  0.16741152288E+03  0.21764991668E+03  0.00000000000E+00 0.  1.
</event>
<event>
 7    1  0.2842702E-009  0.1281648E+03  0.7561462E-02  0.1230205E+00
         -3   -1    0    0    0  501 -0.00000000000E+00  0.00000000000E+00  0.94410653750E+03  0.94410653750E+03  0.00000000000E+00 0.  1.
          3   -1    0    0  501    0  0.00000000000E+00 -0.00000000000E+00 -0.25870522500E+02  0.25870522500E+02  0.00000000000E+00 0. -1.
         25    2    1    2    0    0  0.96945126676E+02  0.49876251981E+02  0.58899448746E+03  0.61192136562E+03  0.12508898171E+03 0.  0.
          5    1    3    3  502    0 -0.19438357449E+02  0.12983478888E+02  0.23597410149E+02  0.33477315156E+02  0.41800000000E+01 0. -1.
         -5    1    3    3    0  502  0.11638348412E+03  0.36892773093E+02  0.56539707731E+03  0.57844405046E+03  0.41800000000E+01 0. -1.
        -11    1    1    2    0    0 -0.46022374117E+02 -0.13914228064E+02  0.26194602622E+03  0.26632195800E+03  0.00000000000E+00 0.  1.
         11    1    1    2    0    0 -0.50922752559E+02 -0.35962023917E+02  0.67295501327E+02  0.91733736385E+02  0.00000000000E+00 0. -1.
</event>
<event>
 7    1  0.2842702E-009  0.1108878E+03  0.7561462E-02  0.1258935E+00
         -1   -1    0    0    0  501 -0.00000000000E+00  0.00000000000E+00  0.32169734820E+02  0.32169734820E+02  0.00000000000E+00 0.  1.
          1   -1    0    0  501    0  0.00000000000E+00 -0.00000000000E+00 -0.42392626781E+03  0.42392626781E+03  0.00000000000E+00 0. -1.
         25    2    1    2    0    0 -0.44532109462E+01 -0.38470766929E+02 -0.26280454431E+03  0.29362157646E+03  0.12509025006E+03 0.  0.
          5    1    3    3  502    0 -0.55279597384E+02 -0.50935951769E+02 -0.18530326053E+03  0.20001268918E+03  0.41800000000E+01 0.  1.
         -5    1    3    3    0  502  0.50826386437E+02  0.12465184841E+02 -0.77501283784E+02  0.93608887289E+02  0.41800000000E+01 0.  1.
        -11    1    1    2    0    0  0.25384979352E+02 -0.19723938275E+02 -0.70023022426E+02  0.77049689081E+02  0.00000000000E+00 0.  1.
         11    1    1    2    0    0 -0.20931768406E+02  0.58194705204E+02 -0.58928966256E+02  0.85424737087E+02  0.00000000000E+00 0. -1.
</event>
<event>
 7    1  0.2842702E-009  0.2311940E+03  0.7561462E-02  0.1125802E+00
         -1   -1    0    0    0  501 -0.00000000000E+00  0.00000000000E+00  0.23604406930E+03  0.23604406930E+03  0.00000000000E+00 0.  1.
          1   -1    0    0  501    0  0.00000000000E+00 -0.00000000000E+00 -0.33952598279E+03  0.33952598279E+03  0.00000000000E+00 0. -1.
         25    2    1    2    0    0  0.10653749780E+03 -0.19255645197E+03 -0.19402137966E+03  0.31893502506E+03  0.12508808421E+03 0.  0.
          5    1    3    3  502    0  0.12062611610E+03 -0.17297871686E+03 -0.20311279709E+03  0.29282174973E+03  0.41800000000E+01 0.  1.
         -5    1    3    3    0  502 -0.14088618301E+02 -0.19577735113E+02  0.90914174273E+01  0.26113275333E+02  0.41800000000E+01 0.  1.
        -11    1    1    2    0    0  0.36253383066E+00  0.43788324076E+02 -0.13673154087E+02  0.45874872195E+02  0.00000000000E+00 0. -1.
         11    1    1    2    0    0 -0.10690003163E+03  0.14876812790E+03  0.10421262026E+03  0.21076015483E+03  0.00000000000E+00 0.  1.
</event>
<event>
 7    1  0.2842702E-009  0.1503724E+03  0.7561462E-02  0.1200016E+00
         -1   -1    0    0    0  501 -0.00000000000E+00  0.00000000000E+00  0.33000361721E+02  0.33000361721E+02  0.00000000000E+00 0.  1.
          1   -1    0    0  501    0  0.00000000000E+00 -0.00000000000E+00 -0.73634066866E+03  0.73634066866E+03  0.00000000000E+00 0. -1.
         25    2    1    2    0    0 -0.10696422840E+03  0.20420989655E+02 -0.32154696713E+03  0.36179896850E+03  0.12509068135E+03 0.  0.
          5    1    3    3  502    0 -0.72093747420E+02 -0.47348310283E+02 -0.20542711375E+03  0.22283882598E+03  0.41800000000E+01 0.  1.
         -5    1    3    3    0  502 -0.34870480977E+02  0.67769299937E+02 -0.11611985338E+03  0.13896014251E+03  0.41800000000E+01 0.  1.
        -11    1    1    2    0    0  0.63399248423E+01 -0.35723513272E+02 -0.60841785302E+02  0.70838456266E+02  0.00000000000E+00 0.  1.
         11    1    1    2    0    0  0.10062430356E+03  0.15302523617E+02 -0.32095155451E+03  0.33670360562E+03  0.00000000000E+00 0. -1.
</event>
<event>
 6    1  0.2842702E-009  0.1375604E+03  0.7561462E-02  0.1216650E+00
         -4   -1    0    0    0  501 -0.00000000000E+00  0.00000000000E+00  0.56654965494E+02  0.56654965494E+02  0.00000000000E+00 0.  1.
          4   -1    0    0  501    0  0.00000000000E+00 -0.00000000000E+00 -0.44914584575E+03  0.44914584575E+03  0.00000000000E+00 0. -1.
          5    1    1    2  502    0 -0.47433694178E+02  0.63716401975E+02 -0.68841049306E+02  0.10519647187E+03  0.41800000000E+01 0. -1.
         -5    1    1    2    0  502  0.69322645866E+02  0.28643015046E+02 -0.33283021762E+02  0.82166194256E+02  0.41800000000E+01 0. -1.
        -11    1    1    2    0    0  0.19505210010E+02 -0.71476654764E+02 -0.23402216607E+03  0.24547044548E+03  0.00000000000E+00 0. -1.
         11    1    1    2    0    0 -0.41394161699E+02 -0.20882762257E+02 -0.56344643119E+02  0.72967699638E+02  0.00000000000E+00 0.  1.
</event>
<event>
 7    1  0.2842702E-009  0.2964065E+03  0.7561462E-02  0.1087051E+00
          1   -1    0    0  501    0  0.00000000000E+00  0.00000000000E+00  0.38766597572E+03  0.38766597572E+03  0.00000000000E+00 0. -1.
         -1   -1    0    0    0  501 -0.00000000000E+00 -0.00000000000E+00 -0.23365523847E+03  0.23365523847E+03  0.00000000000E+00 0.  1.
         25    2    1    2    0    0 -0.21935635681E+03  0.17320744294E+03  0.42895028840E+02  0.30920564388E+03  0.12510042824E+03 0.  0.
          5    1    3    3  502    0 -0.17534972820E+03  0.69515756384E+02  0.53158025620E+02  0.19601840641E+03  0.41800000000E+01 0. -1.
         -5    1    3    3    0  502 -0.44006628617E+02  0.10369168656E+03 -0.10262996780E+02  0.11318723747E+03  0.41800000000E+01 0. -1.
        -11    1    1    2    0    0  0.18897480210E+03 -0.10369061723E+03  0.76501004242E+02  0.22872608854E+03  0.00000000000E+00 0.  1.
         11    1    1    2    0    0  0.30381554715E+02 -0.69516825713E+02  0.34614704163E+02  0.83389481761E+02  0.00000000000E+00 0. -1.
</event>
<event>
 7    1  0.2842702E-009  0.8365197E+02  0.7561462E-02  0.1318996E+00
         -1   -1    0    0    0  501 -0.00000000000E+00  0.00000000000E+00  0.23496774257E+02  0.23496774257E+02  0.00000000000E+00 0.  1.
          1   -1    0    0  501    0  0.00000000000E+00 -0.00000000000E+00 -0.69220987602E+03  0.69220987602E+03  0.00000000000E+00 0. -1.
         25    2    1    2    0    0 -0.22605638980E+00  0.40555873832E+02 -0.22714802689E+03  0.26246727119E+03  0.12509201543E+03 0.  0.
          5    1    3    3  502    0  0.11976804788E+02 -0.11675444453E+02 -0.20259790045E+03  0.20333012940E+03  0.41800000000E+01 0.  1.
         -5    1    3    3    0  502 -0.12202861178E+02  0.52231318285E+02 -0.24550126438E+02  0.59137141788E+02  0.41800000000E+01 0.  1.
        -11    1    1    2    0    0 -0.82916502050E+01  0.26962940122E+02 -0.69587756540E+02  0.75087998132E+02  0.00000000000E+00 0.  1.
         11    1    1    2    0    0  0.85177065948E+01 -0.67518813954E+02 -0.37197731833E+03  0.37815138095E+03  0.00000000000E+00 0. -1.
</event>
<event>
 7    1  0.2842702E-009  0.9501461E+02  0.7561462E-02  0.1291143E+00
          1   -1    0    0  501    0  0.00000000000E+00  0.00000000000E+00  0.54086678662E+03  0.54086678662E+03  0.00000000000E+00 0. -1.
         -1   -1    0    0    0  501 -0.00000000000E+00 -0.00000000000E+00 -0.30082205835E+02  0.30082205835E+02  0.00000000000E+00 0.  1.
         25    2    1    2    0    0 -0.38298219863E+02 -0.11330789349E+02  0.40418458582E+03  0.42498134366E+03  0.12509525415E+03 0.  0.
          5    1    3    3  502    0  0.31284405895E+02  0.13998836281E+02  0.37925985560E+02  0.51288734144E+02  0.41800000000E+01 0. -1.
         -5    1    3    3    0  502 -0.69582625758E+02 -0.25329625629E+02  0.36625860026E+03  0.37369260951E+03  0.41800000000E+01 0. -1.
        -11    1    1    2    0    0  0.10948814592E+02  0.40142512198E+02  0.11906370108E+02  0.43278857144E+02  0.00000000000E+00 0.  1.
         11    1    1    2    0    0  0.27349405271E+02 -0.28811722850E+02  0.94693624864E+02  0.10268879166E+03  0.00000000000E+00 0. -1.
</event>
<event>
 7    1  0.2842702E-009  0.8657612E+02  0.7561462E-02  0.1311362E+00
         -1   -1    0    0    0  501 -0.00000000000E+00  0.00000000000E+00  0.79341155565E+02  0.79341155565E+02  0.00000000000E+00 0.  1.
          1   -1    0    0  501    0  0.00000000000E+00 -0.00000000000E+00 -0.19684633426E+03  0.19684633426E+03  0.00000000000E+00 0. -1.
         25    2    1    2    0    0  0.43022115940E+02  0.45307755555E+02 -0.70488776893E+02  0.15658781763E+03  0.12508949512E+03 0.  0.
          5    1    3    3  502    0  0.30555952338E+02  0.22184470916E+02  0.32638316060E+02  0.50085417522E+02  0.41800000000E+01 0. -1.
         -5    1    3    3    0  502  0.12466163603E+02  0.23123284640E+02 -0.10312709295E+03  0.10650240011E+03  0.41800000000E+01 0. -1.
        -11    1    1    2    0    0 -0.33889252724E+02  0.22151615802E+02 -0.26923501873E+02  0.48621502301E+02  0.00000000000E+00 0.  1.
         11    1    1    2    0    0 -0.91328632159E+01 -0.67459371358E+02 -0.20092899932E+02  0.70978169899E+02  0.00000000000E+00 0. -1.
</event>
<event>
 7    1  0.2842702E-009  0.1103314E+03  0.7561462E-02  0.1259957E+00
         -1   -1    0    0    0  501 -0.00000000000E+00  0.00000000000E+00  0.38295305593E+02  0.38295305593E+02  0.00000000000E+00 0.  1.
          1   -1    0    0  501    0  0.00000000000E+00 -0.00000000000E+00 -0.42199720588E+03  0.42199720588E+03  0.00000000000E+00 0. -1.
         25    2    1    2    0    0 -0.22298265240E+02 -0.12725915535E+02 -0.32154804941E+03  0.34597697226E+03  0.12509098968E+03 0.  0.
          5    1    3    3  502    0 -0.70635158049E+02  0.94510740421E+01 -0.21965558091E+03  0.23096470505E+03  0.41800000000E+01 0.  1.
         -5    1    3    3    0  502  0.48336892809E+02 -0.22176989577E+02 -0.10189246850E+03  0.11501226722E+03  0.41800000000E+01 0.  1.
        -11    1    1    2    0    0  0.36888229289E+02  0.46373385137E+02 -0.39277244040E+02  0.71091027623E+02  0.00000000000E+00 0. -1.
         11    1    1    2    0    0 -0.14589964050E+02 -0.33647469602E+02 -0.22876606841E+02  0.43224511589E+02  0.00000000000E+00 0.  1.
</event>
<event>
 7    1  0.2842702E-009  0.6406100E+02  0.7561462E-02  0.1381539E+00
          2   -1    0    0  501    0  0.00000000000E+00  0.00000000000E+00  0.25760465928E+03  0.25760465928E+03  0.00000000000E+00 0. -1.
         -2   -1    0    0    0  501 -0.00000000000E+00 -0.00000000000E+00 -0.38343266856E+02  0.38343266856E+02  0.00000000000E+00 0.  1.
         25    2    1    2    0    0  0.62551431647E+01  0.14408613232E+02  0.14169885290E+03  0.18966474544E+03  0.12508963106E+03 0.  0.
          5    1    3    3  502    0 -0.50782052483E+01  0.40642514945E+02 -0.37821396821E+01  0.41344638954E+02  0.41800000000E+01 0.  1.
         -5    1    3    3    0  502  0.11333348413E+02 -0.26233901713E+02  0.14548099258E+03  0.14832010648E+03  0.41800000000E+01 0.  1.
        -11    1    1    2    0    0  0.10436945607E+02 -0.32095334822E+02  0.11127556144E+02  0.35536781743E+02  0.00000000000E+00 0.  1.
         11    1    1    2    0    0 -0.16692088772E+02  0.17686721590E+02  0.66434983380E+02  0.70746398953E+02  0.00000000000E+00 0. -1.
</event>
<event>
 7    1  0.2842702E-009  0.1439453E+03  0.7561462E-02  0.1208117E+00
          1   -1    0    0  501    0  0.00000000000E+00  0.00000000000E+00  0.23251764026E+03  0.23251764026E+03  0.00000000000E+00 0.  1.
         -1   -1    0    0    0  501 -0.00000000000E+00 -0.00000000000E+00 -0.11569175197E+03  0.11569175197E+03  0.00000000000E+00 0. -1.
         25    2    1    2    0    0 -0.79258052736E+02 -0.81187060627E+02  0.13224787819E+02  0.16939266617E+03  0.12508318273E+03 0.  0.
          5    1    3    3  502    0  0.29823648305E+02 -0.24829041165E+02  0.24406126673E+02  0.46033278208E+02  0.41800000000E+01 0. -1.
         -5    1    3    3    0  502 -0.10908170104E+03 -0.56358019462E+02 -0.11181338855E+02  0.12335938796E+03  0.41800000000E+01 0. -1.
        -11    1    1    2    0    0  0.29138054990E+02 -0.16544053454E+01  0.70814885797E+02  0.76593154760E+02  0.00000000000E+00 0.  1.
         11    1    1    2    0    0  0.50119997746E+02  0.82841465973E+02  0.32786214674E+02  0.10222357131E+03  0.00000000000E+00 0. -1.
</event>
<event>
 7    1  0.2842702E-009  0.2055115E+03  0.7561462E-02  0.1145170E+00
          1   -1    0    0  501    0  0.00000000000E+00  0.00000000000E+00  0.86261795208E+03  0.86261795208E+03  0.00000000000E+00 0. -1.
         -1   -1    0    0    0  501 -0.00000000000E+00 -0.00000000000E+00 -0.70927668203E+02  0.70927668203E+02  0.00000000000E+00 0.  1.
         25    2    1    2    0    0  0.14020854863E+03  0.12260178268E+03  0.63653437077E+03  0.67491723262E+03  0.12509049321E+03 0.  0.
          5    1    3    3  502    0  0.69824418469E+02  0.11329888171E+03  0.53251346034E+03  0.54890813790E+03  0.41800000000E+01 0. -1.
         -5    1    3    3    0  502  0.70384130164E+02  0.93029009678E+01  0.10402091043E+03  0.12600909472E+03  0.41800000000E+01 0. -1.
        -11    1    1    2    0    0 -0.68700300867E+02 -0.47020481517E+01  0.46820482667E+02  0.83270632238E+02  0.00000000000E+00 0.  1.
         11    1    1    2    0    0 -0.71508247766E+02 -0.11789973452E+03  0.10833543044E+03  0.17535775543E+03  0.00000000000E+00 0. -1.
</event>
<event>
 7    1  0.2842702E-009  0.9303525E+02  0.7561462E-02  0.1295664E+00
         -2   -1    0    0    0  501 -0.00000000000E+00  0.00000000000E+00  0.93749751639E+02  0.93749751639E+02  0.00000000000E+00 0. -1.
          2   -1    0    0  501    0  0.00000000000E+00 -0.00000000000E+00 -0.13214865144E+03  0.13214865144E+03  0.00000000000E+00 0.  1.
         25    2    1    2    0    0 -0.88521002883E+01  0.59336750704E+01 -0.50878134406E+02  0.13545813383E+03  0.12508698286E+03 0.  0.
          5    1    3    3  502    0 -0.63814075513E+02  0.87018598534E+01 -0.69370577217E+01  0.64911892349E+02  0.41800000000E+01 0. -1.
         -5    1    3    3    0  502  0.54961975225E+02 -0.27681847831E+01 -0.43941076684E+02  0.70546241486E+02  0.41800000000E+01 0. -1.
        -11    1    1    2    0    0  0.30321976507E+01 -0.35791866278E+02 -0.23804356662E+02  0.43091754551E+02  0.00000000000E+00 0.  1.
         11    1    1    2    0    0  0.58199026376E+01  0.29858191207E+02  0.36283591264E+02  0.47348514695E+02  0.00000000000E+00 0. -1.
</event>
<event>
 7    1  0.2842702E-009  0.1346124E+03  0.7561462E-02  0.1220768E+00
         -1   -1    0    0    0  501 -0.00000000000E+00  0.00000000000E+00  0.13359364158E+03  0.13359364158E+03  0.00000000000E+00 0.  1.
          1   -1    0    0  501    0  0.00000000000E+00 -0.00000000000E+00 -0.14748515711E+03  0.14748515711E+03  0.00000000000E+00 0. -1.
         25    2    1    2    0    0 -0.19350754371E+02 -0.87439815436E+02 -0.11206940003E+02  0.15425067668E+03  0.12508997854E+03 0.  0.
          5    1    3    3  502    0  0.46669729302E+02 -0.52040568489E+02 -0.31111260910E+02  0.76626805736E+02  0.41800000000E+01 0.  1.
         -5    1    3    3    0  502 -0.66020483674E+02 -0.35399246947E+02  0.19904320907E+02  0.77623870940E+02  0.41800000000E+01 0.  1.
        -11    1    1    2    0    0  0.36156961984E+02  0.10627948295E+01  0.10922098914E+02  0.37785548527E+02  0.00000000000E+00 0. -1.
         11    1    1    2    0    0 -0.16806207613E+02  0.86377020607E+02 -0.13606674445E+02  0.89042573484E+02  0.00000000000E+00 0.  1.
</event>
<event>
 7    1  0.2842702E-009  0.1425810E+03  0.7561462E-02  0.1209898E+00
         -2   -1    0    0    0  501 -0.00000000000E+00  0.00000000000E+00  0.36592631145E+02  0.36592631145E+02  0.00000000000E+00 0.  1.
          2   -1    0    0  501    0  0.00000000000E+00 -0.00000000000E+00 -0.57705247104E+03  0.57705247104E+03  0.00000000000E+00 0. -1.
         25    2    1    2    0    0  0.80407472829E+02  0.54639792430E+02 -0.28673558979E+03  0.32759294394E+03  0.12509584271E+03 0.  0.
          5    1    3    3  502    0  0.10590262947E+03  0.16879440643E+02 -0.23610871903E+03  0.25935512728E+03  0.41800000000E+01 0. -1.
         -5    1    3    3    0  502 -0.25495156643E+02  0.37760351787E+02 -0.50626870760E+02  0.68237816659E+02  0.41800000000E+01 0. -1.
        -11    1    1    2    0    0 -0.81114436176E+02 -0.37577090325E+01 -0.15763602528E+03  0.17732114538E+03  0.00000000000E+00 0. -1.
         11    1    1    2    0    0  0.70696334675E+00 -0.50882083398E+02 -0.96088224824E+02  0.10873101286E+03  0.00000000000E+00 0.  1.
</event>
<event>
 6    1  0.2842702E-009  0.1739938E+03  0.7561462E-02  0.1173746E+00
          1   -1    0    0  501    0  0.00000000000E+00  0.00000000000E+00  0.71233888996E+02  0.71233888996E+02  0.00000000000E+00 0. -1.
         -1   -1    0    0    0  501 -0.00000000000E+00 -0.00000000000E+00 -0.51471907013E+03  0.51471907013E+03  0.00000000000E+00 0.  1.
          5    1    1    2  502    0  0.23322675265E+01  0.11916243054E+03 -0.19007266866E+03  0.22438853824E+03  0.41800000000E+01 0. -1.
         -5    1    1    2    0  502  0.65516103338E+02  0.23446212186E+02 -0.35807389202E+02  0.78369166028E+02  0.41800000000E+01 0. -1.
        -11    1    1    2    0    0 -0.48357041014E+02 -0.80339196652E+02 -0.56738326397E+02  0.10959939606E+03  0.00000000000E+00 0. -1.
         11    1    1    2    0    0 -0.19491329851E+02 -0.62269446073E+02 -0.16086679687E+03  0.17359585879E+03  0.00000000000E+00 0.  1.
</event>
<event>
 7    1  0.2842702E-009  0.1038969E+03  0.7561462E-02  0.1272308E+00
          2   -1    0    0  501    0  0.00000000000E+00  0.00000000000E+00  0.15325429541E+03  0.15325429541E+03  0.00000000000E+00 0. -1.
         -2   -1    0    0    0  501 -0.00000000000E+00 -0.00000000000E+00 -0.11895457883E+03  0.11895457883E+03  0.00000000000E+00 0.  1.
         25    2    1    2    0    0  0.53891506139E+02  0.46299698264E+02 -0.15363094406E+02  0.14467664987E+03  0.12508937547E+03 0.  0.
          5    1    3    3  502    0  0.82449903755E+02  0.13287568670E+02  0.22662901304E+02  0.86635013741E+02  0.41800000000E+01 0. -1.
         -5    1    3    3    0  502 -0.28558397616E+02  0.33012129594E+02 -0.38025995710E+02  0.58041636129E+02  0.41800000000E+01 0. -1.
        -11    1    1    2    0    0 -0.12333019883E+02  0.58428669166E+01  0.58681116916E+02  0.60247124046E+02  0.00000000000E+00 0. -1.
         11    1    1    2    0    0 -0.41558486256E+02 -0.52142565180E+02 -0.90183059319E+01  0.67285100322E+02  0.00000000000E+00 0.  1.
</event>
<event>
 7    1  0.2842702E-009  0.1625353E+03  0.7561462E-02  0.1185864E+00
         -1   -1    0    0    0  501 -0.00000000000E+00  0.00000000000E+00  0.64167787654E+02  0.64167787654E+02  0.00000000000E+00 0.  1.
          1   -1    0    0  501    0  0.00000000000E+00 -0.00000000000E+00 -0.44987769612E+03  0.44987769612E+03  0.00000000000E+00 0. -1.
         25    2    1    2    0    0  0.44674449308E+02  0.11449286682E+03 -0.17197294817E+03  0.24561438584E+03  0.12508920280E+03 0.  0.
          5    1    3    3  502    0  0.41251770413E+02 -0.10682039947E+02 -0.78066213901E+02  0.89037187133E+02  0.41800000000E+01 0. -1.
         -5    1    3    3    0  502  0.34226788953E+01  0.12517490676E+03 -0.93906734269E+02  0.15657719871E+03  0.41800000000E+01 0. -1.
        -11    1    1    2    0    0 -0.75329784132E+02 -0.92187558682E+02 -0.12866198139E+03  0.17529126563E+03  0.00000000000E+00 0.  1.
         11    1    1    2    0    0  0.30655334824E+02 -0.22305308136E+02 -0.85074978904E+02  0.93139832294E+02  0.00000000000E+00 0. -1.
</event>
<event>
 7    1  0.2842702E-009  0.8238879E+02  0.7561462E-02  0.1322406E+00
         -2   -1    0    0    0  501 -0.00000000000E+00  0.00000000000E+00  0.11593125870E+03  0.11593125870E+03  0.00000000000E+00 0.  1.
          2   -1    0    0  501    0  0.00000000000E+00 -0.00000000000E+00 -0.10776600841E+03  0.10776600841E+03  0.00000000000E+00 0. -1.
         25    2    1    2    0    0  0.22500085565E+02 -0.10702012171E+02  0.17249740461E+02  0.12870879559E+03  0.12509042170E+03 0.  0.
          5    1    3    3  502    0  0.49511612534E+02  0.24911357974E+02  0.48696533693E+02  0.73897228132E+02  0.41800000000E+01 0.  1.
         -5    1    3    3    0  502 -0.27011526969E+02 -0.35613370146E+02 -0.31446793232E+02  0.54811567455E+02  0.41800000000E+01 0.  1.
        -11    1    1    2    0    0 -0.42856605499E+02  0.95786794263E+01  0.28414879921E+02  0.52305306953E+02  0.00000000000E+00 0.  1.
         11    1    1    2    0    0  0.20356519934E+02  0.11233327452E+01 -0.37499370091E+02  0.42683164568E+02  0.00000000000E+00 0. -1.
</event>
<event>
 7    1  0.2842702E-009  0.1008509E+03  0.7561462E-02  0.1278517E+00
          3   -1    0    0  501    0  0.00000000000E+00  0.00000000000E+00  0.57228271344E+03  0.57228271344E+03  0.00000000000E+00 0. -1.
         -3   -1    0    0    0  501 -0.00000000000E+00 -0.00000000000E+00 -0.42884038310E+02  0.42884038310E+02  0.00000000000E+00 0.  1.
         25    2    1    2    0    0  0.67750901522E+02 -0.24590627960E+02  0.46087979400E+03  0.48296213267E+03  0.12508938177E+03 0.  0.
          5    1    3    3  502    0 -0.11010672667E+02 -0.18049957396E+02  0.32500160489E+03  0.32571544553E+03  0.41800000000E+01 0.  1.
         -5    1    3    3    0  502  0.78761574189E+02 -0.65406705631E+01  0.13587818911E+03  0.15724668714E+03  0.41800000000E+01 0.  1.
        -11    1    1    2    0    0 -0.68822565973E+02 -0.71994014118E+01  0.16349904937E+02  0.71103420166E+02  0.00000000000E+00 0.  1.
         11    1    1    2    0    0  0.10716644512E+01  0.31790029371E+02  0.52168976192E+02  0.61101198917E+02  0.00000000000E+00 0. -1.
</event>
<event>
 7    1  0.2842702E-009  0.1620236E+03  0.7561462E-02  0.1186431E+00
         -1   -1    0    0    0  501 -0.00000000000E+00  0.00000000000E+00  0.72551362902E+03  0.72551362902E+03  0.00000000000E+00 0.  1.
          1   -1    0    0  501    0  0.00000000000E+00 -0.00000000000E+00 -0.41131890723E+02  0.41131890723E+02  0.00000000000E+00 0. -1.
         25    2    1    2    0    0  0.70459619614E+02  0.11220315074E+03  0.41308768718E+03  0.45148977676E+03  0.12508987246E+03 0.  0.
          5    1    3    3  502    0  0.49079813970E+02 -0.68018459121E+01  0.58212302707E+02  0.76558721473E+02  0.41800000000E+01 0.  1.
         -5    1    3    3    0  502  0.21379805644E+02  0.11900499665E+03  0.35487538447E+03  0.37493105529E+03  0.41800000000E+01 0.  1.
        -11    1    1    2    0    0 -0.76796334069E+02 -0.51864287215E+02  0.20677724290E+03  0.22659304799E+03  0.00000000000E+00 0.  1.
         11    1    1    2    0    0  0.63367144555E+01 -0.60338863524E+02  0.64516808217E+02  0.88562694991E+02  0.00000000000E+00 0. -1.
</event>
<event>
 7    1  0.2842702E-009  0.1191216E+03  0.7561462E-02  0.1244553E+00
          2   -1    0    0  501    0  0.00000000000E+00  0.00000000000E+00  0.95758819999E+02  0.95758819999E+02  0.00000000000E+00 0. -1.
         -2   -1    0    0    0  501 -0.00000000000E+00 -0.00000000000E+00 -0.15805702463E+03  0.15805702463E+03  0.00000000000E+00 0.  1.
         25    2    1    2    0    0  0.28688036027E+02 -0.43153825762E+02 -0.63832045207E+02  0.14968734357E+03  0.12508602936E+03 0.  0.
          5    1    3    3  502    0 -0.36795770039E+02  0.21687386262E+02 -0.24365128426E+02  0.49349805460E+02  0.41800000000E+01 0.  1.
         -5    1    3    3    0  502  0.65483806066E+02 -0.64841212024E+02 -0.39466916781E+02  0.10033753811E+03  0.41800000000E+01 0.  1.
        -11    1    1    2    0    0 -0.57458365838E+02  0.46762385544E+02  0.77095945948E+01  0.74482362713E+02  0.00000000000E+00 0.  1.
         11    1    1    2    0    0  0.28770329811E+02 -0.36085597818E+01 -0.61757540169E+01  0.29646138346E+02  0.00000000000E+00 0. -1.
</event>
<event>
 7    1  0.2842702E-009  0.1341594E+03  0.7561462E-02  0.1221411E+00
          2   -1    0    0  501    0  0.00000000000E+00  0.00000000000E+00  0.28626741827E+03  0.28626741827E+03  0.00000000000E+00 0. -1.
         -2   -1    0    0    0  501 -0.00000000000E+00 -0.00000000000E+00 -0.11769240400E+03  0.11769240400E+03  0.00000000000E+00 0.  1.
         25    2    1    2    0    0  0.51931118112E+02 -0.68475324565E+02 -0.43423124484E+02  0.15785408359E+03  0.12508650152E+03 0.  0.
          5    1    3    3  502    0  0.21710550188E+02 -0.99738532575E+02 -0.49898281971E+02  0.11369447574E+03  0.41800000000E+01 0.  1.
         -5    1    3    3    0  502  0.30220567924E+02  0.31263208010E+02  0.64751574871E+01  0.44159607847E+02  0.41800000000E+01 0.  1.
        -11    1    1    2    0    0 -0.27273998342E+02  0.87296169327E+02  0.17774581601E+03  0.19989514070E+03  0.00000000000E+00 0. -1.
         11    1    1    2    0    0 -0.24657119770E+02 -0.18820844762E+02  0.34252322748E+02  0.46210597990E+02  0.00000000000E+00 0.  1.
</event>
<event>
 7    1  0.2842702E-009  0.9491289E+02  0.7561462E-02  0.1291372E+00
         -2   -1    0    0    0  501 -0.00000000000E+00  0.00000000000E+00  0.38822156608E+03  0.38822156608E+03  0.00000000000E+00 0.  1.
          2   -1    0    0  501    0  0.00000000000E+00 -0.00000000000E+00 -0.35995999748E+02  0.35995999748E+02  0.00000000000E+00 0. -1.
         25    2    1    2    0    0  0.41815871925E+02 -0.22705345044E+02  0.21445723792E+03  0.25279080705E+03  0.12508871009E+03 0.  0.
          5    1    3    3  502    0 -0.46734002610E+01 -0.45506089389E+02  0.17595958635E+02  0.49190802003E+02  0.41800000000E+01 0. -1.
         -5    1    3    3    0  502  0.46489272186E+02  0.22800744345E+02  0.19686127929E+03  0.20360000504E+03  0.41800000000E+01 0. -1.
        -11    1    1    2    0    0 -0.48084139249E+02 -0.17560891288E+02  0.38294082928E+02  0.63928914721E+02  0.00000000000E+00 0. -1.
         11    1    1    2    0    0  0.62682673238E+01  0.40266236331E+02  0.99474245477E+02  0.10749784406E+03  0.00000000000E+00 0.  1.
</event>
<event>
 7    1  0.2842702E-009  0.1173697E+03  0.7561462E-02  0.1247500E+00
          1   -1    0    0  501    0  0.00000000000E+00  0.00000000000E+00  0.20921663889E+03  0.20921663889E+03  0.00000000000E+00 0. -1.
         -1   -1    0    0    0  501 -0.00000000000E+00 -0.00000000000E+00 -0.84154929647E+02  0.84154929647E+02  0.00000000000E+00 0.  1.
         25    2    1    2    0    0  0.38444500894E+02  0.63810684669E+02  0.55459449662E+02  0.15579404347E+03  0.12508497231E+03 0.  0.
          5    1    3    3  502    0 -0.22280213534E+02  0.50136037286E+02 -0.19404108076E+02  0.58343996778E+02  0.41800000000E+01 0.  1.
         -5    1    3    3    0  502  0.60724714428E+02  0.13674647383E+02  0.74863557738E+02  0.97450046694E+02  0.41800000000E+01 0.  1.
        -11    1    1    2    0    0 -0.54961698512E+02 -0.38045826071E+01  0.22435703691E+02  0.59486334164E+02  0.00000000000E+00 0.  1.
         11    1    1    2    0    0  0.16517197618E+02 -0.60006102061E+02  0.47166555891E+02  0.78091190901E+02  0.00000000000E+00 0. -1.
</event>
<event>
 7    1  0.2842702E-009  0.1212485E+03  0.7561462E-02  0.1241052E+00
          2   -1    0    0  501    0  0.00000000000E+00  0.00000000000E+00  0.13271480616E+03  0.13271480616E+03  0.00000000000E+00 0. -1.
         -2   -1    0    0    0  501 -0.00000000000E+00 -0.00000000000E+00 -0.16822700946E+03  0.16822700946E+03  0.00000000000E+00 0.  1.
         25    2    1    2    0    0 -0.76500199052E+02  0.28150717730E+02 -0.75893827763E+02  0.16748782819E+03  0.12509019201E+03 0.  0.
          5    1    3    3  502    0 -0.46352365332E+02 -0.34145771631E+02  0.84127086502E+01  0.58332851456E+02  0.41800000000E+01 0. -1.
         -5    1    3    3    0  502 -0.30147833720E+02  0.62296489361E+02 -0.84306536413E+02  0.10915497674E+03  0.41800000000E+01 0. -1.
        -11    1    1    2    0    0  0.38761481136E+02 -0.56304258771E+02 -0.43698317511E+01  0.68496112336E+02  0.00000000000E+00 0.  1.
         11    1    1    2    0    0  0.37738717916E+02  0.28153541042E+02  0.44751456213E+02  0.64957875091E+02  0.00000000000E+00 0. -1.
</event>
<event>
 7    1  0.2842702E-009  0.1248752E+03  0.7561462E-02  0.1235264E+00
          2   -1    0    0  501    0  0.00000000000E+00  0.00000000000E+00  0.48578187824E+02  0.48578187824E+02  0.00000000000E+00 0. -1.
         -2   -1    0    0    0  501 -0.00000000000E+00 -0.00000000000E+00 -0.45237011673E+03  0.45237011673E+03  0.00000000000E+00 0.  1.
         25    2    1    2    0    0 -0.89788321133E+02 -0.50902219300E+02 -0.18049614339E+03  0.24265112716E+03  0.12509089972E+03 0.  0.
          5    1    3    3  502    0  0.53878439839E+01 -0.21216272811E+02 -0.12794872768E+03  0.12987497222E+03  0.41800000000E+01 0.  1.
         -5    1    3    3    0  502 -0.95176165117E+02 -0.29685946489E+02 -0.52547415704E+02  0.11277615494E+03  0.41800000000E+01 0.  1.
        -11    1    1    2    0    0  0.16191756648E+02  0.51598531895E+02 -0.11829596791E+03  0.13007120166E+03  0.00000000000E+00 0. -1.
         11    1    1    2    0    0  0.73596564485E+02 -0.69631259491E+00 -0.10499981762E+03  0.12822597574E+03  0.00000000000E+00 0.  1.
</event>
<event>
 7    1  0.2842702E-009  0.1576154E+03  0.7561462E-02  0.1191416E+00
         -2   -1    0    0    0  501 -0.00000000000E+00  0.00000000000E+00  0.48715828438E+02  0.48715828438E+02  0.00000000000E+00 0. -1.
          2   -1    0    0  501    0  0.00000000000E+00 -0.00000000000E+00 -0.76820030470E+03  0.76820030470E+03  0.00000000000E+00 0.  1.
         25    2    1    2    0    0 -0.51800441567E+02  0.12257867409E+03 -0.56552942761E+03  0.59428924286E+03  0.12508938240E+03 0.  0.
          5    1    3    3  502    0  0.20422253247E+02  0.10540146811E+03 -0.36173276338E+03  0.37735209342E+03  0.41800000000E+01 0.  1.
         -5    1    3    3    0  502 -0.72222694814E+02  0.17177205979E+02 -0.20379666423E+03  0.21693714943E+03  0.41800000000E+01 0.  1.
        -11    1    1    2    0    0  0.11112556621E+02 -0.37739010599E+02 -0.11364883682E+03  0.12026545617E+03  0.00000000000E+00 0.  1.
         11    1    1    2    0    0  0.40687884947E+02 -0.84839663491E+02 -0.40306211825E+02  0.10236143412E+03  0.00000000000E+00 0. -1.
</event>
<event>
 6    1  0.2842702E-009  0.1535719E+03  0.7561462E-02  0.1196151E+00
         -1   -1    0    0    0  501 -0.00000000000E+00  0.00000000000E+00  0.12046079338E+03  0.12046079338E+03  0.00000000000E+00 0.  1.
          1   -1    0    0  501    0  0.00000000000E+00 -0.00000000000E+00 -0.23449313347E+03  0.23449313347E+03  0.00000000000E+00 0. -1.
          5    1    1    2  502    0  0.29447125260E+02 -0.17710122774E+01  0.16913574595E+02  0.34260926376E+02  0.41800000000E+01 0. -1.
         -5    1    1    2    0  502 -0.62990557713E+02 -0.12022251872E+03 -0.62796045522E+02  0.14960641731E+03  0.41800000000E+01 0. -1.
        -11    1    1    2    0    0  0.52461975527E+02  0.96151611504E+02 -0.17153796962E+02  0.11086768700E+03  0.00000000000E+00 0.  1.
         11    1    1    2    0    0 -0.18918543074E+02  0.25841919493E+02 -0.50996072194E+02  0.60218896157E+02  0.00000000000E+00 0. -1.
</event>
<event>
 7    1  0.2842702E-009  0.3217425E+03  0.7561462E-02  0.1074850E+00
         -2   -1    0    0    0  501 -0.00000000000E+00  0.00000000000E+00  0.10474151078E+03  0.10474151078E+03  0.00000000000E+00 0.  1.
          2   -1    0    0  501    0  0.00000000000E+00 -0.00000000000E+00 -0.11201239213E+04  0.11201239213E+04  0.00000000000E+00 0. -1.
         25    2    1    2    0    0  0.29078595205E+03 -0.12085435929E+03 -0.36788057743E+03  0.50014462053E+03  0.12508507557E+03 0.  0.
          5    1    3    3  502    0  0.13209909193E+02  0.38713124843E+01 -0.79787790312E+02  0.81074364901E+02  0.41800000000E+01 0. -1.
         -5    1    3    3    0  502  0.27757604285E+03 -0.12472567178E+03 -0.28809278712E+03  0.41907025563E+03  0.41800000000E+01 0. -1.
        -11    1    1    2    0    0 -0.16540044191E+03  0.25764849722E+02 -0.35840641125E+03  0.39557083978E+03  0.00000000000E+00 0.  1.
         11    1    1    2    0    0 -0.12538551014E+03  0.95089509573E+02 -0.28909542180E+03  0.32914997173E+03  0.00000000000E+00 0. -1.
</event>
<event>
 7    1  0.2842702E-009  0.9927997E+02  0.7561462E-02  0.1281817E+00
         -2   -1    0    0    0  501 -0.00000000000E+00  0.00000000000E+00  0.23679947879E+02  0.23679947879E+02  0.00000000000E+00 0.  1.
          2   -1    0    0  501    0  0.00000000000E+00 -0.00000000000E+00 -0.58117251301E+03  0.58117251301E+03  0.00000000000E+00 0. -1.
         25    2    1    2    0    0 -0.47438588700E+02 -0.14539390933E+02 -0.33151043674E+03  0.35778361332E+03  0.12509248859E+03 0.  0.
          5    1    3    3  502    0 -0.27196368730E+02 -0.56749580891E+02 -0.28413419604E+03  0.29104960258E+03  0.41800000000E+01 0. -1.
         -5    1    3    3    0  502 -0.20242219970E+02  0.42210189958E+02 -0.47376240702E+02  0.66734010734E+02  0.41800000000E+01 0. -1.
        -11    1    1    2    0    0  0.26474040161E+02 -0.29548634731E+02 -0.16085821345E+03  0.16567848819E+03  0.00000000000E+00 0. -1.
         11    1    1    2    0    0  0.20964548539E+02  0.44088025664E+02 -0.65123914938E+02  0.81390359376E+02  0.00000000000E+00 0.  1.
</event>
<event>
 7    1  0.2842702E-009  0.1668343E+03  0.7561462E-02  0.1181190E+00
          1   -1    0    0  501    0  0.00000000000E+00  0.00000000000E+00  0.64296900561E+03  0.64296900561E+03  0.00000000000E+00 0. -1.
         -1   -1    0    0    0  501 -0.00000000000E+00 -0.00000000000E+00 -0.49262553802E+02  0.49262553802E+02  0.00000000000E+00 0.  1.
         25    2    1    2    0    0 -0.12161251200E+03  0.69034035801E+02  0.32353346196E+03  0.37400060050E+03  0.12508895631E+03 0.  0.
          5    1    3    3  502    0 -0.14224601043E+03  0.70946850519E+02  0.24046875029E+03  0.28828818108E+03  0.41800000000E+01 0. -1.
         -5    1    3    3    0  502  0.20633498437E+02 -0.19128147177E+01  0.83064711676E+02  0.85712419425E+02  0.41800000000E+01 0. -1.
        -11    1    1    2    0    0  0.83047539130E+01 -0.33877621409E+02  0.12997202663E+03  0.13457113315E+03  0.00000000000E+00 0.  1.
         11    1    1    2    0    0  0.11330775808E+03 -0.35156414392E+02  0.14020096321E+03  0.18365982577E+03  0.00000000000E+00 0. -1.
</event>
<event>
 7    1  0.2842702E-009  0.3064913E+03  0.7561462E-02  0.1082040E+00
          2   -1    0    0  501    0  0.00000000000E+00  0.00000000000E+00  0.89291738171E+03  0.89291738171E+03  0.00000000000E+00 0. -1.
         -2   -1    0    0    0  501 -0.00000000000E+00 -0.00000000000E+00 -0.12026189577E+03  0.12026189577E+03  0.00000000000E+00 0.  1.
         25    2    1    2    0    0 -0.29944640702E+03  0.15270729938E+02  0.27670071014E+03  0.42674469718E+03  0.12508560155E+03 0.  0.
          5    1    3    3  502    0 -0.12497279800E+03  0.11103646377E+02  0.19984537714E+03  0.23600241178E+03  0.41800000000E+01 0.  1.
         -5    1    3    3    0  502 -0.17447360902E+03  0.41670835619E+01  0.76855332994E+02  0.19074228540E+03  0.41800000000E+01 0.  1.
        -11    1    1    2    0    0  0.25781239491E+03  0.19614052027E+02  0.41448786077E+03  0.48852034628E+03  0.00000000000E+00 0.  1.
         11    1    1    2    0    0  0.41634012108E+02 -0.34884781965E+02  0.81466915026E+02  0.97914234006E+02  0.00000000000E+00 0. -1.
</event>
<event>
 7    1  0.2842702E-009  0.9396785E+02  0.7561462E-02  0.1293518E+00
         -1   -1    0    0    0  501 -0.00000000000E+00  0.00000000000E+00  0.11031097802E+03  0.11031097802E+03  0.00000000000E+00 0.  1.
          1   -1    0    0  501    0  0.00000000000E+00 -0.00000000000E+00 -0.17949863898E+03  0.17949863898E+03  0.00000000000E+00 0. -1.
         25    2    1    2    0    0  0.55414353096E+02 -0.85597455762E+01  0.33749846047E+02  0.14117508614E+03  0.12508930036E+03 0.  0.
          5    1    3    3  502    0  0.61980316701E+02  0.18765628213E+02  0.69779215533E+02  0.95290711935E+02  0.41800000000E+01 0.  1.
         -5    1    3    3    0  502 -0.65659636053E+01 -0.27325373789E+02 -0.36029369487E+02  0.45884374207E+02  0.41800000000E+01 0.  1.
        -11    1    1    2    0    0 -0.65319253983E+02 -0.16765445055E+02 -0.10090535608E+03  0.12136546451E+03  0.00000000000E+00 0. -1.
         11    1    1    2    0    0  0.99049008872E+01  0.25325190631E+02 -0.20321509268E+01  0.27269066348E+02  0.00000000000E+00 0.  1.
</event>
<event>
 7    1  0.2842702E-009  0.1611806E+03  0.7561462E-02  0.1187370E+00
         -1   -1    0    0    0  501 -0.00000000000E+00  0.00000000000E+00  0.54625040614E+02  0.54625040614E+02  0.00000000000E+00 0.  1.
          1   -1    0    0  501    0  0.00000000000E+00 -0.00000000000E+00 -0.51194170068E+03  0.51194170068E+03  0.00000000000E+00 0. -1.
         25    2    1    2    0    0 -0.12198824573E+03  0.20565044387E+02 -0.19894972366E+03  0.26558817325E+03  0.12510808159E+03 0.  0.
          5    1    3    3  502    0 -0.73910844662E+02 -0.47352419230E+02 -0.13261746923E+03  0.15909094917E+03  0.41800000000E+01 0. -1.
         -5    1    3    3    0  502 -0.48077401066E+02  0.67917463617E+02 -0.66332254439E+02  0.10649722408E+03  0.41800000000E+01 0. -1.
        -11    1    1    2    0    0  0.11938499463E+03 -0.44262723847E+02 -0.23665470236E+03  0.26873297865E+03  0.00000000000E+00 0. -1.
         11    1    1    2    0    0  0.26032510983E+01  0.23697679459E+02 -0.21712234038E+02  0.32245589388E+02  0.00000000000E+00 0.  1.
</event>
<event>
 7    1  0.2842702E-009  0.1830570E+03  0.7561462E-02  0.1164877E+00
          1   -1    0    0  501    0  0.00000000000E+00  0.00000000000E+00  0.43643371198E+03  0.43643371198E+03  0.00000000000E+00 0. -1.
         -1   -1    0    0    0  501 -0.00000000000E+00 -0.00000000000E+00 -0.10024536818E+03  0.10024536818E+03  0.00000000000E+00 0.  1.
         25    2    1    2    0    0  0.24453648128E+02 -0.16862554515E+03  0.24624348031E+03  0.32452437492E+03  0.12509061890E+03 0.  0.
          5    1    3    3  502    0  0.61373510770E+02 -0.10984289196E+03  0.93891477947E+02  0.15705174552E+03  0.41800000000E+01 0. -1.
         -5    1    3    3    0  502 -0.36919862642E+02 -0.58782653182E+02  0.15235200237E+03  0.16747262940E+03  0.41800000000E+01 0. -1.
        -11    1    1    2    0    0 -0.10938950863E+01  0.35594313120E+02 -0.17392450200E+02  0.39631415026E+02  0.00000000000E+00 0.  1.
         11    1    1    2    0    0 -0.23359753042E+02  0.13303123203E+03  0.10733731369E+03  0.17252329022E+03  0.00000000000E+00 0. -1.
</event>
<event>
 7    1  0.2842702E-009  0.1435795E+03  0.7561462E-02  0.1208592E+00
         -2   -1    0    0    0  501 -0.00000000000E+00  0.00000000000E+00  0.19974773318E+03  0.19974773318E+03  0.00000000000E+00 0.  1.
          2   -1    0    0  501    0  0.00000000000E+00 -0.00000000000E+00 -0.10695512709E+03  0.10695512709E+03  0.00000000000E+00 0. -1.
         25    2    1    2    0    0 -0.96287430413E+02  0.11929169670E+02  0.46891331235E+02  0.16506497190E+03  0.12503628937E+03 0.  0.
          5    1    3    3  502    0 -0.12102661635E+03  0.29090528583E+02  0.50623297348E+02  0.13443917343E+03  0.41800000000E+01 0.  1.
         -5    1    3    3    0  502  0.24739185940E+02 -0.17161358913E+02 -0.37319661130E+01  0.30625798468E+02  0.41800000000E+01 0.  1.
        -11    1    1    2    0    0  0.10013646329E+03  0.18256845568E+02  0.25282798918E+02  0.10488013926E+03  0.00000000000E+00 0.  1.
         11    1    1    2    0    0 -0.38490328742E+01 -0.30186015238E+02  0.20618475935E+02  0.36757749114E+02  0.00000000000E+00 0. -1.
</event>
<event>
 7    1  0.2842702E-009  0.1459869E+03  0.7561462E-02  0.1205493E+00
         -2   -1    0    0    0  501 -0.00000000000E+00  0.00000000000E+00  0.28099054939E+02  0.28099054939E+02  0.00000000000E+00 0.  1.
          2   -1    0    0  501    0  0.00000000000E+00 -0.00000000000E+00 -0.79485355378E+03  0.79485355378E+03  0.00000000000E+00 0. -1.
         25    2    1    2    0    0 -0.62614809373E+02  0.76930998674E+02 -0.49425775969E+03  0.51940203221E+03  0.12509494450E+03 0.  0.
          5    1    3    3  502    0  0.20501782851E+01  0.91696594320E+02 -0.25248084455E+03  0.26865687764E+03  0.41800000000E+01 0.  1.
         -5    1    3    3    0  502 -0.64664987658E+02 -0.14765595646E+02 -0.24177691514E+03  0.25074515457E+03  0.41800000000E+01 0.  1.
        -11    1    1    2    0    0  0.60045095635E+02 -0.34201423988E+01 -0.11847534234E+03  0.13286654066E+03  0.00000000000E+00 0. -1.
         11    1    1    2    0    0  0.25697137374E+01 -0.73510856275E+02 -0.15402139681E+03  0.17068403585E+03  0.00000000000E+00 0.  1.
</event>
<event>
 7    1  0.2842702E-009  0.2804078E+03  0.7561462E-02  0.1095466E+00
          2   -1    0    0  501    0  0.00000000000E+00  0.00000000000E+00  0.22524180517E+03  0.22524180517E+03  0.00000000000E+00 0. -1.
         -2   -1    0    0    0  501 -0.00000000000E+00 -0.00000000000E+00 -0.38754676699E+03  0.38754676699E+03  0.00000000000E+00 0.  1.
         25    2    1    2    0    0  0.24961184060E+03 -0.10173637504E+03 -0.13807191097E+03  0.32767200999E+03  0.12509489421E+03 0.  0.
          5    1    3    3  502    0  0.19502624044E+02 -0.51717129309E+02 -0.54579441471E+02  0.77790755491E+02  0.41800000000E+01 0. -1.
         -5    1    3    3    0  502  0.23010921655E+03 -0.50019245731E+02 -0.83492469502E+02  0.24988125450E+03  0.41800000000E+01 0. -1.
        -11    1    1    2    0    0 -0.83405622369E+01  0.60908904007E+01  0.19360619678E+02  0.21943051716E+02  0.00000000000E+00 0.  1.
         11    1    1    2    0    0 -0.24127127836E+03  0.95645484640E+02 -0.43593670524E+02  0.26317351045E+03  0.00000000000E+00 0. -1.
</event>
<event>
 7    1  0.2842702E-009  0.1346852E+03  0.7561462E-02  0.1220665E+00
          2   -1    0    0  501    0  0.00000000000E+00  0.00000000000E+00  0.82882350853E+02  0.82882350853E+02  0.00000000000E+00 0. -1.
         -2   -1    0    0    0  501 -0.00000000000E+00 -0.00000000000E+00 -0.32154563753E+03  0.32154563753E+03  0.00000000000E+00 0.  1.
         25    2    1    2    0    0  0.11247192337E+03 -0.11074238405E+02 -0.18434565529E+03  0.24980640819E+03  0.12508936265E+03 0.  0.
          5    1    3    3  502    0  0.13368300089E+03 -0.47638365536E+01 -0.11354472731E+03  0.17550987541E+03  0.41800000000E+01 0. -1.
         -5    1    3    3    0  502 -0.21211077525E+02 -0.63104018511E+01 -0.70800927974E+02  0.74296532781E+02  0.41800000000E+01 0. -1.
        -11    1    1    2    0    0 -0.25911437878E+02  0.24664347203E+01 -0.62053032198E+02  0.67290896250E+02  0.00000000000E+00 0.  1.
         11    1    1    2    0    0 -0.86560485491E+02  0.86078036844E+01  0.77354008031E+01  0.87330683945E+02  0.00000000000E+00 0. -1.
</event>
<event>
 7    1  0.2842702E-009  0.6724622E+02  0.7561462E-02  0.1369716E+00
          4   -1    0    0  501    0  0.00000000000E+00  0.00000000000E+00  0.13397128012E+03  0.13397128012E+03  0.00000000000E+00 0. -1.
         -4   -1    0    0    0  501 -0.00000000000E+00 -0.00000000000E+00 -0.13902918208E+03  0.13902918208E+03  0.00000000000E+00 0.  1.
         25    2    1    2    0    0  0.24487514307E+02  0.11090308053E+02  0.73032420609E+02  0.14731968474E+03  0.12508685687E+03 0.  0.
          5    1    3    3  502    0 -0.29899046577E+02 -0.99767417364E+01  0.82196708442E+02  0.88132057962E+02  0.41800000000E+01 0. -1.
         -5    1    3    3    0  502  0.54386560884E+02  0.21067049790E+02 -0.91642878337E+01  0.59187626774E+02  0.41800000000E+01 0. -1.
        -11    1    1    2    0    0 -0.16366796457E+02  0.11641140950E+02  0.17776645295E+02  0.26821582855E+02  0.00000000000E+00 0. -1.
         11    1    1    2    0    0 -0.81207178500E+01 -0.22731449004E+02 -0.95866967861E+02  0.98859194611E+02  0.00000000000E+00 0.  1.
</event>
<event>
 7    1  0.2842702E-009  0.1073521E+03  0.7561462E-02  0.1265553E+00
         -2   -1    0    0    0  501 -0.00000000000E+00  0.00000000000E+00  0.27412765426E+02  0.27412765426E+02  0.00000000000E+00 0.  1.
          2   -1    0    0  501    0  0.00000000000E+00 -0.00000000000E+00 -0.50688196667E+03  0.50688196667E+03  0.00000000000E+00 0. -1.
         25    2    1    2    0    0  0.35784651733E+02 -0.15001920761E+02 -0.21897966696E+03  0.25516618223E+03  0.12510830143E+03 0.  0.
          5    1    3    3  502    0  0.36903578678E+02 -0.64589985139E+02 -0.16867273746E+03  0.18439551258E+03  0.41800000000E+01 0.  1.
         -5    1    3    3    0  502 -0.11189269453E+01  0.49588064378E+02 -0.50306929504E+02  0.70770669648E+02  0.41800000000E+01 0.  1.
        -11    1    1    2    0    0 -0.32053776147E+01  0.45608109313E+02 -0.71071893340E+02  0.84507917403E+02  0.00000000000E+00 0.  1.
         11    1    1    2    0    0 -0.32579274118E+02 -0.30606188552E+02 -0.18941764094E+03  0.19462063246E+03  0.00000000000E+00 0. -1.
</event>
<event>
 7    1  0.2842702E-009  0.9890946E+02  0.7561462E-02  0.1282606E+00
         -1   -1    0    0    0  501 -0.00000000000E+00  0.00000000000E+00  0.13059354295E+03  0.13059354295E+03  0.00000000000E+00 0.  1.
          1   -1    0    0  501    0  0.00000000000E+00 -0.00000000000E+00 -0.18211191309E+03  0.18211191309E+03  0.00000000000E+00 0. -1.
         25    2    1    2    0    0 -0.87963045766E+02 -0.31580670631E+02  0.31000304586E+02  0.15919839303E+03  0.12509305849E+03 0.  0.
          5    1    3    3  502    0 -0.52321315759E+02 -0.95790923865E+01 -0.46649781378E+02  0.70872798705E+02  0.41800000000E+01 0. -1.
         -5    1    3    3    0  502 -0.35641730007E+02 -0.22001578245E+02  0.77650085963E+02  0.88325594327E+02  0.41800000000E+01 0. -1.
        -11    1    1    2    0    0  0.20850859469E+02  0.28334637795E+02  0.12323899990E+02  0.37275844062E+02  0.00000000000E+00 0.  1.
         11    1    1    2    0    0  0.67112186297E+02  0.32460328365E+01 -0.94842574717E+02  0.11623121895E+03  0.00000000000E+00 0. -1.
</event>
<event>
 7    1  0.2842702E-009  0.1740499E+03  0.7561462E-02  0.1173689E+00
          2   -1    0    0  501    0  0.00000000000E+00  0.00000000000E+00  0.76812038195E+03  0.76812038195E+03  0.00000000000E+00 0.  1.
         -2   -1    0    0    0  501 -0.00000000000E+00 -0.00000000000E+00 -0.47429737580E+02  0.47429737580E+02  0.00000000000E+00 0. -1.
         25    2    1    2    0    0 -0.81087934317E+02  0.12989394547E+03  0.45177860052E+03  0.49315191553E+03  0.12508883942E+03 0.  0.
          5    1    3    3  502    0 -0.96401592622E+02  0.85953963577E+02  0.41200569834E+03  0.43179569101E+03  0.41800000000E+01 0.  1.
         -5    1    3    3    0  502  0.15313658305E+02  0.43939981897E+02  0.39772902179E+02  0.61356224521E+02  0.41800000000E+01 0.  1.
        -11    1    1    2    0    0  0.96225567409E+02 -0.10077348024E+03  0.24478717693E+03  0.28166543297E+03  0.00000000000E+00 0.  1.
         11    1    1    2    0    0 -0.15137633092E+02 -0.29120465236E+02  0.24124866924E+02  0.40732771024E+02  0.00000000000E+00 0. -1.
</event>
<event>
 7    1  0.2842702E-009  0.1238573E+03  0.7561462E-02  0.1236866E+00
         -2   -1    0    0    0  501 -0.00000000000E+00  0.00000000000E+00  0.39718764367E+02  0.39718764367E+02  0.00000000000E+00 0.  1.
          2   -1    0    0  501    0  0.00000000000E+00 -0.00000000000E+00 -0.57998368514E+03  0.57998368514E+03  0.00000000000E+00 0. -1.
         25    2    1    2    0    0  0.85063607391E+02  0.59906997308E+02 -0.33362349528E+03  0.37118119617E+03  0.12508468396E+03 0.  0.
          5    1    3    3  502    0  0.23590543777E+02  0.50071275842E+02 -0.33919596888E+02  0.65051194249E+02  0.41800000000E+01 0. -1.
         -5    1    3    3    0  502  0.61473063613E+02  0.98357214662E+01 -0.29970389839E+03  0.30613000192E+03  0.41800000000E+01 0. -1.
        -11    1    1    2    0    0  0.57065838307E+01  0.12472982294E+02 -0.28924410474E+01  0.14018081236E+02  0.00000000000E+00 0.  1.
         11    1    1    2    0    0 -0.90770191221E+02 -0.72379979602E+02 -0.20374898445E+03  0.23450317210E+03  0.00000000000E+00 0. -1.
</event>
<event>
 7    1  0.2842702E-009  0.1171672E+03  0.7561462E-02  0.1247845E+00
         -2   -1    0    0    0  501 -0.00000000000E+00  0.00000000000E+00  0.54702279342E+02  0.54702279342E+02  0.00000000000E+00 0.  1.
          2   -1    0    0  501    0  0.00000000000E+00 -0.00000000000E+00 -0.32110929771E+03  0.32110929771E+03  0.00000000000E+00 0. -1.
         25    2    1    2    0    0 -0.26886307919E+01 -0.48260061339E+02 -0.64361146133E+02  0.14874862273E+03  0.12509010103E+03 0.  0.
          5    1    3    3  502    0 -0.50247929093E+02 -0.64606467173E+02 -0.28210865942E+02  0.86672806207E+02  0.41800000000E+01 0. -1.
         -5    1    3    3    0  502  0.47559298301E+02  0.16346405834E+02 -0.36150280191E+02  0.62075816519E+02  0.41800000000E+01 0. -1.
        -11    1    1    2    0    0 -0.59363113449E+01 -0.26248592189E+02 -0.72996282037E+02  0.77799007548E+02  0.00000000000E+00 0.  1.
         11    1    1    2    0    0  0.86249421368E+01  0.74508653528E+02 -0.12904959020E+03  0.14926394678E+03  0.00000000000E+00 0. -1.
</event>
<event>
 7    1  0.2842702E-009  0.8842973E+02  0.7561462E-02  0.1306700E+00
          1   -1    0    0  501    0  0.00000000000E+00  0.00000000000E+00  0.49164988923E+02  0.49164988923E+02  0.00000000000E+00 0. -1.
         -1   -1    0    0    0  501 -0.00000000000E+00 -0.00000000000E+00 -0.28672100895E+03  0.28672100895E+03  0.00000000000E+00 0.  1.
         25    2    1    2    0    0 -0.20518419795E+02 -0.31342459357E+02 -0.91739172091E+02  0.15958343184E+03  0.12508973065E+03 0.  0.
          5    1    3    3  502    0  0.37380280512E+02 -0.99941357742E+01  0.10303817520E+02  0.40259274416E+02  0.41800000000E+01 0.  1.
         -5    1    3    3    0  502 -0.57898700307E+02 -0.21348323583E+02 -0.10204298961E+03  0.11932415743E+03  0.41800000000E+01 0.  1.
        -11    1    1    2    0    0 -0.16662184199E+02  0.34966773492E+02 -0.13015356140E+03  0.13579489378E+03  0.00000000000E+00 0.  1.
         11    1    1    2    0    0  0.37180603994E+02 -0.36243141351E+01 -0.15663286539E+02  0.40507672255E+02  0.00000000000E+00 0. -1.
</event>
<event>
 7    1  0.2842702E-009  0.9349507E+02  0.7561462E-02  0.1294602E+00
          3   -1    0    0  501    0  0.00000000000E+00  0.00000000000E+00  0.31009715086E+03  0.31009715086E+03  0.00000000000E+00 0. -1.
         -3   -1    0    0    0  501 -0.00000000000E+00 -0.00000000000E+00 -0.52137783960E+02  0.52137783960E+02  0.00000000000E+00 0.  1.
         25    2    1    2    0    0  0.12018761392E+02  0.41933343551E+02  0.21480679832E+03  0.25237263516E+03  0.12508849047E+03 0.  0.
          5    1    3    3  502    0  0.62715738340E+02 -0.50180281511E+01  0.10927295692E+03  0.12616059589E+03  0.41800000000E+01 0.  1.
         -5    1    3    3    0  502 -0.50696976948E+02  0.46951371702E+02  0.10553384140E+03  0.12621203927E+03  0.41800000000E+01 0.  1.
        -11    1    1    2    0    0 -0.23099218068E+02 -0.33910186222E+02  0.69195123809E+02  0.80445259425E+02  0.00000000000E+00 0. -1.
         11    1    1    2    0    0  0.11080456676E+02 -0.80231573289E+01 -0.26042555223E+02  0.29417040236E+02  0.00000000000E+00 0.  1.
</event>
<event>
 7    1  0.2842702E-009  0.2458493E+03  0.7561462E-02  0.1115956E+00
         -1   -1    0    0    0  501 -0.00000000000E+00  0.00000000000E+00  0.15578722749E+03  0.15578722749E+03  0.00000000000E+00 0.  1.
          1   -1    0    0  501    0  0.00000000000E+00 -0.00000000000E+00 -0.48007027835E+03  0.48007027835E+03  0.00000000000E+00 0. -1.
         25    2    1    2    0    0 -0.24159266321E+03 -0.41233899275E+02 -0.10679863552E+03  0.29516462156E+03  0.12509578693E+03 0.  0.
          5    1    3    3  502    0 -0.21037550500E+03 -0.41446592446E+02 -0.35712448205E+02  0.21741325738E+03  0.41800000000E+01 0.  1.
         -5    1    3    3    0  502 -0.31217158208E+02  0.21269317093E+00 -0.71086187310E+02  0.77751364177E+02  0.41800000000E+01 0. -1.
        -11    1    1    2    0    0  0.85978088189E+02  0.23421784891E+02 -0.13997561334E+03  0.16593367345E+03  0.00000000000E+00 0. -1.
         11    1    1    2    0    0  0.15561457502E+03  0.17812114384E+02 -0.77508802004E+02  0.17475921082E+03  0.00000000000E+00 0.  1.
</event>
<event>
 7    1  0.2842702E-009  0.1189091E+03  0.7561462E-02  0.1244908E+00
         -2   -1    0    0    0  501 -0.00000000000E+00  0.00000000000E+00  0.35985299564E+03  0.35985299564E+03  0.00000000000E+00 0. -1.
          2   -1    0    0  501    0  0.00000000000E+00 -0.00000000000E+00 -0.49822436620E+02  0.49822436620E+02  0.00000000000E+00 0.  1.
         25    2    1    2    0    0  0.46592410673E+02  0.40211862654E+02  0.22866833218E+03  0.26781426375E+03  0.12508967622E+03 0.  0.
          5    1    3    3  502    0 -0.51748513872E+01 -0.35647104476E+02  0.12058904020E+03  0.12592332651E+03  0.41800000000E+01 0. -1.
         -5    1    3    3    0  502  0.51767262060E+02  0.75858967129E+02  0.10807929198E+03  0.14189093724E+03  0.41800000000E+01 0. -1.
        -11    1    1    2    0    0 -0.74267282666E+02 -0.30610859651E+02  0.36381799366E+02  0.88183271249E+02  0.00000000000E+00 0.  1.
         11    1    1    2    0    0  0.27674871992E+02 -0.96010030028E+01  0.44980427473E+02  0.53677897259E+02  0.00000000000E+00 0. -1.
</event>
<event>
 7    1  0.2842702E-009  0.1150703E+03  0.7561462E-02  0.1251458E+00
          1   -1    0    0  501    0  0.00000000000E+00  0.00000000000E+00  0.46007665820E+03  0.46007665820E+03  0.00000000000E+00 0. -1.
         -1   -1    0    0    0  501 -0.00000000000E+00 -0.00000000000E+00 -0.44875372471E+02  0.44875372471E+02  0.00000000000E+00 0.  1.
         25    2    1    2    0    0 -0.52836412038E+02 -0.62499302355E+02  0.30928968283E+03  0.34351718838E+03  0.12508437781E+03 0.  0.
          5    1    3    3  502    0 -0.89986565505E+02 -0.44785155749E+02  0.16349700613E+03  0.19196884008E+03  0.41800000000E+01 0. -1.
         -5    1    3    3    0  502  0.37150153467E+02 -0.17714146606E+02  0.14579267670E+03  0.15154834830E+03  0.41800000000E+01 0. -1.
        -11    1    1    2    0    0  0.19726573998E+02  0.48244227605E+02  0.27921541617E+01  0.52196162155E+02  0.00000000000E+00 0.  1.
         11    1    1    2    0    0  0.33109838040E+02  0.14255074750E+02  0.10311944874E+03  0.10923868014E+03  0.00000000000E+00 0. -1.
</event>
<event>
 7    1  0.2842702E-009  0.1053056E+03  0.7561462E-02  0.1269519E+00
         -1   -1    0    0    0  501 -0.00000000000E+00  0.00000000000E+00  0.30773899940E+02  0.30773899940E+02  0.00000000000E+00 0.  1.
          1   -1    0    0  501    0  0.00000000000E+00 -0.00000000000E+00 -0.40779683608E+03  0.40779683608E+03  0.00000000000E+00 0. -1.
         25    2    1    2    0    0  0.20751622225E+02 -0.14742211861E+01 -0.16859105436E+03  0.21095844780E+03  0.12509084673E+03 0.  0.
          5    1    3    3  502    0  0.53448906391E+02  0.40674291652E+02 -0.12491341008E+03  0.14188733563E+03  0.41800000000E+01 0. -1.
         -5    1    3    3    0  502 -0.32697284166E+02 -0.42148512838E+02 -0.43677644281E+02  0.69071112168E+02  0.41800000000E+01 0. -1.
        -11    1    1    2    0    0  0.23447708100E+01 -0.41209576340E+02 -0.11751057406E+03  0.12454903511E+03  0.00000000000E+00 0. -1.
         11    1    1    2    0    0 -0.23096393035E+02  0.42683797526E+02 -0.90921307718E+02  0.10306325310E+03  0.00000000000E+00 0.  1.
</event>
<event>
 7    1  0.2842702E-009  0.1292387E+03  0.7561462E-02  0.1228590E+00
          1   -1    0    0  501    0  0.00000000000E+00  0.00000000000E+00  0.79876178970E+03  0.79876178970E+03  0.00000000000E+00 0. -1.
         -1   -1    0    0    0  501 -0.00000000000E+00 -0.00000000000E+00 -0.24811124427E+02  0.24811124427E+02  0.00000000000E+00 0.  1.
         25    2    1    2    0    0 -0.60401596205E+02 -0.65209736541E+02  0.41326530946E+03  0.44083669678E+03  0.12509242447E+03 0.  0.
          5    1    3    3  502    0 -0.98952348923E+02 -0.44810578309E+02  0.27146318391E+03  0.29241971189E+03  0.41800000000E+01 0. -1.
         -5    1    3    3    0  502  0.38550752718E+02 -0.20399158232E+02  0.14180212555E+03  0.14841698489E+03  0.41800000000E+01 0. -1.
        -11    1    1    2    0    0  0.70953522705E+02  0.63593240074E+02  0.35959676579E+03  0.37200582863E+03  0.00000000000E+00 0. -1.
         11    1    1    2    0    0 -0.10551926499E+02  0.16164964671E+01  0.10885900145E+01  0.10730388711E+02  0.00000000000E+00 0.  1.
</event>
<event>
 7    1  0.2842702E-009  0.1015282E+03  0.7561462E-02  0.1277115E+00
          2   -1    0    0  501    0  0.00000000000E+00  0.00000000000E+00  0.10479562590E+04  0.10479562590E+04  0.00000000000E+00 0. -1.
         -2   -1    0    0    0  501 -0.00000000000E+00 -0.00000000000E+00 -0.17075678583E+02  0.17075678583E+02  0.00000000000E+00 0.  1.
         25    2    1    2    0    0 -0.32660897530E+02  0.68334570346E+02  0.67467126078E+03  0.69033747301E+03  0.12509264087E+03 0.  0.
          5    1    3    3  502    0 -0.52015781056E+02  0.26873822966E+02  0.11819217588E+03  0.13196479333E+03  0.41800000000E+01 0. -1.
         -5    1    3    3    0  502  0.19354883526E+02  0.41460747380E+02  0.55647908490E+03  0.55837267969E+03  0.41800000000E+01 0. -1.
        -11    1    1    2    0    0  0.43334009240E+02 -0.17940071090E+02  0.27173601542E+03  0.27575377528E+03  0.00000000000E+00 0. -1.
         11    1    1    2    0    0 -0.10673111710E+02 -0.50394499256E+02  0.84473304181E+02  0.98940689244E+02  0.00000000000E+00 0.  1.
</event>
<event>
 7    1  0.2842702E-009  0.1047754E+03  0.7561462E-02  0.1270563E+00
         -2   -1    0    0    0  501 -0.00000000000E+00  0.00000000000E+00  0.10246692862E+02  0.10246692862E+02  0.00000000000E+00 0.  1.
          2   -1    0    0  501    0  0.00000000000E+00 -0.00000000000E+00 -0.14776859968E+04  0.14776859968E+04  0.00000000000E+00 0. -1.
         25    2    1    2    0    0  0.42588151010E+02  0.32260873998E+02 -0.96894751218E+03  0.97844882119E+03  0.12509316420E+03 0.  0.
          5    1    3    3  502    0  0.71028124870E+02  0.26942417402E+02 -0.90434777780E+03  0.90754243096E+03  0.41800000000E+01 0.  1.
         -5    1    3    3    0  502 -0.28439973860E+02  0.53184565961E+01 -0.64599734382E+02  0.70906390234E+02  0.41800000000E+01 0.  1.
        -11    1    1    2    0    0 -0.62824966671E+02 -0.47618176451E+02 -0.40507069008E+03  0.41267024502E+03  0.00000000000E+00 0.  1.
         11    1    1    2    0    0  0.20236815661E+02  0.15357302453E+02 -0.93421101701E+02  0.96813623472E+02  0.00000000000E+00 0. -1.
</event>
<event>
 7    1  0.2842702E-009  0.1212905E+03  0.7561462E-02  0.1240983E+00
         -1   -1    0    0    0  501 -0.00000000000E+00  0.00000000000E+00  0.29062990141E+02  0.29062990141E+02  0.00000000000E+00 0.  1.
          1   -1    0    0  501    0  0.00000000000E+00 -0.00000000000E+00 -0.76860677324E+03  0.76860677324E+03  0.00000000000E+00 0. -1.
         25    2    1    2    0    0 -0.71215086608E+02 -0.68367749594E+02 -0.45158482157E+03  0.47887948859E+03  0.12510385996E+03 0.  0.
          5    1    3    3  502    0 -0.50913950437E+02 -0.28999973502E+01 -0.36402487142E+03  0.36760334567E+03  0.41800000000E+01 0. -1.
         -5    1    3    3    0  502 -0.20301136171E+02 -0.65467752244E+02 -0.87559950151E+02  0.11127614292E+03  0.41800000000E+01 0. -1.
        -11    1    1    2    0    0  0.29302562154E+02 -0.12344934816E+02 -0.15150629633E+03  0.15480696171E+03  0.00000000000E+00 0. -1.
         11    1    1    2    0    0  0.41912524454E+02  0.80712684410E+02 -0.13645266520E+03  0.16398331309E+03  0.00000000000E+00 0.  1.
</event>
<event>
 7    1  0.2842702E-009  0.8719971E+02  0.7561462E-02  0.1309778E+00
         -1   -1    0    0    0  501 -0.00000000000E+00  0.00000000000E+00  0.75975563030E+02  0.75975563030E+02  0.00000000000E+00 0.  1.
          1   -1    0    0  501    0  0.00000000000E+00 -0.00000000000E+00 -0.24063065172E+03  0.24063065172E+03  0.00000000000E+00 0. -1.
         25    2    1    2    0    0 -0.65407846679E+02 -0.93755506430E+01 -0.13653268697E+03  0.19660480075E+03  0.12508471413E+03 0.  0.
          5    1    3    3  502    0 -0.17257219110E+02  0.23435794773E+02  0.15854111394E+02  0.33404690332E+02  0.41800000000E+01 0.  1.
         -5    1    3    3    0  502 -0.48150627568E+02 -0.32811345417E+02 -0.15238679837E+03  0.16320011042E+03  0.41800000000E+01 0.  1.
        -11    1    1    2    0    0 -0.35122212533E+01  0.16889926199E+02 -0.45387514328E+02  0.48555450385E+02  0.00000000000E+00 0. -1.
         11    1    1    2    0    0  0.68920067932E+02 -0.75143755562E+01  0.17265112612E+02  0.71445963617E+02  0.00000000000E+00 0.  1.
</event>
<event>
 7    1  0.2842702E-009  0.2138317E+03  0.7561462E-02  0.1138567E+00
         -2   -1    0    0    0  501 -0.00000000000E+00  0.00000000000E+00  0.12723950863E+03  0.12723950863E+03  0.00000000000E+00 0. -1.
          2   -1    0    0  501    0  0.00000000000E+00 -0.00000000000E+00 -0.38167399258E+03  0.38167399258E+03  0.00000000000E+00 0.  1.
         25    2    1    2    0    0 -0.19039935775E+03 -0.86999658510E+01 -0.15754339142E+03  0.27711788126E+03  0.12508714999E+03 0.  0.
          5    1    3    3  502    0  0.10993471018E+02 -0.14099057546E+02 -0.39553019808E+02  0.43606806861E+02  0.41800000000E+01 0.  1.
         -5    1    3    3    0  502 -0.20139282877E+03  0.53990916952E+01 -0.11799037162E+03  0.23351107440E+03  0.41800000000E+01 0.  1.
        -11    1    1    2    0    0  0.48003051589E+02 -0.34356312876E+02 -0.11094581066E+02  0.60064456423E+02  0.00000000000E+00 0. -1.
         11    1    1    2    0    0  0.14239630616E+03  0.43056278727E+02 -0.85796511457E+02  0.17173116352E+03  0.00000000000E+00 0.  1.
</event>
<event>
 7    1  0.2842702E-009  0.1440093E+03  0.7561462E-02  0.1208034E+00
         -1   -1    0    0    0  501 -0.00000000000E+00  0.00000000000E+00  0.41949686080E+02  0.41949686080E+02  0.00000000000E+00 0.  1.
          1   -1    0    0  501    0  0.00000000000E+00 -0.00000000000E+00 -0.57265234700E+03  0.57265234700E+03  0.00000000000E+00 0. -1.
         25    2    1    2    0    0 -0.93158982586E+02  0.32577087241E+02 -0.38844573821E+03  0.41985245064E+03  0.12508447597E+03 0.  0.
          5    1    3    3  502    0 -0.11908850540E+03  0.43186573373E+02 -0.27308360740E+03  0.30106358343E+03  0.41800000000E+01 0.  1.
         -5    1    3    3    0  502  0.25929522809E+02 -0.10609486131E+02 -0.11536213081E+03  0.11878886721E+03  0.41800000000E+01 0.  1.
        -11    1    1    2    0    0  0.24489718688E+02 -0.55409784525E+02 -0.67716340097E+02  0.90859744984E+02  0.00000000000E+00 0. -1.
         11    1    1    2    0    0  0.68669263898E+02  0.22832697284E+02 -0.74540582614E+02  0.10388983745E+03  0.00000000000E+00 0.  1.
</event>
<event>
 7    1  0.2842702E-009  0.1938256E+03  0.7561462E-02  0.1155055E+00
         -1   -1    0    0    0  501 -0.00000000000E+00  0.00000000000E+00  0.46598953159E+02  0.46598953159E+02  0.00000000000E+00 0.  1.
          1   -1    0    0  501    0  0.00000000000E+00 -0.00000000000E+00 -0.10923026031E+04  0.10923026031E+04  0.00000000000E+00 0. -1.
         25    2    1    2    0    0 -0.41912432355E+02 -0.18324771858E+03 -0.39293421972E+03  0.45319279940E+03  0.12510009611E+03 0.  0.
          5    1    3    3  502    0  0.24021493845E+01 -0.37113646317E+02 -0.21695018421E+03  0.22015459999E+03  0.41800000000E+01 0.  1.
         -5    1    3    3    0  502 -0.44314581740E+02 -0.14613407226E+03 -0.17598403551E+03  0.23303819941E+03  0.41800000000E+01 0.  1.
        -11    1    1    2    0    0  0.43188124716E+02  0.58531026759E+02 -0.13745090050E+03  0.15551155989E+03  0.00000000000E+00 0. -1.
         11    1    1    2    0    0 -0.12756923614E+01  0.12471669182E+03 -0.51531852971E+03  0.53019719697E+03  0.00000000000E+00 0.  1.
</event>
<event>
 7    1  0.2842702E-009  0.1013285E+03  0.7561462E-02  0.1277527E+00
          1   -1    0    0  501    0  0.00000000000E+00  0.00000000000E+00  0.30804322088E+03  0.30804322088E+03  0.00000000000E+00 0. -1.
         -1   -1    0    0    0  501 -0.00000000000E+00 -0.00000000000E+00 -0.95248713521E+02  0.95248713521E+02  0.00000000000E+00 0.  1.
         25    2    1    2    0    0  0.82080295364E+02  0.20952914713E+02 -0.54627173030E+01  0.15117204698E+03  0.12508775714E+03 0.  0.
          5    1    3    3  502    0  0.53383703033E+02 -0.13869145800E+02  0.53401347618E+02  0.76885299519E+02  0.41800000000E+01 0.  1.
         -5    1    3    3    0  502  0.28696592331E+02  0.34822060513E+02 -0.58864064921E+02  0.74286747464E+02  0.41800000000E+01 0.  1.
        -11    1    1    2    0    0 -0.28830640634E+00 -0.20229591155E+02  0.13200076510E+01  0.20274661504E+02  0.00000000000E+00 0.  1.
         11    1    1    2    0    0 -0.81791988958E+02 -0.72332355753E+00  0.21693721701E+03  0.23184522591E+03  0.00000000000E+00 0. -1.
</event>
<event>
 7    1  0.2842702E-009  0.1589786E+03  0.7561462E-02  0.1189855E+00
         -1   -1    0    0    0  501 -0.00000000000E+00  0.00000000000E+00  0.50806587813E+03  0.50806587813E+03  0.00000000000E+00 0.  1.
          1   -1    0    0  501    0  0.00000000000E+00 -0.00000000000E+00 -0.59451315586E+02  0.59451315586E+02  0.00000000000E+00 0. -1.
         25    2    1    2    0    0  0.12116771159E+03  0.59647373868E+02  0.24016423490E+03  0.30259667755E+03  0.12508583450E+03 0.  0.
          5    1    3    3  502    0  0.11551521407E+03  0.92735429646E+02  0.21154554675E+03  0.25828785365E+03  0.41800000000E+01 0. -1.
         -5    1    3    3    0  502  0.56524975222E+01 -0.33088055778E+02  0.28618688152E+02  0.44308823895E+02  0.41800000000E+01 0. -1.
        -11    1    1    2    0    0 -0.14454517354E+02 -0.13125760716E+02 -0.64099514408E+01  0.20550088656E+02  0.00000000000E+00 0. -1.
         11    1    1    2    0    0 -0.10671319424E+03 -0.46521613152E+02  0.21486027908E+03  0.24437042751E+03  0.00000000000E+00 0.  1.
</event>
<event>
 7    1  0.2842702E-009  0.1175638E+03  0.7561462E-02  0.1247171E+00
          2   -1    0    0  501    0  0.00000000000E+00  0.00000000000E+00  0.76285300278E+03  0.76285300278E+03  0.00000000000E+00 0. -1.
         -2   -1    0    0    0  501 -0.00000000000E+00 -0.00000000000E+00 -0.27958375868E+02  0.27958375868E+02  0.00000000000E+00 0.  1.
         25    2    1    2    0    0 -0.89017126435E+02  0.15879790890E+02  0.48626949839E+03  0.51017737461E+03  0.12508681764E+03 0.  0.
          5    1    3    3  502    0 -0.41513578925E+02 -0.42780888648E+02  0.34318889048E+03  0.34835279332E+03  0.41800000000E+01 0.  1.
         -5    1    3    3    0  502 -0.47503547510E+02  0.58660679538E+02  0.14308060791E+03  0.16182458129E+03  0.41800000000E+01 0.  1.
        -11    1    1    2    0    0  0.72510299953E+02  0.55479235562E+01  0.24213208685E+03  0.25281706932E+03  0.00000000000E+00 0. -1.
         11    1    1    2    0    0  0.16506826483E+02 -0.21427714446E+02  0.64930416735E+01  0.27816934718E+02  0.00000000000E+00 0.  1.
</event>
<event>
 7    1  0.2842702E-009  0.9859876E+02  0.7561462E-02  0.1283270E+00
         -2   -1    0    0    0  501 -0.00000000000E+00  0.00000000000E+00  0.21729774404E+03  0.21729774404E+03  0.00000000000E+00 0.  1.
          2   -1    0    0  501    0  0.00000000000E+00 -0.00000000000E+00 -0.65909628508E+02  0.65909628508E+02  0.00000000000E+00 0. -1.
         25    2    1    2    0    0  0.33227683699E+02 -0.36113598181E+02  0.53347091073E+02  0.14457387173E+03  0.12508965314E+03 0.  0.
          5    1    3    3  502    0 -0.13910790372E+02  0.27952390945E+02  0.56690566315E+02  0.64854752774E+02  0.41800000000E+01 0.  1.
         -5    1    3    3    0  502  0.47138474071E+02 -0.64065989126E+02 -0.33434752418E+01  0.79719118956E+02  0.41800000000E+01 0.  1.
        -11    1    1    2    0    0 -0.22081122512E+02  0.57684768735E+02  0.96148739550E+02  0.11427899471E+03  0.00000000000E+00 0.  1.
         11    1    1    2    0    0 -0.11146561187E+02 -0.21571170554E+02  0.18922849068E+01  0.24354506104E+02  0.00000000000E+00 0. -1.
</event>
<event>
 7    1  0.2842702E-009  0.1092602E+03  0.7561462E-02  0.1261946E+00
         -1   -1    0    0    0  501 -0.00000000000E+00  0.00000000000E+00  0.29121219863E+02  0.29121219863E+02  0.00000000000E+00 0.  1.
          1   -1    0    0  501    0  0.00000000000E+00 -0.00000000000E+00 -0.69714589519E+03  0.69714589519E+03  0.00000000000E+00 0. -1.
         25    2    1    2    0    0  0.54070203361E+02 -0.59886733279E+02 -0.42837371178E+03  0.45349962959E+03  0.12509144404E+03 0.  0.
          5    1    3    3  502    0 -0.82280714650E+01 -0.66303642196E+02 -0.33062237281E+03  0.33733143929E+03  0.41800000000E+01 0. -1.
         -5    1    3    3    0  502  0.62298274826E+02  0.64169089173E+01 -0.97751338974E+02  0.11616819030E+03  0.41800000000E+01 0. -1.
        -11    1    1    2    0    0 -0.99308567022E+01  0.38504561736E+02 -0.21352733232E+03  0.21719839972E+03  0.00000000000E+00 0. -1.
         11    1    1    2    0    0 -0.44139346659E+02  0.21382171543E+02 -0.26123631222E+02  0.55569085754E+02  0.00000000000E+00 0.  1.
</event>
<event>
 7    1  0.2842702E-009  0.9068290E+02  0.7561462E-02  0.1301206E+00
         -2   -1    0    0    0  501 -0.00000000000E+00  0.00000000000E+00  0.89810266741E+02  0.89810266741E+02  0.00000000000E+00 0.  1.
          2   -1    0    0  501    0  0.00000000000E+00 -0.00000000000E+00 -0.31729533699E+03  0.31729533699E+03  0.00000000000E+00 0. -1.
         25    2    1    2    0    0 -0.38820575534E+02 -0.21003355469E+02  0.23191442997E+02  0.13466340926E+03  0.12509281650E+03 0.  0.
          5    1    3    3  502    0 -0.51588414830E+02  0.17818315486E+02  0.58773168761E+02  0.80315718746E+02  0.41800000000E+01 0. -1.
         -5    1    3    3    0  502  0.12767839296E+02 -0.38821670955E+02 -0.35581725764E+02  0.54347690515E+02  0.41800000000E+01 0. -1.
        -11    1    1    2    0    0  0.60849493508E+02  0.14107052743E+02 -0.23809647242E+03  0.24615361053E+03  0.00000000000E+00 0. -1.
         11    1    1    2    0    0 -0.22028917974E+02  0.68963027262E+01 -0.12580040823E+02  0.26288583939E+02  0.00000000000E+00 0.  1.
</event>
<event>
 7    1  0.2842702E-009  0.1018371E+03  0.7561462E-02  0.1276480E+00
         -1   -1    0    0    0  501 -0.00000000000E+00  0.00000000000E+00  0.52226199270E+02  0.52226199270E+02  0.00000000000E+00 0.  1.
          1   -1    0    0  501    0  0.00000000000E+00 -0.00000000000E+00 -0.28718046685E+03  0.28718046685E+03  0.00000000000E+00 0. -1.
         25    2    1    2    0    0  0.42884670124E+02  0.22409652068E+02 -0.20166970137E+03  0.24219721223E+03  0.12509010242E+03 0.  0.
          5    1    3    3  502    0  0.81031067112E+02 -0.20092859249E+01 -0.87740530036E+02  0.11952382222E+03  0.41800000000E+01 0.  1.
         -5    1    3    3    0  502 -0.38146396988E+02  0.24418937993E+02 -0.11392917133E+03  0.12267339001E+03  0.41800000000E+01 0.  1.
        -11    1    1    2    0    0 -0.13443311822E+01 -0.33898700251E+02  0.10754684845E+02  0.35589216782E+02  0.00000000000E+00 0.  1.
         11    1    1    2    0    0 -0.41540338941E+02  0.11489048183E+02 -0.44039251053E+02  0.61620237105E+02  0.00000000000E+00 0. -1.
</event>
<event>
 7    1  0.2842702E-009  0.1367950E+03  0.7561462E-02  0.1217708E+00
          2   -1    0    0  501    0  0.00000000000E+00  0.00000000000E+00  0.64837443924E+03  0.64837443924E+03  0.00000000000E+00 0. -1.
         -2   -1    0    0    0  501 -0.00000000000E+00 -0.00000000000E+00 -0.45979069669E+02  0.45979069669E+02  0.00000000000E+00 0.  1.
         25    2    1    2    0    0  0.66543617979E+02  0.69147732278E+02  0.50702668970E+03  0.53097277319E+03  0.12508620958E+03 0.  0.
          5    1    3    3  502    0 -0.19222211326E+02  0.69042525787E+02  0.23096479024E+03  0.24186477731E+03  0.41800000000E+01 0.  1.
         -5    1    3    3    0  502  0.85765829305E+02  0.10520649087E+00  0.27606189946E+03  0.28910799588E+03  0.41800000000E+01 0.  1.
        -11    1    1    2    0    0 -0.77052595341E+02 -0.44125869471E+02  0.31893483836E+02  0.94347173336E+02  0.00000000000E+00 0.  1.
         11    1    1    2    0    0  0.10508977362E+02 -0.25021862807E+02  0.63475196035E+02  0.69033562383E+02  0.00000000000E+00 0. -1.
</event>
<event>
 7    1  0.2842702E-009  0.9629767E+02  0.7561462E-02  0.1288280E+00
          2   -1    0    0  501    0  0.00000000000E+00  0.00000000000E+00  0.24773627049E+03  0.24773627049E+03  0.00000000000E+00 0. -1.
         -2   -1    0    0    0  501 -0.00000000000E+00 -0.00000000000E+00 -0.64669668434E+02  0.64669668434E+02  0.00000000000E+00 0.  1.
         25    2    1    2    0    0  0.24669831637E+02  0.10040736308E+02  0.17714800598E+03  0.21849479313E+03  0.12509652923E+03 0.  0.
          5    1    3    3  502    0 -0.18926326328E+02 -0.34915290752E+02  0.13995207169E+03  0.14553809854E+03  0.41800000000E+01 0.  1.
         -5    1    3    3    0  502  0.43596157965E+02  0.44956027059E+02  0.37195934295E+02  0.72956694596E+02  0.41800000000E+01 0.  1.
        -11    1    1    2    0    0 -0.44844631646E+02  0.23597260063E+02 -0.98737658529E+01  0.51627152954E+02  0.00000000000E+00 0.  1.
         11    1    1    2    0    0  0.20174800009E+02 -0.33637996371E+02  0.15792361934E+02  0.42283992843E+02  0.00000000000E+00 0. -1.
</event>
<event>
 7    1  0.2842702E-009  0.9360276E+02  0.7561462E-02  0.1294354E+00
         -3   -1    0    0    0  501 -0.00000000000E+00  0.00000000000E+00  0.20216370266E+03  0.20216370266E+03  0.00000000000E+00 0.  1.
          3   -1    0    0  501    0  0.00000000000E+00 -0.00000000000E+00 -0.10432578369E+03  0.10432578369E+03  0.00000000000E+00 0. -1.
         25    2    1    2    0    0  0.58220858547E+02 -0.35529123046E+02 -0.18353776186E+02  0.14364799776E+03  0.12508356889E+03 0.  0.
          5    1    3    3  502    0  0.45400749495E+02 -0.56541048079E+01 -0.69254129576E+02  0.83107182717E+02  0.41800000000E+01 0. -1.
         -5    1    3    3    0  502  0.12820109052E+02 -0.29875018238E+02  0.50900353390E+02  0.60540815043E+02  0.41800000000E+01 0. -1.
        -11    1    1    2    0    0  0.18405167978E+02 -0.83229562607E+01  0.49029229881E+01  0.20786064154E+02  0.00000000000E+00 0. -1.
         11    1    1    2    0    0 -0.76626026524E+02  0.43852079306E+02  0.11128877217E+03  0.14205542444E+03  0.00000000000E+00 0.  1.
</event>
<event>
 7    1  0.2842702E-009  0.1669562E+03  0.7561462E-02  0.1181060E+00
         -2   -1    0    0    0  501 -0.00000000000E+00  0.00000000000E+00  0.33670994160E+02  0.33670994160E+02  0.00000000000E+00 0.  1.
          2   -1    0    0  501    0  0.00000000000E+00 -0.00000000000E+00 -0.10048273167E+04  0.10048273167E+04  0.00000000000E+00 0. -1.
         25    2    1    2    0    0  0.70012504971E+02 -0.12235846476E+03 -0.66609973394E+03  0.69224890916E+03  0.12508537853E+03 0.  0.
          5    1    3    3  502    0 -0.33414220549E+02 -0.55956797331E+02 -0.21683624669E+03  0.22645773023E+03  0.41800000000E+01 0.  1.
         -5    1    3    3    0  502  0.10342672552E+03 -0.66401667431E+02 -0.44926348725E+03  0.46579117893E+03  0.41800000000E+01 0.  1.
        -11    1    1    2    0    0 -0.15952826698E+02  0.64493564517E+02 -0.62959633003E+02  0.91530475426E+02  0.00000000000E+00 0.  1.
         11    1    1    2    0    0 -0.54059678273E+02  0.57864900245E+02 -0.24209695562E+03  0.25471892630E+03  0.00000000000E+00 0. -1.
</event>
<event>
 7    1  0.2842702E-009  0.1688757E+03  0.7561462E-02  0.1179025E+00
          2   -1    0    0  501    0  0.00000000000E+00  0.00000000000E+00  0.21931135138E+03  0.21931135138E+03  0.00000000000E+00 0. -1.
         -2   -1    0    0    0  501 -0.00000000000E+00 -0.00000000000E+00 -0.17294465716E+03  0.17294465716E+03  0.00000000000E+00 0.  1.
         25    2    1    2    0    0 -0.83060601889E+02 -0.12924685364E+03  0.14960474102E+02  0.19868544564E+03  0.12509307639E+03 0.  0.
          5    1    3    3  502    0 -0.63376974857E+02 -0.14513601087E+03  0.39413888716E+02  0.16325449340E+03  0.41800000000E+01 0. -1.
         -5    1    3    3    0  502 -0.19683627032E+02  0.15889157220E+02 -0.24453414614E+02  0.35430952240E+02  0.41800000000E+01 0. -1.
        -11    1    1    2    0    0  0.55990335198E+02  0.83630574502E+02  0.74509086297E+02  0.12522218081E+03  0.00000000000E+00 0. -1.
         11    1    1    2    0    0  0.27070266691E+02  0.45616279142E+02 -0.43102866174E+02  0.68348382087E+02  0.00000000000E+00 0.  1.
</event>
<event>
 7    1  0.2842702E-009  0.1062581E+03  0.7561462E-02  0.1267660E+00
         -2   -1    0    0    0  501 -0.00000000000E+00  0.00000000000E+00  0.10429257176E+03  0.10429257176E+03  0.00000000000E+00 0.  1.
          2   -1    0    0  501    0  0.00000000000E+00 -0.00000000000E+00 -0.17348866554E+03  0.17348866554E+03  0.00000000000E+00 0. -1.
         25    2    1    2    0    0  0.60298746363E+02 -0.52220995067E+02 -0.51243329293E+02  0.15696173030E+03  0.12509250515E+03 0.  0.
          5    1    3    3  502    0 -0.93655187770E+01  0.11638739867E+02  0.29017284170E+02  0.32903622722E+02  0.41800000000E+01 0. -1.
         -5    1    3    3    0  502  0.69664265140E+02 -0.63859734933E+02 -0.80260613463E+02  0.12405810758E+03  0.41800000000E+01 0. -1.
        -11    1    1    2    0    0 -0.50187284999E+02  0.10006280830E+01 -0.39961395842E+02  0.64161343423E+02  0.00000000000E+00 0. -1.
         11    1    1    2    0    0 -0.10111461364E+02  0.51220366984E+02  0.22008631362E+02  0.56658163571E+02  0.00000000000E+00 0.  1.
</event>
<event>
 7    1  0.2842702E-009  0.1111274E+03  0.7561462E-02  0.1258496E+00
          2   -1    0    0  501    0  0.00000000000E+00  0.00000000000E+00  0.16782635608E+03  0.16782635608E+03  0.00000000000E+00 0. -1.
         -2   -1    0    0    0  501 -0.00000000000E+00 -0.00000000000E+00 -0.10675352660E+03  0.10675352660E+03  0.00000000000E+00 0.  1.
         25    2    1    2    0    0 -0.46055301935E+02  0.54967263978E+02  0.72263940051E+02  0.16128273907E+03  0.12509018324E+03 0.  0.
          5    1    3    3  502    0 -0.73896833554E+02  0.42584590968E+02  0.29393872150E+01  0.85441803553E+02  0.41800000000E+01 0.  1.
         -5    1    3    3    0  502  0.27841531619E+02  0.12382673010E+02  0.69324552836E+02  0.75840935514E+02  0.41800000000E+01 0.  1.
        -11    1    1    2    0    0  0.48721417328E+02  0.23022238406E+01 -0.24288503906E+02  0.54488605810E+02  0.00000000000E+00 0.  1.
         11    1    1    2    0    0 -0.26661153937E+01 -0.57269487819E+02  0.13097393334E+02  0.58808537803E+02  0.00000000000E+00 0. -1.
</event>
<event>
 7    1  0.2842702E-009  0.1075626E+03  0.7561462E-02  0.1265151E+00
         -1   -1    0    0    0  501 -0.00000000000E+00  0.00000000000E+00  0.22394378743E+02  0.22394378743E+02  0.00000000000E+00 0.  1.
          1   -1    0    0  501    0  0.00000000000E+00 -0.00000000000E+00 -0.65562406822E+03  0.65562406822E+03  0.00000000000E+00 0. -1.
         25    2    1    2    0    0 -0.32224324179E+02  0.28112812487E+02 -0.44635220682E+03  0.46551774295E+03  0.12509092363E+03 0.  0.
          5    1    3    3  502    0 -0.74166299487E+02  0.15177561467E+02 -0.36690091511E+03  0.37465284233E+03  0.41800000000E+01 0.  1.
         -5    1    3    3    0  502  0.41941975309E+02  0.12935251020E+02 -0.79451291706E+02  0.90864900625E+02  0.41800000000E+01 0.  1.
        -11    1    1    2    0    0 -0.22746693532E+02 -0.32943776027E+02 -0.11574592137E+03  0.12247376355E+03  0.00000000000E+00 0. -1.
         11    1    1    2    0    0  0.54971017711E+02  0.48309635399E+01 -0.71131561287E+02  0.90026940457E+02  0.00000000000E+00 0.  1.
</event>
<event>
 7    1  0.2842702E-009  0.1281543E+03  0.7561462E-02  0.1230220E+00
         -1   -1    0    0    0  501 -0.00000000000E+00  0.00000000000E+00  0.23063576348E+02  0.23063576348E+02  0.00000000000E+00 0.  1.
          1   -1    0    0  501    0  0.00000000000E+00 -0.00000000000E+00 -0.72694991947E+03  0.72694991947E+03  0.00000000000E+00 0. -1.
         25    2    1    2    0    0 -0.19785280260E+01  0.71235403912E+02 -0.39582574115E+03  0.42119190263E+03  0.12508478780E+03 0.  0.
          5    1    3    3  502    0  0.24413456522E+02 -0.29404920751E+02 -0.82539381584E+02  0.91054314208E+02  0.41800000000E+01 0.  1.
         -5    1    3    3    0  502 -0.26391984548E+02  0.10064032466E+03 -0.31328635957E+03  0.33013758842E+03  0.41800000000E+01 0.  1.
        -11    1    1    2    0    0  0.20013146071E+02  0.15393533333E+02 -0.50024633182E+02  0.56035263978E+02  0.00000000000E+00 0.  1.
         11    1    1    2    0    0 -0.18034618045E+02 -0.86628937245E+02 -0.25803596879E+03  0.27278632921E+03  0.00000000000E+00 0. -1.
</event>
<event>
 7    1  0.2842702E-009  0.8498270E+02  0.7561462E-02  0.1315478E+00
          2   -1    0    0  501    0  0.00000000000E+00  0.00000000000E+00  0.20649946202E+03  0.20649946202E+03  0.00000000000E+00 0. -1.
         -2   -1    0    0    0  501 -0.00000000000E+00 -0.00000000000E+00 -0.71259917590E+02  0.71259917590E+02  0.00000000000E+00 0.  1.
         25    2    1    2    0    0 -0.14826403752E+02 -0.51201465388E+02  0.77125800338E+02  0.15632480756E+03  0.12509054351E+03 0.  0.
          5    1    3    3  502    0 -0.25678253473E+02 -0.33665699011E+02 -0.26804291265E+02  0.50286125537E+02  0.41800000000E+01 0.  1.
         -5    1    3    3    0  502  0.10851849721E+02 -0.17535766376E+02  0.10393009160E+03  0.10603868202E+03  0.41800000000E+01 0.  1.
        -11    1    1    2    0    0 -0.34149561965E+02 -0.18193860153E+01  0.22604809142E+02  0.40993659805E+02  0.00000000000E+00 0. -1.
         11    1    1    2    0    0  0.48975965717E+02  0.53020851403E+02  0.35508934948E+02  0.80440912243E+02  0.00000000000E+00 0.  1.
</event>
<event>
 7    1  0.2842702E-009  0.1010911E+03  0.7561462E-02  0.1278018E+00
          1   -1    0    0  501    0  0.00000000000E+00  0.00000000000E+00  0.29414006984E+03  0.29414006984E+03  0.00000000000E+00 0. -1.
         -1   -1    0    0    0  501 -0.00000000000E+00 -0.00000000000E+00 -0.46208011512E+02  0.46208011512E+02  0.00000000000E+00 0.  1.
         25    2    1    2    0    0 -0.24986419770E+01 -0.50255815232E+02  0.13873373489E+03  0.19345640290E+03  0.12508573241E+03 0.  0.
          5    1    3    3  502    0 -0.46868811804E+02 -0.63802535488E+02  0.51414658636E+02  0.94490150689E+02  0.41800000000E+01 0.  1.
         -5    1    3    3    0  502  0.44370169827E+02  0.13546720256E+02  0.87319076249E+02  0.98966252213E+02  0.41800000000E+01 0.  1.
        -11    1    1    2    0    0  0.83111149070E+01 -0.11559268629E+02 -0.64506769783E+01  0.15630180924E+02  0.00000000000E+00 0.  1.
         11    1    1    2    0    0 -0.58124729300E+01  0.61815083861E+02  0.11564900042E+03  0.13126149753E+03  0.00000000000E+00 0. -1.
</event>
<event>
 7    1  0.2842702E-009  0.1438785E+03  0.7561462E-02  0.1208203E+00
         -1   -1    0    0    0  501 -0.00000000000E+00  0.00000000000E+00  0.12602606601E+04  0.12602606601E+04  0.00000000000E+00 0.  1.
          1   -1    0    0  501    0  0.00000000000E+00 -0.00000000000E+00 -0.28542067650E+02  0.28542067650E+02  0.00000000000E+00 0. -1.
         25    2    1    2    0    0  0.10209588252E+03  0.48473064808E+02  0.10186487901E+04  0.10325049514E+04  0.12509160579E+03 0.  0.
          5    1    3    3  502    0  0.25045021771E+02 -0.42366015287E+02  0.30176486051E+03  0.30578037184E+03  0.41800000000E+01 0.  1.
         -5    1    3    3    0  502  0.77050860748E+02  0.90839080095E+02  0.71688392962E+03  0.72672457958E+03  0.41800000000E+01 0.  1.
        -11    1    1    2    0    0 -0.53037367014E+02 -0.43867405414E+01  0.28654637312E+02  0.60442485322E+02  0.00000000000E+00 0. -1.
         11    1    1    2    0    0 -0.49058515505E+02 -0.44086324266E+02  0.18441516504E+03  0.19585529103E+03  0.00000000000E+00 0.  1.
</event>
<event>
 7    1  0.2842702E-009  0.1044482E+03  0.7561462E-02  0.1271211E+00
         -2   -1    0    0    0  501 -0.00000000000E+00  0.00000000000E+00  0.93581295279E+02  0.93581295279E+02  0.00000000000E+00 0.  1.
          2   -1    0    0  501    0  0.00000000000E+00 -0.00000000000E+00 -0.17697459662E+03  0.17697459662E+03  0.00000000000E+00 0. -1.
         25    2    1    2    0    0  0.32341394055E+02 -0.62598804532E+02 -0.60250543832E+02  0.15571007110E+03  0.12510364548E+03 0.  0.
          5    1    3    3  502    0  0.66965704902E+02 -0.67191130865E+02 -0.71404698660E+02  0.11880722659E+03  0.41800000000E+01 0.  1.
         -5    1    3    3    0  502 -0.34624310847E+02  0.45923263329E+01  0.11154154828E+02  0.36902844507E+02  0.41800000000E+01 0.  1.
        -11    1    1    2    0    0 -0.12038736262E+02 -0.92566887200E+00  0.28203468829E+02  0.30679369088E+02  0.00000000000E+00 0.  1.
         11    1    1    2    0    0 -0.20302657793E+02  0.63524473404E+02 -0.51346226343E+02  0.84166451715E+02  0.00000000000E+00 0. -1.
</event>
<event>
 7    1  0.2842702E-009  0.1769787E+03  0.7561462E-02  0.1170760E+00
          1   -1    0    0  501    0  0.00000000000E+00  0.00000000000E+00  0.13133408183E+03  0.13133408183E+03  0.00000000000E+00 0. -1.
         -1   -1    0    0    0  501 -0.00000000000E+00 -0.00000000000E+00 -0.28734770256E+03  0.28734770256E+03  0.00000000000E+00 0.  1.
         25    2    1    2    0    0  0.94156906625E+02 -0.13036111084E+03 -0.72383061696E+02  0.21621147923E+03  0.12509417990E+03 0.  0.
          5    1    3    3  502    0 -0.15972929120E+02 -0.97745793978E+01 -0.47159827039E+02  0.50913638187E+02  0.41800000000E+01 0.  1.
         -5    1    3    3    0  502  0.11012983575E+03 -0.12058653144E+03 -0.25223234657E+02  0.16529784104E+03  0.41800000000E+01 0.  1.
        -11    1    1    2    0    0 -0.85689204134E+02  0.70534963841E+02 -0.16589665387E+02  0.11221870533E+03  0.00000000000E+00 0. -1.
         11    1    1    2    0    0 -0.84677024910E+01  0.59826146999E+02 -0.67040893650E+02  0.90251599829E+02  0.00000000000E+00 0.  1.
</event>
<event>
 7    1  0.2842702E-009  0.1030989E+03  0.7561462E-02  0.1273911E+00
          1   -1    0    0  501    0  0.00000000000E+00  0.00000000000E+00  0.21158966443E+03  0.21158966443E+03  0.00000000000E+00 0. -1.
         -1   -1    0    0    0  501 -0.00000000000E+00 -0.00000000000E+00 -0.12761937711E+03  0.12761937711E+03  0.00000000000E+00 0.  1.
         25    2    1    2    0    0 -0.46468558171E+02 -0.62537297133E+02  0.14388450256E+03  0.20596271071E+03  0.12509055797E+03 0.  0.
          5    1    3    3  502    0 -0.25056004617E+02 -0.87851512695E+02  0.14622005366E+03  0.17246294716E+03  0.41800000000E+01 0.  1.
         -5    1    3    3    0  502 -0.21412553554E+02  0.25314215562E+02 -0.23355510918E+01  0.33499763553E+02  0.41800000000E+01 0.  1.
        -11    1    1    2    0    0  0.14542865368E+01  0.17819143364E+02 -0.67052729142E+02  0.69395283017E+02  0.00000000000E+00 0.  1.
         11    1    1    2    0    0  0.45014271634E+02  0.44718153769E+02  0.71385138965E+01  0.63851047822E+02  0.00000000000E+00 0. -1.
</event>
<event>
 7    1  0.3114468E-009  0.2362449E+03  0.7561462E-02  0.1122320E+00
         -1   -1    0    0    0  501 -0.00000000000E+00  0.00000000000E+00  0.57179443983E+02  0.57179443983E+02  0.00000000000E+00 0.  1.
          1   -1    0    0  501    0  0.00000000000E+00 -0.00000000000E+00 -0.10749074317E+04  0.10749074317E+04  0.00000000000E+00 0. -1.
         25    2    1    2    0    0 -0.11361377000E+02 -0.21301618998E+03 -0.37973111426E+03  0.45315458801E+03  0.12509349871E+03 0.  0.
          5    1    3    3  502    0 -0.57885772961E+02 -0.15897646025E+03 -0.21511003370E+03  0.27370435989E+03  0.41800000000E+01 0.  1.
         -5    1    3    3    0  502  0.46524395960E+02 -0.54039729730E+02 -0.16462108056E+03  0.17945022812E+03  0.41800000000E+01 0.  1.
        -11    1    1    2    0    0 -0.36606274399E+02  0.13805589539E+03 -0.37439858003E+03  0.40071654109E+03  0.00000000000E+00 0.  1.
         11    1    1    2    0    0  0.47967651399E+02  0.74960294586E+02 -0.26359829343E+03  0.27821574658E+03  0.00000000000E+00 0. -1.
</event>
<event>
 7    1  0.2842702E-009  0.1019938E+03  0.7561462E-02  0.1276158E+00
          2   -1    0    0  501    0  0.00000000000E+00  0.00000000000E+00  0.14725898840E+03  0.14725898840E+03  0.00000000000E+00 0. -1.
         -2   -1    0    0    0  501 -0.00000000000E+00 -0.00000000000E+00 -0.13454983769E+03  0.13454983769E+03  0.00000000000E+00 0.  1.
         25    2    1    2    0    0 -0.22280498704E+02  0.84848712971E+02 -0.14995850901E+02  0.15351771153E+03  0.12508831878E+03 0.  0.
          5    1    3    3  502    0  0.76693972099E+01 -0.68660074043E+00  0.44285054456E+02  0.45143432770E+02  0.41800000000E+01 0. -1.
         -5    1    3    3    0  502 -0.29949895914E+02  0.85535313712E+02 -0.59280905357E+02  0.10837427876E+03  0.41800000000E+01 0. -1.
        -11    1    1    2    0    0 -0.18798840084E+02 -0.36516946579E+02  0.46589813655E+02  0.62108731370E+02  0.00000000000E+00 0. -1.
         11    1    1    2    0    0  0.41079338788E+02 -0.48331766392E+02 -0.18884812041E+02  0.66182383182E+02  0.00000000000E+00 0.  1.
</event>
<event>
 7    1  0.2842702E-009  0.1001405E+03  0.7561462E-02  0.1280001E+00
         -1   -1    0    0    0  501 -0.00000000000E+00  0.00000000000E+00  0.62576194429E+02  0.62576194429E+02  0.00000000000E+00 0.  1.
          1   -1    0    0  501    0  0.00000000000E+00 -0.00000000000E+00 -0.34993630718E+03  0.34993630718E+03  0.00000000000E+00 0. -1.
         25    2    1    2    0    0 -0.42248784274E+01 -0.49461613742E+01 -0.15704879939E+02  0.12624139382E+03  0.12509169496E+03 0.  0.
          5    1    3    3  502    0  0.49722269386E+02  0.32402880175E+02 -0.63990112964E+01  0.59838703714E+02  0.41800000000E+01 0.  1.
         -5    1    3    3    0  502 -0.53947147813E+02 -0.37349041550E+02 -0.93058686421E+01  0.66402690104E+02  0.41800000000E+01 0.  1.
        -11    1    1    2    0    0  0.55443707164E+01 -0.34815628996E+02 -0.20969702490E+03  0.21263986061E+03  0.00000000000E+00 0. -1.
         11    1    1    2    0    0 -0.13194922891E+01  0.39761790370E+02 -0.61958207910E+02  0.73631247177E+02  0.00000000000E+00 0.  1.
</event>
<event>
 7    1  0.2842702E-009  0.3291996E+03  0.7561462E-02  0.1071492E+00
         -2   -1    0    0    0  501 -0.00000000000E+00  0.00000000000E+00  0.28387698945E+03  0.28387698945E+03  0.00000000000E+00 0.  1.
          2   -1    0    0  501    0  0.00000000000E+00 -0.00000000000E+00 -0.57982498294E+03  0.57982498294E+03  0.00000000000E+00 0. -1.
         25    2    1    2    0    0  0.28902684846E+03  0.13633879661E+03  0.90249502028E+02  0.35484794150E+03  0.12508917771E+03 0.  0.
          5    1    3    3  502    0  0.16425353158E+03  0.34413322893E+02  0.96366848681E+02  0.19356534131E+03  0.41800000000E+01 0. -1.
         -5    1    3    3    0  502  0.12477331687E+03  0.10192547371E+03 -0.61173466522E+01  0.16128260019E+03  0.41800000000E+01 0. -1.
        -11    1    1    2    0    0 -0.37993016610E+02 -0.52280174342E+02 -0.99287292828E+02  0.11846793852E+03  0.00000000000E+00 0.  1.
         11    1    1    2    0    0 -0.25103383185E+03 -0.84058622263E+02 -0.28691020269E+03  0.39038609237E+03  0.00000000000E+00 0. -1.
</event>
<event>
 7    1  0.2842702E-009  0.1912689E+03  0.7561462E-02  0.1157322E+00
         -1   -1    0    0    0  501 -0.00000000000E+00  0.00000000000E+00  0.12550440273E+03  0.12550440273E+03  0.00000000000E+00 0.  1.
          1   -1    0    0  501    0  0.00000000000E+00 -0.00000000000E+00 -0.38994361487E+03  0.38994361487E+03  0.00000000000E+00 0. -1.
         25    2    1    2    0    0 -0.14484195937E+03  0.11362453535E+03 -0.71405447226E+02  0.23374005135E+03  0.12508375388E+03 0.  0.
          5    1    3    3  502    0  0.43074248091E+01  0.14900124097E+02 -0.51235485985E+02  0.53694646201E+02  0.41800000000E+01 0. -1.
         -5    1    3    3    0  502 -0.14914938418E+03  0.98724411256E+02 -0.20169961241E+02  0.18004540515E+03  0.41800000000E+01 0. -1.
        -11    1    1    2    0    0  0.19101847283E+02 -0.33196108077E+02 -0.96827901531E+02  0.10412734836E+03  0.00000000000E+00 0. -1.
         11    1    1    2    0    0  0.12574011209E+03 -0.80428427276E+02 -0.96205863382E+02  0.17758061789E+03  0.00000000000E+00 0.  1.
</event>
<event>
 7    1  0.2842702E-009  0.1336682E+03  0.7561462E-02  0.1222112E+00
          1   -1    0    0  501    0  0.00000000000E+00  0.00000000000E+00  0.12704582463E+04  0.12704582463E+04  0.00000000000E+00 0. -1.
         -1   -1    0    0    0  501 -0.00000000000E+00 -0.00000000000E+00 -0.25621033287E+02  0.25621033287E+02  0.00000000000E+00 0.  1.
         25    2    1    2    0    0 -0.10621750589E+03 -0.74178293927E+02  0.87691589099E+03  0.89521628895E+03  0.12508455653E+03 0.  0.
          5    1    3    3  502    0 -0.18809575368E+02 -0.39308299651E+01  0.11970671227E+02  0.23022183202E+02  0.41800000000E+01 0. -1.
         -5    1    3    3    0  502 -0.87407930522E+02 -0.70247463962E+02  0.86494521976E+03  0.87219410575E+03  0.41800000000E+01 0. -1.
        -11    1    1    2    0    0  0.57172255135E+02  0.63150076030E+02  0.32095370609E+03  0.33206607823E+03  0.00000000000E+00 0. -1.
         11    1    1    2    0    0  0.49045250755E+02  0.11028217897E+02  0.46967615968E+02  0.68796912440E+02  0.00000000000E+00 0.  1.
</event>
<event>
 7    1  0.2842702E-009  0.8216507E+02  0.7561462E-02  0.1323017E+00
         -2   -1    0    0    0  501 -0.00000000000E+00  0.00000000000E+00  0.19337751198E+02  0.19337751198E+02  0.00000000000E+00 0.  1.
          2   -1    0    0  501    0  0.00000000000E+00 -0.00000000000E+00 -0.84037130717E+03  0.84037130717E+03  0.00000000000E+00 0. -1.
         25    2    1    2    0    0 -0.42922296802E+02  0.99329829388E+01 -0.62312647885E+03  0.63708175888E+03  0.12508225751E+03 0.  0.
          5    1    3    3  502    0 -0.64838909541E+02 -0.98012767591E+01 -0.58509902969E+03  0.58877711925E+03  0.41800000000E+01 0.  1.
         -5    1    3    3    0  502  0.21916612739E+02  0.19734259698E+02 -0.38027449161E+02  0.48304639627E+02  0.41800000000E+01 0.  1.
        -11    1    1    2    0    0  0.15564622917E+02  0.21895934226E+02 -0.78449998662E+01  0.27986308172E+02  0.00000000000E+00 0.  1.
         11    1    1    2    0    0  0.27357673885E+02 -0.31828917165E+02 -0.19006207726E+03  0.19464099132E+03  0.00000000000E+00 0. -1.
</event>
<event>
 7    1  0.2842702E-009  0.7581827E+02  0.7561462E-02  0.1341356E+00
          1   -1    0    0  501    0  0.00000000000E+00  0.00000000000E+00  0.42726220532E+02  0.42726220532E+02  0.00000000000E+00 0. -1.
         -1   -1    0    0    0  501 -0.00000000000E+00 -0.00000000000E+00 -0.32739992241E+03  0.32739992241E+03  0.00000000000E+00 0.  1.
         25    2    1    2    0    0  0.14016658404E+02  0.16654978641E+01 -0.23160557674E+03  0.26359854041E+03  0.12507520432E+03 0.  0.
          5    1    3    3  502    0  0.52564038419E+02  0.82487492869E+01 -0.21391888072E+03  0.22047625706E+03  0.41800000000E+01 0. -1.
         -5    1    3    3    0  502 -0.38547380015E+02 -0.65832514228E+01 -0.17686696019E+02  0.43122283351E+02  0.41800000000E+01 0. -1.
        -11    1    1    2    0    0 -0.18648155094E+02  0.25381891727E+02 -0.68249941551E+02  0.75166805425E+02  0.00000000000E+00 0.  1.
         11    1    1    2    0    0  0.46314966901E+01 -0.27047389591E+02  0.15181816413E+02  0.31360797102E+02  0.00000000000E+00 0. -1.
</event>
<event>
 7    1  0.2842702E-009  0.2760843E+03  0.7561462E-02  0.1097847E+00
          1   -1    0    0  501    0  0.00000000000E+00  0.00000000000E+00  0.92973847276E+03  0.92973847276E+03  0.00000000000E+00 0. -1.
         -1   -1    0    0    0  501 -0.00000000000E+00 -0.00000000000E+00 -0.90115657364E+02  0.90115657364E+02  0.00000000000E+00 0.  1.
         25    2    1    2    0    0 -0.11155312840E+03 -0.24369201693E+03  0.43736319712E+03  0.52798016250E+03  0.12508631513E+03 0.  0.
          5    1    3    3  502    0 -0.10358131166E+03 -0.25154141638E+03  0.43843491879E+03  0.51598916916E+03  0.41800000000E+01 0. -1.
         -5    1    3    3    0  502 -0.79718167413E+01  0.78493994536E+01 -0.10717216693E+01  0.11990993340E+02  0.41800000000E+01 0. -1.
        -11    1    1    2    0    0  0.71925475394E+02  0.16715602099E+03  0.33971838674E+03  0.38538680783E+03  0.00000000000E+00 0. -1.
         11    1    1    2    0    0  0.39627653006E+02  0.76535995939E+02  0.62541231536E+02  0.10648715979E+03  0.00000000000E+00 0.  1.
</event>
<event>
 7    1  0.2842702E-009  0.1212292E+03  0.7561462E-02  0.1241083E+00
          2   -1    0    0  501    0  0.00000000000E+00  0.00000000000E+00  0.19686429916E+03  0.19686429916E+03  0.00000000000E+00 0. -1.
         -2   -1    0    0    0  501 -0.00000000000E+00 -0.00000000000E+00 -0.87251355614E+02  0.87251355614E+02  0.00000000000E+00 0.  1.
         25    2    1    2    0    0  0.51214071095E+02  0.46225703059E+02  0.88036449576E+02  0.16780750057E+03  0.12509693878E+03 0.  0.
          5    1    3    3  502    0  0.24955716970E+02  0.86937769350E+02  0.74711401386E+02  0.11738922202E+03  0.41800000000E+01 0. -1.
         -5    1    3    3    0  502  0.26258354125E+02 -0.40712066290E+02  0.13325048189E+02  0.50418278552E+02  0.41800000000E+01 0. -1.
        -11    1    1    2    0    0 -0.16561767795E+02  0.21542964725E+02 -0.15883715490E+02  0.31475131444E+02  0.00000000000E+00 0.  1.
         11    1    1    2    0    0 -0.34652303300E+02 -0.67768667784E+02  0.37460209456E+02  0.84833022755E+02  0.00000000000E+00 0. -1.
</event>
<event>
 7    1  0.2842702E-009  0.1041198E+03  0.7561462E-02  0.1271864E+00
          3   -1    0    0  501    0  0.00000000000E+00  0.00000000000E+00  0.69071029465E+03  0.69071029465E+03  0.00000000000E+00 0. -1.
         -3   -1    0    0    0  501 -0.00000000000E+00 -0.00000000000E+00 -0.37745289329E+02  0.37745289329E+02  0.00000000000E+00 0.  1.
         25    2    1    2    0    0 -0.75723852691E+02 -0.50961298120E+02  0.52278159521E+03  0.54523309143E+03  0.12508945571E+03 0.  0.
          5    1    3    3  502    0 -0.51010024228E+02 -0.43963334353E+02  0.51302216137E+03  0.51743985911E+03  0.41800000000E+01 0.  1.
         -5    1    3    3    0  502 -0.24713828463E+02 -0.69979637670E+01  0.97594338441E+01  0.27793232326E+02  0.41800000000E+01 0.  1.
        -11    1    1    2    0    0  0.31069688815E+02 -0.15464749362E+02  0.56165002109E+01  0.35157205670E+02  0.00000000000E+00 0.  1.
         11    1    1    2    0    0  0.44654163876E+02  0.66426047483E+02  0.12456690990E+03  0.14806528687E+03  0.00000000000E+00 0. -1.
</event>
<event>
 7    1  0.2842702E-009  0.9413028E+02  0.7561462E-02  0.1293147E+00
         -3   -1    0    0    0  501 -0.00000000000E+00  0.00000000000E+00  0.74323354294E+02  0.74323354294E+02  0.00000000000E+00 0.  1.
          3   -1    0    0  501    0  0.00000000000E+00 -0.00000000000E+00 -0.23955220645E+03  0.23955220645E+03  0.00000000000E+00 0. -1.
         25    2    1    2    0    0 -0.10391462411E+02 -0.31498424176E+02 -0.15047398905E+03  0.19846940670E+03  0.12509017067E+03 0.  0.
          5    1    3    3  502    0 -0.16306782020E+02  0.46504187557E+02 -0.73901763710E+02  0.88924089423E+02  0.41800000000E+01 0. -1.
         -5    1    3    3    0  502  0.59153196086E+01 -0.78002611732E+02 -0.76572225342E+02  0.10954531728E+03  0.41800000000E+01 0. -1.
        -11    1    1    2    0    0  0.29712971351E+02  0.95190119643E+01  0.41544025894E+02  0.51955541983E+02  0.00000000000E+00 0.  1.
         11    1    1    2    0    0 -0.19321508940E+02  0.21979412211E+02 -0.56298889002E+02  0.63450612068E+02  0.00000000000E+00 0. -1.
</event>
<event>
 7    1  0.2842702E-009  0.8270302E+02  0.7561462E-02  0.1321551E+00
         -1   -1    0    0    0  501 -0.00000000000E+00  0.00000000000E+00  0.82625135386E+02  0.82625135386E+02  0.00000000000E+00 0.  1.
          1   -1    0    0  501    0  0.00000000000E+00 -0.00000000000E+00 -0.16346439903E+03  0.16346439903E+03  0.00000000000E+00 0. -1.
         25    2    1    2    0    0  0.41422041252E+02  0.24506662663E+01 -0.35676260430E+02  0.13653603690E+03  0.12508997781E+03 0.  0.
          5    1    3    3  502    0  0.18264198678E+02  0.29761249976E+02 -0.75214392807E+02  0.83030056238E+02  0.41800000000E+01 0.  1.
         -5    1    3    3    0  502  0.23157842574E+02 -0.27310583710E+02  0.39538132377E+02  0.53505980667E+02  0.41800000000E+01 0.  1.
        -11    1    1    2    0    0  0.20315767851E+02 -0.21497867534E+02  0.18709497809E+01  0.29637631231E+02  0.00000000000E+00 0. -1.
         11    1    1    2    0    0 -0.61737809103E+02  0.19047201268E+02 -0.47033952995E+02  0.79915866280E+02  0.00000000000E+00 0.  1.
</event>
<event>
 7    1  0.2842702E-009  0.1247778E+03  0.7561462E-02  0.1235417E+00
         -2   -1    0    0    0  501 -0.00000000000E+00  0.00000000000E+00  0.19011109984E+02  0.19011109984E+02  0.00000000000E+00 0. -1.
          2   -1    0    0  501    0  0.00000000000E+00 -0.00000000000E+00 -0.10069435326E+04  0.10069435326E+04  0.00000000000E+00 0.  1.
         25    2    1    2    0    0 -0.44126379633E+02 -0.39424758022E+02 -0.75535958366E+03  0.76793014715E+03  0.12508861396E+03 0.  0.
          5    1    3    3  502    0 -0.15039946285E+02  0.45451145299E+02 -0.29528647201E+03  0.29917148853E+03  0.41800000000E+01 0.  1.
         -5    1    3    3    0  502 -0.29086433348E+02 -0.84875903322E+02 -0.46007311165E+03  0.46875865862E+03  0.41800000000E+01 0.  1.
        -11    1    1    2    0    0 -0.23739420475E+02 -0.11934826319E+02 -0.51706066726E+02  0.58133617641E+02  0.00000000000E+00 0.  1.
         11    1    1    2    0    0  0.67865800109E+02  0.51359584341E+02 -0.18086677219E+03  0.19989087776E+03  0.00000000000E+00 0. -1.
</event>
<event>
 7    1  0.2842702E-009  0.1581466E+03  0.7561462E-02  0.1190805E+00
          2   -1    0    0  501    0  0.00000000000E+00  0.00000000000E+00  0.50045867795E+02  0.50045867795E+02  0.00000000000E+00 0. -1.
         -2   -1    0    0    0  501 -0.00000000000E+00 -0.00000000000E+00 -0.65142885422E+03  0.65142885422E+03  0.00000000000E+00 0.  1.
         25    2    1    2    0    0  0.13348094026E+03  0.52275774245E+02 -0.34391502409E+03  0.39303305080E+03  0.12509003654E+03 0.  0.
          5    1    3    3  502    0  0.25435532714E+02 -0.28127230923E+02 -0.21964524101E+02  0.44022950410E+02  0.41800000000E+01 0.  1.
         -5    1    3    3    0  502  0.10804540755E+03  0.80403005167E+02 -0.32195049999E+03  0.34901010039E+03  0.41800000000E+01 0.  1.
        -11    1    1    2    0    0 -0.49939139131E+02 -0.17701706834E+02 -0.18539304265E+03  0.19281558108E+03  0.00000000000E+00 0.  1.
         11    1    1    2    0    0 -0.83541801129E+02 -0.34574067410E+02 -0.72074919686E+02  0.11562609014E+03  0.00000000000E+00 0. -1.
</event>
<event>
 7    1  0.2842702E-009  0.1535860E+03  0.7561462E-02  0.1196135E+00
         -1   -1    0    0    0  501 -0.00000000000E+00  0.00000000000E+00  0.26872632559E+02  0.26872632559E+02  0.00000000000E+00 0.  1.
          1   -1    0    0  501    0  0.00000000000E+00 -0.00000000000E+00 -0.11392631646E+04  0.11392631646E+04  0.00000000000E+00 0. -1.
         25    2    1    2    0    0  0.12336294936E+03  0.51445341942E+02 -0.66110374253E+03  0.68598139827E+03  0.12508908788E+03 0.  0.
          5    1    3    3  502    0  0.80739477828E+02  0.58618007840E+02 -0.61338955171E+03  0.62146532379E+03  0.41800000000E+01 0.  1.
         -5    1    3    3    0  502  0.42623471530E+02 -0.71726658984E+01 -0.47714190824E+02  0.64516074488E+02  0.41800000000E+01 0.  1.
        -11    1    1    2    0    0 -0.45248561106E+02  0.27399356236E+02 -0.15324773831E+03  0.16212040680E+03  0.00000000000E+00 0.  1.
         11    1    1    2    0    0 -0.78114388252E+02 -0.78844698178E+02 -0.29803905123E+03  0.31803399212E+03  0.00000000000E+00 0. -1.
</event>
<event>
 7    1  0.2842702E-009  0.6007718E+02  0.7561462E-02  0.1397508E+00
          2   -1    0    0  501    0  0.00000000000E+00  0.00000000000E+00  0.10621034796E+03  0.10621034796E+03  0.00000000000E+00 0. -1.
         -2   -1    0    0    0  501 -0.00000000000E+00 -0.00000000000E+00 -0.11873244086E+03  0.11873244086E+03  0.00000000000E+00 0.  1.
         25    2    1    2    0    0 -0.16336998752E+02 -0.20076972224E+02 -0.12785610553E+02  0.12836523158E+03  0.12507669048E+03 0.  0.
          5    1    3    3  502    0  0.14967112558E+02 -0.38605169023E+02 -0.57242248359E+02  0.70770904550E+02  0.41800000000E+01 0.  1.
         -5    1    3    3    0  502 -0.31304111309E+02  0.18528196799E+02  0.44456637806E+02  0.57594327034E+02  0.41800000000E+01 0.  1.
        -11    1    1    2    0    0  0.20604727934E+02 -0.79427969397E+00 -0.43369457984E+02  0.48021823990E+02  0.00000000000E+00 0.  1.
         11    1    1    2    0    0 -0.42677291828E+01  0.20871251918E+02  0.43632975632E+02  0.48555733251E+02  0.00000000000E+00 0. -1.
</event>
<event>
 7    1  0.2842702E-009  0.1110535E+03  0.7561462E-02  0.1258631E+00
          1   -1    0    0  501    0  0.00000000000E+00  0.00000000000E+00  0.45008791158E+03  0.45008791158E+03  0.00000000000E+00 0. -1.
         -1   -1    0    0    0  501 -0.00000000000E+00 -0.00000000000E+00 -0.39221785477E+02  0.39221785477E+02  0.00000000000E+00 0.  1.
         25    2    1    2    0    0  0.94572598878E+01  0.73515071192E+02  0.21767125966E+03  0.26176805120E+03  0.12509128624E+03 0.  0.
          5    1    3    3  502    0 -0.49017864685E+02  0.70779093901E+02  0.14018089158E+03  0.16456179980E+03  0.41800000000E+01 0.  1.
         -5    1    3    3    0  502  0.58475124573E+02  0.27359772916E+01  0.77490368080E+02  0.97206251397E+02  0.41800000000E+01 0.  1.
        -11    1    1    2    0    0 -0.14329176861E+02 -0.28063992260E+02  0.26852848987E+01  0.31624732822E+02  0.00000000000E+00 0.  1.
         11    1    1    2    0    0  0.48719169730E+01 -0.45451078932E+02  0.19050958155E+03  0.19591691304E+03  0.00000000000E+00 0. -1.
</event>
<event>
 7    1  0.2842702E-009  0.1196908E+03  0.7561462E-02  0.1243608E+00
         -3   -1    0    0    0  501 -0.00000000000E+00  0.00000000000E+00  0.33577242864E+02  0.33577242864E+02  0.00000000000E+00 0.  1.
          3   -1    0    0  501    0  0.00000000000E+00 -0.00000000000E+00 -0.96018940379E+03  0.96018940379E+03  0.00000000000E+00 0. -1.
         25    2    1    2    0    0  0.61177933547E+02 -0.46419757756E+02 -0.82375894194E+03  0.83673378187E+03  0.12508834412E+03 0.  0.
          5    1    3    3  502    0  0.42055246489E+02 -0.87519055274E+02 -0.46127220800E+03  0.47139977839E+03  0.41800000000E+01 0.  1.
         -5    1    3    3    0  502  0.19122687058E+02  0.41099297519E+02 -0.36248673394E+03  0.36533400348E+03  0.41800000000E+01 0.  1.
        -11    1    1    2    0    0 -0.26427122393E+01  0.37341784765E+02  0.10286582321E+01  0.37449311812E+02  0.00000000000E+00 0.  1.
         11    1    1    2    0    0 -0.58535221308E+02  0.90779729908E+01 -0.10388187722E+03  0.11958355298E+03  0.00000000000E+00 0. -1.
</event>
<event>
 7    1  0.2842702E-009  0.8629936E+02  0.7561462E-02  0.1312069E+00
          2   -1    0    0  501    0  0.00000000000E+00  0.00000000000E+00  0.99421053690E+03  0.99421053690E+03  0.00000000000E+00 0. -1.
         -2   -1    0    0    0  501 -0.00000000000E+00 -0.00000000000E+00 -0.21176948253E+02  0.21176948253E+02  0.00000000000E+00 0.  1.
         25    2    1    2    0    0 -0.15620338944E+02  0.13066288364E+02  0.85342498281E+03  0.86278422332E+03  0.12509073442E+03 0.  0.
          5    1    3    3  502    0  0.95191452388E+00 -0.45110021929E+02  0.61859208636E+03  0.62024951586E+03  0.41800000000E+01 0.  1.
         -5    1    3    3    0  502 -0.16572253468E+02  0.58176310293E+02  0.23483289646E+03  0.24253470746E+03  0.41800000000E+01 0.  1.
        -11    1    1    2    0    0 -0.14673829123E+02  0.18023734439E+02  0.10385560077E+03  0.10642444304E+03  0.00000000000E+00 0. -1.
         11    1    1    2    0    0  0.30294168067E+02 -0.31090022803E+02  0.15753005059E+02  0.46178818794E+02  0.00000000000E+00 0.  1.
</event>
<event>
 7    1  0.2842702E-009  0.1319716E+03  0.7561462E-02  0.1224559E+00
          2   -1    0    0  501    0  0.00000000000E+00  0.00000000000E+00  0.87437105958E+03  0.87437105958E+03  0.00000000000E+00 0. -1.
         -2   -1    0    0    0  501 -0.00000000000E+00 -0.00000000000E+00 -0.25873296734E+02  0.25873296734E+02  0.00000000000E+00 0.  1.
         25    2    1    2    0    0  0.94186229260E+02  0.31955344713E+02  0.54170709410E+03  0.56478735235E+03  0.12508392279E+03 0.  0.
          5    1    3    3  502    0 -0.31716257251E+01 -0.18005782054E+02  0.87490450782E+01  0.20695061896E+02  0.41800000000E+01 0.  1.
         -5    1    3    3    0  502  0.97357854985E+02  0.49961126767E+02  0.53295804902E+03  0.54409229045E+03  0.41800000000E+01 0.  1.
        -11    1    1    2    0    0 -0.53851321552E+01  0.28013353975E+02  0.63129488267E+02  0.69275392010E+02  0.00000000000E+00 0. -1.
         11    1    1    2    0    0 -0.88801097105E+02 -0.59968698688E+02  0.24366118048E+03  0.26618161195E+03  0.00000000000E+00 0.  1.
</event>
<event>
 7    1  0.2842702E-009  0.1315123E+03  0.7561462E-02  0.1225229E+00
          1   -1    0    0  501    0  0.00000000000E+00  0.00000000000E+00  0.32636395688E+02  0.32636395688E+02  0.00000000000E+00 0. -1.
         -1   -1    0    0    0  501 -0.00000000000E+00 -0.00000000000E+00 -0.59102759487E+03  0.59102759487E+03  0.00000000000E+00 0.  1.
         25    2    1    2    0    0  0.83333988172E+02  0.20156075774E+02 -0.32461091973E+03  0.35828847584E+03  0.12509021438E+03 0.  0.
          5    1    3    3  502    0 -0.95143444101E+01 -0.30379793139E+02 -0.15574457368E+03  0.15901980761E+03  0.41800000000E+01 0.  1.
         -5    1    3    3    0  502  0.92848332582E+02  0.50535868913E+02 -0.16886634605E+03  0.19926866823E+03  0.41800000000E+01 0.  1.
        -11    1    1    2    0    0  0.18963840517E+02  0.53304129354E+01 -0.29108357321E+02  0.35147361425E+02  0.00000000000E+00 0.  1.
         11    1    1    2    0    0 -0.10229782869E+03 -0.25486488710E+02 -0.20467192213E+03  0.23022815330E+03  0.00000000000E+00 0. -1.
</event>
<event>
 7    1  0.2842702E-009  0.9797764E+02  0.7561462E-02  0.1284607E+00
          2   -1    0    0  501    0  0.00000000000E+00  0.00000000000E+00  0.90191894233E+02  0.90191894233E+02  0.00000000000E+00 0. -1.
         -2   -1    0    0    0  501 -0.00000000000E+00 -0.00000000000E+00 -0.18982533946E+03  0.18982533946E+03  0.00000000000E+00 0.  1.
         25    2    1    2    0    0 -0.26995823053E+02  0.57510880869E+02 -0.15984058149E+02  0.14120622294E+03  0.12508969342E+03 0.  0.
          5    1    3    3  502    0 -0.40972233335E+02 -0.54361896226E+01  0.38535375089E+02  0.56663247306E+02  0.41800000000E+01 0. -1.
         -5    1    3    3    0  502  0.13976410281E+02  0.62947070491E+02 -0.54519433237E+02  0.84542975630E+02  0.41800000000E+01 0. -1.
        -11    1    1    2    0    0  0.73890805459E+01 -0.67423855964E+02 -0.92855372525E+02  0.11498997813E+03  0.00000000000E+00 0.  1.
         11    1    1    2    0    0  0.19606742507E+02  0.99129750951E+01  0.92059854510E+01  0.23821032621E+02  0.00000000000E+00 0. -1.
</event>
<event>
 7    1  0.2842702E-009  0.1105092E+03  0.7561462E-02  0.1259630E+00
          2   -1    0    0  501    0  0.00000000000E+00  0.00000000000E+00  0.63662296098E+03  0.63662296098E+03  0.00000000000E+00 0. -1.
         -2   -1    0    0    0  501 -0.00000000000E+00 -0.00000000000E+00 -0.28875394710E+02  0.28875394710E+02  0.00000000000E+00 0.  1.
         25    2    1    2    0    0  0.60095446757E+02 -0.14042674322E+02  0.20603076157E+03  0.24880707233E+03  0.12509046769E+03 0.  0.
          5    1    3    3  502    0  0.80813278708E+02 -0.30469497734E+02  0.73155764447E+02  0.11326259126E+03  0.41800000000E+01 0.  1.
         -5    1    3    3    0  502 -0.20717831951E+02  0.16426823412E+02  0.13287499712E+03  0.13554448107E+03  0.41800000000E+01 0.  1.
        -11    1    1    2    0    0 -0.47168080272E+01 -0.34086984025E+02  0.17653936317E+03  0.17986194013E+03  0.00000000000E+00 0. -1.
         11    1    1    2    0    0 -0.55378638730E+02  0.48129658347E+02  0.22517744153E+03  0.23682934322E+03  0.00000000000E+00 0.  1.
</event>
<event>
 7    1  0.2842702E-009  0.1142806E+03  0.7561462E-02  0.1252842E+00
         -1   -1    0    0    0  501 -0.00000000000E+00  0.00000000000E+00  0.20419143886E+02  0.20419143886E+02  0.00000000000E+00 0.  1.
          1   -1    0    0  501    0  0.00000000000E+00 -0.00000000000E+00 -0.82396692297E+03  0.82396692297E+03  0.00000000000E+00 0. -1.
         25    2    1    2    0    0  0.46050082017E+02  0.52272338125E+02 -0.48963270285E+03  0.51013935262E+03  0.12509583527E+03 0.  0.
          5    1    3    3  502    0  0.63867899504E+02  0.76272670677E+02 -0.25796954450E+03  0.27651833062E+03  0.41800000000E+01 0.  1.
         -5    1    3    3    0  502 -0.17817817487E+02 -0.24000332552E+02 -0.23166315834E+03  0.23362102199E+03  0.41800000000E+01 0.  1.
        -11    1    1    2    0    0 -0.99673143353E+01  0.17568071856E+02 -0.14977208070E+02  0.25145601312E+02  0.00000000000E+00 0.  1.
         11    1    1    2    0    0 -0.36082767682E+02 -0.69840409981E+02 -0.29893786816E+03  0.30910111292E+03  0.00000000000E+00 0. -1.
</event>
<event>
 7    1  0.2842702E-009  0.1465386E+03  0.7561462E-02  0.1204792E+00
          2   -1    0    0  501    0  0.00000000000E+00  0.00000000000E+00  0.52682028488E+03  0.52682028488E+03  0.00000000000E+00 0. -1.
         -2   -1    0    0    0  501 -0.00000000000E+00 -0.00000000000E+00 -0.43911799615E+02  0.43911799615E+02  0.00000000000E+00 0.  1.
         25    2    1    2    0    0 -0.69557105323E+02 -0.80160903746E+02  0.28873702489E+03  0.33208475923E+03  0.12508899382E+03 0.  0.
          5    1    3    3  502    0 -0.73119240656E+02 -0.10850341202E+03  0.26129654636E+03  0.29225463437E+03  0.41800000000E+01 0.  1.
         -5    1    3    3    0  502  0.35621353337E+01  0.28342508275E+02  0.27440478535E+02  0.39830124851E+02  0.41800000000E+01 0.  1.
        -11    1    1    2    0    0  0.25125201349E+02  0.84971230612E+02  0.15800767038E+03  0.18115686483E+03  0.00000000000E+00 0. -1.
         11    1    1    2    0    0  0.44431903974E+02 -0.48103268657E+01  0.36163789985E+02  0.57490460438E+02  0.00000000000E+00 0.  1.
</event>
<event>
 7    1  0.2842702E-009  0.1174296E+03  0.7561462E-02  0.1247399E+00
          2   -1    0    0  501    0  0.00000000000E+00  0.00000000000E+00  0.84902769513E+03  0.84902769513E+03  0.00000000000E+00 0. -1.
         -2   -1    0    0    0  501 -0.00000000000E+00 -0.00000000000E+00 -0.20741399626E+02  0.20741399626E+02  0.00000000000E+00 0.  1.
         25    2    1    2    0    0  0.54809388170E+02  0.42946468631E+02  0.53975753901E+03  0.55842269163E+03  0.12509689608E+03 0.  0.
          5    1    3    3  502    0  0.67920388452E+02  0.63573947067E+02  0.51511046535E+03  0.52346068604E+03  0.41800000000E+01 0. -1.
         -5    1    3    3    0  502 -0.13111000282E+02 -0.20627478436E+02  0.24647073655E+02  0.34962005589E+02  0.41800000000E+01 0. -1.
        -11    1    1    2    0    0 -0.81530497566E+02 -0.37147331047E+02  0.22510630917E+03  0.24228082191E+03  0.00000000000E+00 0. -1.
         11    1    1    2    0    0  0.26721109397E+02 -0.57991375840E+01  0.63422447325E+02  0.69065581217E+02  0.00000000000E+00 0.  1.
</event>
<event>
 7    1  0.2842702E-009  0.2257864E+03  0.7561462E-02  0.1129641E+00
         -1   -1    0    0    0  501 -0.00000000000E+00  0.00000000000E+00  0.65780072158E+02  0.65780072158E+02  0.00000000000E+00 0.  1.
          1   -1    0    0  501    0  0.00000000000E+00 -0.00000000000E+00 -0.91309075544E+03  0.91309075544E+03  0.00000000000E+00 0. -1.
         25    2    1    2    0    0 -0.51794785358E+02  0.20357101448E+03 -0.55936170606E+03  0.61045620502E+03  0.12508957716E+03 0.  0.
          5    1    3    3  502    0 -0.86498257240E+02  0.15693831321E+03 -0.35129957495E+03  0.39438616408E+03  0.41800000000E+01 0.  1.
         -5    1    3    3    0  502  0.34703471882E+02  0.46632701268E+02 -0.20806213111E+03  0.21607004094E+03  0.41800000000E+01 0.  1.
        -11    1    1    2    0    0  0.36727063715E+02 -0.64983420085E+02 -0.41851036757E+02  0.85575880789E+02  0.00000000000E+00 0. -1.
         11    1    1    2    0    0  0.15067721642E+02 -0.13858759440E+03 -0.24609794047E+03  0.28283874179E+03  0.00000000000E+00 0.  1.
</event>
<event>
 7    1  0.2842702E-009  0.1535118E+03  0.7561462E-02  0.1196223E+00
         -2   -1    0    0    0  501 -0.00000000000E+00  0.00000000000E+00  0.11904278282E+03  0.11904278282E+03  0.00000000000E+00 0.  1.
          2   -1    0    0  501    0  0.00000000000E+00 -0.00000000000E+00 -0.21224016383E+03  0.21224016383E+03  0.00000000000E+00 0. -1.
         25    2    1    2    0    0 -0.11150343708E+03  0.18366666555E+01 -0.16419047324E+02  0.16838284202E+03  0.12508719578E+03 0.  0.
          5    1    3    3  502    0 -0.52707682009E+02 -0.61222416813E+02 -0.23666206991E+01  0.80928099920E+02  0.41800000000E+01 0.  1.
         -5    1    3    3    0  502 -0.58795755073E+02  0.63059083469E+02 -0.14052426625E+02  0.87454742104E+02  0.41800000000E+01 0.  1.
        -11    1    1    2    0    0  0.34636292432E+01 -0.28354360345E+02 -0.32226744998E+02  0.43064249341E+02  0.00000000000E+00 0. -1.
         11    1    1    2    0    0  0.10803980784E+03  0.26517693690E+02 -0.44551588694E+02  0.11983585528E+03  0.00000000000E+00 0.  1.
</event>
<event>
 7    1  0.2842702E-009  0.1705428E+03  0.7561462E-02  0.1177283E+00
          1   -1    0    0  501    0  0.00000000000E+00  0.00000000000E+00  0.12345661912E+03  0.12345661912E+03  0.00000000000E+00 0. -1.
         -1   -1    0    0    0  501 -0.00000000000E+00 -0.00000000000E+00 -0.34849745672E+03  0.34849745672E+03  0.00000000000E+00 0.  1.
         25    2    1    2    0    0  0.29758764977E+02 -0.14358185901E+03 -0.23237393272E+03  0.30190357006E+03  0.12508711637E+03 0.  0.
          5    1    3    3  502    0  0.65672293119E+02 -0.59637173240E+02 -0.16826049557E+03  0.19025905835E+03  0.41800000000E+01 0. -1.
         -5    1    3    3    0  502 -0.35913528142E+02 -0.83944685766E+02 -0.64113437146E+02  0.11164451171E+03  0.41800000000E+01 0. -1.
        -11    1    1    2    0    0 -0.50082194737E+02  0.82590304500E+02 -0.22503758066E+02  0.99175620765E+02  0.00000000000E+00 0.  1.
         11    1    1    2    0    0  0.20323429760E+02  0.60991554506E+02  0.29836853176E+02  0.70874885014E+02  0.00000000000E+00 0. -1.
</event>
<event>
 7    1  0.2842702E-009  0.1267583E+03  0.7561462E-02  0.1232347E+00
          4   -1    0    0  501    0  0.00000000000E+00  0.00000000000E+00  0.10996533173E+03  0.10996533173E+03  0.00000000000E+00 0.  1.
         -4   -1    0    0    0  501 -0.00000000000E+00 -0.00000000000E+00 -0.18995221025E+03  0.18995221025E+03  0.00000000000E+00 0. -1.
         25    2    1    2    0    0 -0.63603269924E+02 -0.70105381575E+02 -0.29807966394E+02  0.15967569835E+03  0.12509066038E+03 0.  0.
          5    1    3    3  502    0 -0.71114648367E+01  0.35797930356E+02 -0.83401926701E+01  0.37670890136E+02  0.41800000000E+01 0.  1.
         -5    1    3    3    0  502 -0.56491805087E+02 -0.10590331193E+03 -0.21467773724E+02  0.12200480822E+03  0.41800000000E+01 0.  1.
        -11    1    1    2    0    0  0.33120158605E+02  0.22110678438E+02  0.24216449806E+02  0.46607547117E+02  0.00000000000E+00 0.  1.
         11    1    1    2    0    0  0.30483111318E+02  0.47994703136E+02 -0.74395361937E+02  0.93634296508E+02  0.00000000000E+00 0. -1.
</event>
<event>
 7    1  0.2842702E-009  0.1170708E+03  0.7561462E-02  0.1248009E+00
         -1   -1    0    0    0  501 -0.00000000000E+00  0.00000000000E+00  0.23955649165E+03  0.23955649165E+03  0.00000000000E+00 0.  1.
          1   -1    0    0  501    0  0.00000000000E+00 -0.00000000000E+00 -0.82971525794E+02  0.82971525794E+02  0.00000000000E+00 0. -1.
         25    2    1    2    0    0  0.33963211983E+02  0.49644391070E+02  0.93628658485E+01  0.13911779559E+03  0.12509209591E+03 0.  0.
          5    1    3    3  502    0  0.68096980884E+02  0.70411607085E+02  0.82013604777E+00  0.98046612593E+02  0.41800000000E+01 0. -1.
         -5    1    3    3    0  502 -0.34133768901E+02 -0.20767216015E+02  0.85427298008E+01  0.41071182998E+02  0.41800000000E+01 0. -1.
        -11    1    1    2    0    0 -0.43417301389E+02 -0.64837029893E+02  0.14591403652E+03  0.16546845185E+03  0.00000000000E+00 0.  1.
         11    1    1    2    0    0  0.94540894063E+01  0.15192638823E+02  0.13080634958E+01  0.17941770008E+02  0.00000000000E+00 0. -1.
</event>
<event>
 7    1  0.2842702E-009  0.1539069E+03  0.7561462E-02  0.1195753E+00
          2   -1    0    0  501    0  0.00000000000E+00  0.00000000000E+00  0.11995570366E+04  0.11995570366E+04  0.00000000000E+00 0. -1.
         -2   -1    0    0    0  501 -0.00000000000E+00 -0.00000000000E+00 -0.28627017470E+02  0.28627017470E+02  0.00000000000E+00 0.  1.
         25    2    1    2    0    0 -0.83660295141E+02 -0.10375343312E+03  0.37829037324E+03  0.42013547996E+03  0.12508555138E+03 0.  0.
          5    1    3    3  502    0 -0.19006321520E+01 -0.69451733500E+02  0.27628606297E+03  0.28491861414E+03  0.41800000000E+01 0.  1.
         -5    1    3    3    0  502 -0.81759662989E+02 -0.34301699622E+02  0.10200431027E+03  0.13521686582E+03  0.41800000000E+01 0.  1.
        -11    1    1    2    0    0  0.93941516204E+02  0.79356470146E+02  0.72602222855E+03  0.73636318089E+03  0.00000000000E+00 0. -1.
         11    1    1    2    0    0 -0.10281221063E+02  0.24396962975E+02  0.66617417371E+02  0.71685393255E+02  0.00000000000E+00 0.  1.
</event>
<event>
 7    1  0.2842702E-009  0.1106356E+03  0.7561462E-02  0.1259397E+00
          1   -1    0    0  501    0  0.00000000000E+00  0.00000000000E+00  0.41533561573E+02  0.41533561573E+02  0.00000000000E+00 0. -1.
         -1   -1    0    0    0  501 -0.00000000000E+00 -0.00000000000E+00 -0.73361175747E+03  0.73361175747E+03  0.00000000000E+00 0.  1.
         25    2    1    2    0    0  0.35133163761E+02 -0.10009707433E+03 -0.55806789362E+03  0.58167100943E+03  0.12509047062E+03 0.  0.
          5    1    3    3  502    0  0.22359671938E+02 -0.96267769678E+02 -0.19802259784E+03  0.22135460253E+03  0.41800000000E+01 0. -1.
         -5    1    3    3    0  502  0.12773491824E+02 -0.38293046569E+01 -0.36004529578E+03  0.36031640690E+03  0.41800000000E+01 0. -1.
        -11    1    1    2    0    0 -0.12390955470E+02  0.67520412707E+02 -0.13740581167E+03  0.15359980140E+03  0.00000000000E+00 0.  1.
         11    1    1    2    0    0 -0.22742208292E+02  0.32576661627E+02  0.33955093945E+01  0.39874508208E+02  0.00000000000E+00 0. -1.
</event>
<event>
 7    1  0.2842702E-009  0.1089875E+03  0.7561462E-02  0.1262456E+00
         -1   -1    0    0    0  501 -0.00000000000E+00  0.00000000000E+00  0.44642249328E+02  0.44642249328E+02  0.00000000000E+00 0.  1.
          1   -1    0    0  501    0  0.00000000000E+00 -0.00000000000E+00 -0.27419344142E+03  0.27419344142E+03  0.00000000000E+00 0. -1.
         25    2    1    2    0    0 -0.18570339957E+02  0.87380373540E+01 -0.11730117462E+03  0.17272441274E+03  0.12511173552E+03 0.  0.
          5    1    3    3  502    0  0.47025482676E+02  0.31136542751E+02 -0.62299198089E+02  0.84140019004E+02  0.41800000000E+01 0.  1.
         -5    1    3    3    0  502 -0.65595822632E+02 -0.22398505397E+02 -0.55001976529E+02  0.88584393732E+02  0.41800000000E+01 0.  1.
        -11    1    1    2    0    0  0.24793260727E+02 -0.47041296458E+02 -0.77702629959E+02  0.94155658632E+02  0.00000000000E+00 0. -1.
         11    1    1    2    0    0 -0.62229207700E+01  0.38303259104E+02 -0.34547387512E+02  0.51955619376E+02  0.00000000000E+00 0.  1.
</event>
<event>
 7    1  0.2842702E-009  0.7567043E+02  0.7561462E-02  0.1341807E+00
         -2   -1    0    0    0  501 -0.00000000000E+00  0.00000000000E+00  0.18760350614E+02  0.18760350614E+02  0.00000000000E+00 0.  1.
          2   -1    0    0  501    0  0.00000000000E+00 -0.00000000000E+00 -0.82605631111E+03  0.82605631111E+03  0.00000000000E+00 0. -1.
         25    2    1    2    0    0 -0.38709836530E+02  0.10994311426E+02 -0.29611494045E+03  0.32396106597E+03  0.12508951987E+03 0.  0.
          5    1    3    3  502    0 -0.18374574539E+01  0.13477317958E+02 -0.28470256008E+03  0.28505794931E+03  0.41800000000E+01 0. -1.
         -5    1    3    3    0  502 -0.36872379076E+02 -0.24830065324E+01 -0.11412380367E+02  0.38903116660E+02  0.41800000000E+01 0. -1.
        -11    1    1    2    0    0  0.49166375407E+01 -0.48894773121E+02 -0.25342354197E+03  0.25814407564E+03  0.00000000000E+00 0.  1.
         11    1    1    2    0    0  0.33793198989E+02  0.37900461696E+02 -0.25775747808E+03  0.26271152011E+03  0.00000000000E+00 0. -1.
</event>
<event>
 7    1  0.2842702E-009  0.1234390E+03  0.7561462E-02  0.1237529E+00
         -1   -1    0    0    0  501 -0.00000000000E+00  0.00000000000E+00  0.54546236465E+02  0.54546236465E+02  0.00000000000E+00 0.  1.
          1   -1    0    0  501    0  0.00000000000E+00 -0.00000000000E+00 -0.42605302500E+03  0.42605302500E+03  0.00000000000E+00 0. -1.
         25    2    1    2    0    0 -0.73145131856E+02  0.77114293488E+02 -0.22093591574E+03  0.27523999916E+03  0.12509018226E+03 0.  0.
          5    1    3    3  502    0 -0.41876694773E+02  0.88342752539E+02 -0.22106478444E+03  0.24175444320E+03  0.41800000000E+01 0.  1.
         -5    1    3    3    0  502 -0.31268437083E+02 -0.11228459051E+02  0.12886869974E+00  0.33485555952E+02  0.41800000000E+01 0.  1.
        -11    1    1    2    0    0  0.43438774520E+02 -0.13762031683E+02 -0.12118359014E+03  0.12946730540E+03  0.00000000000E+00 0. -1.
         11    1    1    2    0    0  0.29706357335E+02 -0.63352261806E+02 -0.29387282662E+02  0.75891956915E+02  0.00000000000E+00 0.  1.
</event>
<event>
 7    1  0.2842702E-009  0.1252915E+03  0.7561462E-02  0.1234614E+00
          2   -1    0    0  501    0  0.00000000000E+00  0.00000000000E+00  0.64332028973E+03  0.64332028973E+03  0.00000000000E+00 0.  1.
         -2   -1    0    0    0  501 -0.00000000000E+00 -0.00000000000E+00 -0.33772813793E+02  0.33772813793E+02  0.00000000000E+00 0. -1.
         25    2    1    2    0    0  0.68569633840E+02  0.49591203058E+02  0.43900324987E+03  0.46425383653E+03  0.12508672684E+03 0.  0.
          5    1    3    3  502    0  0.42597601009E+02 -0.22384413162E+02  0.31353752344E+03  0.31723629769E+03  0.41800000000E+01 0.  1.
         -5    1    3    3    0  502  0.25972032831E+02  0.71975616219E+02  0.12546572642E+03  0.14701753884E+03  0.41800000000E+01 0.  1.
        -11    1    1    2    0    0  0.22422365165E+02 -0.19773402203E+02  0.56547541760E+02  0.63963852084E+02  0.00000000000E+00 0.  1.
         11    1    1    2    0    0 -0.90991999006E+02 -0.29817800855E+02  0.11399668431E+03  0.14887541491E+03  0.00000000000E+00 0. -1.
</event>
<event>
 7    1  0.2842702E-009  0.1455835E+03  0.7561462E-02  0.1206007E+00
         -4   -1    0    0    0  501 -0.00000000000E+00  0.00000000000E+00  0.13899486125E+04  0.13899486125E+04  0.00000000000E+00 0.  1.
          4   -1    0    0  501    0  0.00000000000E+00 -0.00000000000E+00 -0.20998252176E+02  0.20998252176E+02  0.00000000000E+00 0. -1.
         25    2    1    2    0    0 -0.81844627553E+02 -0.71417025578E+02  0.10447246500E+04  0.10577800640E+04  0.12510049898E+03 0.  0.
          5    1    3    3  502    0 -0.14511024905E+02 -0.90407648539E+02  0.47520106765E+03  0.48396037013E+03  0.41800000000E+01 0.  1.
         -5    1    3    3    0  502 -0.67333602648E+02  0.18990622961E+02  0.56952358233E+03  0.57381969384E+03  0.41800000000E+01 0.  1.
        -11    1    1    2    0    0  0.37718277786E+01  0.47667553027E+02  0.19134155490E+03  0.19722579174E+03  0.00000000000E+00 0.  1.
         11    1    1    2    0    0  0.78072799775E+02  0.23749472551E+02  0.13288415545E+03  0.15594100898E+03  0.00000000000E+00 0. -1.
</event>
<event>
 7    1  0.2842702E-009  0.1027038E+03  0.7561462E-02  0.1274711E+00
         -1   -1    0    0    0  501 -0.00000000000E+00  0.00000000000E+00  0.51622370051E+02  0.51622370051E+02  0.00000000000E+00 0.  1.
          1   -1    0    0  501    0  0.00000000000E+00 -0.00000000000E+00 -0.32354831702E+03  0.32354831702E+03  0.00000000000E+00 0. -1.
         25    2    1    2    0    0 -0.38733062217E+02  0.24753464899E+01 -0.23883087566E+03  0.27238588103E+03  0.12508998188E+03 0.  0.
          5    1    3    3  502    0 -0.15632873625E+02 -0.58748340172E+02 -0.15057637526E+03  0.16243913137E+03  0.41800000000E+01 0. -1.
         -5    1    3    3    0  502 -0.23100188592E+02  0.61223686662E+02 -0.88254500399E+02  0.10994674967E+03  0.41800000000E+01 0. -1.
        -11    1    1    2    0    0  0.57936572871E+02  0.53105331946E+01  0.60502037843E+01  0.58493189387E+02  0.00000000000E+00 0.  1.
         11    1    1    2    0    0 -0.19203510654E+02 -0.77858796845E+01 -0.39145275090E+02  0.44291616653E+02  0.00000000000E+00 0. -1.
</event>
<event>
 7    1  0.2842702E-009  0.8972085E+02  0.7561462E-02  0.1303529E+00
          2   -1    0    0  501    0  0.00000000000E+00  0.00000000000E+00  0.12632190323E+03  0.12632190323E+03  0.00000000000E+00 0. -1.
         -2   -1    0    0    0  501 -0.00000000000E+00 -0.00000000000E+00 -0.16473945615E+03  0.16473945615E+03  0.00000000000E+00 0.  1.
         25    2    1    2    0    0 -0.57850405370E+02 -0.58802228236E+01 -0.96482749295E+02  0.16833507209E+03  0.12508608701E+03 0.  0.
          5    1    3    3  502    0 -0.41020575457E+02 -0.23485592972E+02  0.18347471323E+02  0.50875954950E+02  0.41800000000E+01 0. -1.
         -5    1    3    3    0  502 -0.16829829913E+02  0.17605370149E+02 -0.11483022062E+03  0.11745911714E+03  0.41800000000E+01 0. -1.
        -11    1    1    2    0    0  0.61765501488E+02  0.39574870092E+02  0.32416165246E+02  0.80199471857E+02  0.00000000000E+00 0. -1.
         11    1    1    2    0    0 -0.39150961176E+01 -0.33694647269E+02  0.25649031131E+02  0.42526815424E+02  0.00000000000E+00 0.  1.
</event>
<event>
 7    1  0.2842702E-009  0.8805676E+02  0.7561462E-02  0.1307627E+00
          1   -1    0    0  501    0  0.00000000000E+00  0.00000000000E+00  0.29732533422E+03  0.29732533422E+03  0.00000000000E+00 0. -1.
         -1   -1    0    0    0  501 -0.00000000000E+00 -0.00000000000E+00 -0.43450954602E+02  0.43450954602E+02  0.00000000000E+00 0.  1.
         25    2    1    2    0    0  0.31960228123E+02  0.19056863754E+02  0.14961195222E+03  0.19853293272E+03  0.12508784470E+03 0.  0.
          5    1    3    3  502    0 -0.32228886694E+02 -0.39648119918E+01 -0.14162101141E+01  0.32770397049E+02  0.41800000000E+01 0.  1.
         -5    1    3    3    0  502  0.64189114817E+02  0.23021675746E+02  0.15102816234E+03  0.16576253568E+03  0.41800000000E+01 0.  1.
        -11    1    1    2    0    0 -0.34055318857E+02  0.17601380164E+02  0.79248102730E+01  0.39145573747E+02  0.00000000000E+00 0.  1.
         11    1    1    2    0    0  0.20950907337E+01 -0.36658243918E+02  0.96337617123E+02  0.10309778235E+03  0.00000000000E+00 0. -1.
</event>
<event>
 7    1  0.2842702E-009  0.1622101E+03  0.7561462E-02  0.1186224E+00
          2   -1    0    0  501    0  0.00000000000E+00  0.00000000000E+00  0.11736212919E+04  0.11736212919E+04  0.00000000000E+00 0. -1.
         -2   -1    0    0    0  501 -0.00000000000E+00 -0.00000000000E+00 -0.33098971053E+02  0.33098971053E+02  0.00000000000E+00 0.  1.
         25    2    1    2    0    0 -0.71175143546E+02 -0.14037288225E+03  0.73649776725E+03  0.76344376957E+03  0.12508789312E+03 0.  0.
          5    1    3    3  502    0 -0.50872379619E+02 -0.67570975546E+02  0.61132989213E+03  0.61716735587E+03  0.41800000000E+01 0. -1.
         -5    1    3    3    0  502 -0.20302763927E+02 -0.72801906701E+02  0.12516787512E+03  0.14627641370E+03  0.41800000000E+01 0. -1.
        -11    1    1    2    0    0  0.40195570440E+02  0.32149499997E+02  0.23237308479E+03  0.23800530408E+03  0.00000000000E+00 0. -1.
         11    1    1    2    0    0  0.30979573106E+02  0.10822338225E+03  0.17165146882E+03  0.20527118931E+03  0.00000000000E+00 0.  1.
</event>
<event>
 7    1  0.2842702E-009  0.1098233E+03  0.7561462E-02  0.1260897E+00
         -2   -1    0    0    0  501 -0.00000000000E+00  0.00000000000E+00  0.94204040594E+02  0.94204040594E+02  0.00000000000E+00 0.  1.
          2   -1    0    0  501    0  0.00000000000E+00 -0.00000000000E+00 -0.14964096146E+03  0.14964096146E+03  0.00000000000E+00 0. -1.
         25    2    1    2    0    0  0.27443273107E+02 -0.27063783213E+02 -0.45164250700E+02  0.13846487175E+03  0.12508848694E+03 0.  0.
          5    1    3    3  502    0 -0.36070298940E+02  0.28596455239E+02 -0.18774231997E+02  0.49887552606E+02  0.41800000000E+01 0.  1.
         -5    1    3    3    0  502  0.63513572048E+02 -0.55660238452E+02 -0.26390018703E+02  0.88577319140E+02  0.41800000000E+01 0.  1.
        -11    1    1    2    0    0 -0.32161644969E+02 -0.22393545711E+02  0.23136468446E+02  0.45509762346E+02  0.00000000000E+00 0.  1.
         11    1    1    2    0    0  0.47183718622E+01  0.49457328924E+02 -0.33409138616E+02  0.59870367966E+02  0.00000000000E+00 0. -1.
</event>
<event>
 7    1  0.2842702E-009  0.9893206E+02  0.7561462E-02  0.1282558E+00
         -2   -1    0    0    0  501 -0.00000000000E+00  0.00000000000E+00  0.26463713949E+02  0.26463713949E+02  0.00000000000E+00 0.  1.
          2   -1    0    0  501    0  0.00000000000E+00 -0.00000000000E+00 -0.50273966893E+03  0.50273966893E+03  0.00000000000E+00 0. -1.
         25    2    1    2    0    0 -0.10881722490E+02  0.27250264167E+01 -0.18006468999E+03  0.21953676828E+03  0.12508901786E+03 0.  0.
          5    1    3    3  502    0  0.22296999752E+02  0.48841054780E+02 -0.36426333677E+02  0.65015036839E+02  0.41800000000E+01 0. -1.
         -5    1    3    3    0  502 -0.33178722242E+02 -0.46116028364E+02 -0.14363835632E+03  0.15452173144E+03  0.41800000000E+01 0. -1.
        -11    1    1    2    0    0  0.44588528461E+02 -0.20347070502E+02 -0.12464368070E+03  0.13393351816E+03  0.00000000000E+00 0.  1.
         11    1    1    2    0    0 -0.33706805971E+02  0.17622044085E+02 -0.17156758429E+03  0.17573309645E+03  0.00000000000E+00 0. -1.
</event>
<event>
 7    1  0.2842702E-009  0.1769472E+03  0.7561462E-02  0.1170791E+00
          2   -1    0    0  501    0  0.00000000000E+00  0.00000000000E+00  0.63974931471E+02  0.63974931471E+02  0.00000000000E+00 0.  1.
         -2   -1    0    0    0  501 -0.00000000000E+00 -0.00000000000E+00 -0.56057552974E+03  0.56057552974E+03  0.00000000000E+00 0. -1.
         25    2    1    2    0    0 -0.15259852105E+03  0.15434469901E+02 -0.31080673026E+03  0.36847331661E+03  0.12508888838E+03 0.  0.
          5    1    3    3  502    0 -0.92288989534E+02  0.62405142922E+02 -0.12489240773E+03  0.16741339660E+03  0.41800000000E+01 0. -1.
         -5    1    3    3    0  502 -0.60309531518E+02 -0.46970673021E+02 -0.18591432252E+03  0.20105992001E+03  0.41800000000E+01 0. -1.
        -11    1    1    2    0    0  0.47421918400E+02  0.24465385615E+02 -0.22785922988E+02  0.58022338150E+02  0.00000000000E+00 0.  1.
         11    1    1    2    0    0  0.10517660265E+03 -0.39899855516E+02 -0.16300794503E+03  0.19805480645E+03  0.00000000000E+00 0. -1.
</event>
<event>
 7    1  0.2842702E-009  0.9957284E+02  0.7561462E-02  0.1281197E+00
          1   -1    0    0  501    0  0.00000000000E+00  0.00000000000E+00  0.49668709000E+02  0.49668709000E+02  0.00000000000E+00 0. -1.
         -1   -1    0    0    0  501 -0.00000000000E+00 -0.00000000000E+00 -0.34046528260E+03  0.34046528260E+03  0.00000000000E+00 0.  1.
         25    2    1    2    0    0 -0.14364719231E+02  0.66875541780E+02 -0.19405975125E+03  0.24080217162E+03  0.12509122894E+03 0.  0.
          5    1    3    3  502    0 -0.36564116262E+02 -0.98648046216E+00 -0.15499266665E+03  0.15930507480E+03  0.41800000000E+01 0.  1.
         -5    1    3    3    0  502  0.22199397030E+02  0.67862022242E+02 -0.39067084597E+02  0.81497096821E+02  0.41800000000E+01 0.  1.
        -11    1    1    2    0    0  0.37565586520E+02 -0.34702935460E+02 -0.75158539840E+01  0.51690957442E+02  0.00000000000E+00 0. -1.
         11    1    1    2    0    0 -0.23200867289E+02 -0.32172606320E+02 -0.89220968368E+02  0.97640862537E+02  0.00000000000E+00 0.  1.
</event>
<event>
 7    1  0.2842702E-009  0.2352112E+03  0.7561462E-02  0.1123025E+00
          2   -1    0    0  501    0  0.00000000000E+00  0.00000000000E+00  0.94205929788E+03  0.94205929788E+03  0.00000000000E+00 0. -1.
         -2   -1    0    0    0  501 -0.00000000000E+00 -0.00000000000E+00 -0.66171689488E+02  0.66171689488E+02  0.00000000000E+00 0.  1.
         25    2    1    2    0    0  0.16118312373E+03 -0.13778026456E+03  0.60084434698E+03  0.64932581250E+03  0.12508669317E+03 0.  0.
          5    1    3    3  502    0  0.18171197076E+03 -0.13132702863E+03  0.55015854669E+03  0.59410262385E+03  0.41800000000E+01 0.  1.
         -5    1    3    3    0  502 -0.20528847031E+02 -0.64532359352E+01  0.50685800289E+02  0.55223188656E+02  0.41800000000E+01 0.  1.
        -11    1    1    2    0    0 -0.13912692410E+02  0.52001792892E+02  0.33904385730E+02  0.63618054401E+02  0.00000000000E+00 0. -1.
         11    1    1    2    0    0 -0.14727043132E+03  0.85778471673E+02  0.24113887569E+03  0.29528712046E+03  0.00000000000E+00 0.  1.
</event>
<event>
 7    1  0.2842702E-009  0.1269242E+03  0.7561462E-02  0.1232092E+00
         -2   -1    0    0    0  501 -0.00000000000E+00  0.00000000000E+00  0.19907055923E+02  0.19907055923E+02  0.00000000000E+00 0.  1.
          2   -1    0    0  501    0  0.00000000000E+00 -0.00000000000E+00 -0.10489511904E+04  0.10489511904E+04  0.00000000000E+00 0. -1.
         25    2    1    2    0    0  0.26637102383E+02 -0.63387156914E+02 -0.73105936880E+03  0.74486419540E+03  0.12508957585E+03 0.  0.
          5    1    3    3  502    0  0.16791617646E+02  0.35570112649E+02 -0.29181607024E+03  0.29448477479E+03  0.41800000000E+01 0.  1.
         -5    1    3    3    0  502  0.98454847374E+01 -0.98957269563E+02 -0.43924329857E+03  0.45037942061E+03  0.41800000000E+01 0.  1.
        -11    1    1    2    0    0  0.33094777284E+02  0.36453749127E+02 -0.62502393667E+02  0.79565629031E+02  0.00000000000E+00 0. -1.
         11    1    1    2    0    0 -0.59731879668E+02  0.26933407787E+02 -0.23548237201E+03  0.24442842190E+03  0.00000000000E+00 0.  1.
</event>
<event>
 7    1  0.2842702E-009  0.5614033E+02  0.7561462E-02  0.1414782E+00
          1   -1    0    0  501    0  0.00000000000E+00  0.00000000000E+00  0.65904664593E+03  0.65904664593E+03  0.00000000000E+00 0. -1.
         -1   -1    0    0    0  501 -0.00000000000E+00 -0.00000000000E+00 -0.45922448931E+02  0.45922448931E+02  0.00000000000E+00 0.  1.
         25    2    1    2    0    0 -0.40840416686E+01 -0.14986175150E+02  0.58295567570E+03  0.59642792238E+03  0.12509069476E+03 0.  0.
          5    1    3    3  502    0  0.15554838562E+02  0.18414590078E+02  0.18610618404E+02  0.30738862175E+02  0.41800000000E+01 0.  1.
         -5    1    3    3    0  502 -0.19638880231E+02 -0.33400765228E+02  0.56434505730E+03  0.56568906020E+03  0.41800000000E+01 0.  1.
        -11    1    1    2    0    0 -0.14625605857E+02  0.23977843271E+02 -0.32247481645E+02  0.42763832698E+02  0.00000000000E+00 0.  1.
         11    1    1    2    0    0  0.18709647526E+02 -0.89916681214E+01  0.62416002940E+02  0.65777339784E+02  0.00000000000E+00 0. -1.
</event>
<event>
 7    1  0.2842702E-009  0.8083587E+02  0.7561462E-02  0.1326696E+00
         -1   -1    0    0    0  501 -0.00000000000E+00  0.00000000000E+00  0.32518445696E+03  0.32518445696E+03  0.00000000000E+00 0.  1.
          1   -1    0    0  501    0  0.00000000000E+00 -0.00000000000E+00 -0.39874337178E+02  0.39874337178E+02  0.00000000000E+00 0. -1.
         25    2    1    2    0    0 -0.22045786352E+02  0.66075438311E+01  0.11276341684E+03  0.16997691984E+03  0.12508752443E+03 0.  0.
          5    1    3    3  502    0 -0.27083725638E+01  0.47231008505E+02 -0.10685484762E+01  0.47504922295E+02  0.41800000000E+01 0.  1.
         -5    1    3    3    0  502 -0.19337413788E+02 -0.40623464674E+02  0.11383196532E+03  0.12247199754E+03  0.41800000000E+01 0.  1.
        -11    1    1    2    0    0 -0.48553290129E+01  0.26155245745E+02  0.13758420557E+03  0.14013238285E+03  0.00000000000E+00 0.  1.
         11    1    1    2    0    0  0.26901115365E+02 -0.32762789576E+02  0.34962497372E+02  0.54949491455E+02  0.00000000000E+00 0. -1.
</event>
<event>
 7    1  0.2842702E-009  0.1007720E+03  0.7561462E-02  0.1278681E+00
         -1   -1    0    0    0  501 -0.00000000000E+00  0.00000000000E+00  0.28419459387E+02  0.28419459387E+02  0.00000000000E+00 0.  1.
          1   -1    0    0  501    0  0.00000000000E+00 -0.00000000000E+00 -0.56591458168E+03  0.56591458168E+03  0.00000000000E+00 0. -1.
         25    2    1    2    0    0  0.24702655765E+02  0.24824484059E+02 -0.43247109501E+03  0.45155946943E+03  0.12509288628E+03 0.  0.
          5    1    3    3  502    0 -0.28778301203E+02 -0.37632723703E+02 -0.15549831173E+03  0.16260876318E+03  0.41800000000E+01 0. -1.
         -5    1    3    3    0  502  0.53480956968E+02  0.62457207762E+02 -0.27697278329E+03  0.28895070625E+03  0.41800000000E+01 0. -1.
        -11    1    1    2    0    0 -0.45104735224E+02 -0.24321516389E+02 -0.11036276379E+03  0.12167955018E+03  0.00000000000E+00 0. -1.
         11    1    1    2    0    0  0.20402079459E+02 -0.50296767006E+00  0.53387365174E+01  0.21095021458E+02  0.00000000000E+00 0.  1.
</event>
<event>
 7    1  0.2842702E-009  0.2497139E+03  0.7561462E-02  0.1113486E+00
          1   -1    0    0  501    0  0.00000000000E+00  0.00000000000E+00  0.15928029256E+04  0.15928029256E+04  0.00000000000E+00 0. -1.
         -1   -1    0    0    0  501 -0.00000000000E+00 -0.00000000000E+00 -0.40928549502E+02  0.40928549502E+02  0.00000000000E+00 0.  1.
         25    2    1    2    0    0  0.13961082017E+03  0.18712399766E+03  0.84519056771E+03  0.88572100007E+03  0.12509205655E+03 0.  0.
          5    1    3    3  502    0  0.15870237091E+03  0.14146080571E+03  0.72851046599E+03  0.75890880450E+03  0.41800000000E+01 0. -1.
         -5    1    3    3    0  502 -0.19091550741E+02  0.45663191954E+02  0.11668010172E+03  0.12681219557E+03  0.41800000000E+01 0. -1.
        -11    1    1    2    0    0 -0.96137164091E+02 -0.94525097326E+02  0.49299438359E+03  0.51109765270E+03  0.00000000000E+00 0.  1.
         11    1    1    2    0    0 -0.43473656078E+02 -0.92598900334E+02  0.21368942481E+03  0.23691282235E+03  0.00000000000E+00 0. -1.
</event>
<event>
 7    1  0.2842702E-009  0.8995098E+02  0.7561462E-02  0.1302970E+00
          3   -1    0    0  501    0  0.00000000000E+00  0.00000000000E+00  0.10306211887E+03  0.10306211887E+03  0.00000000000E+00 0. -1.
         -3   -1    0    0    0  501 -0.00000000000E+00 -0.00000000000E+00 -0.12751489375E+03  0.12751489375E+03  0.00000000000E+00 0.  1.
         25    2    1    2    0    0 -0.33860005806E+02  0.15575709206E+02 -0.22368828168E+02  0.13243970197E+03  0.12510318731E+03 0.  0.
          5    1    3    3  502    0  0.26477222240E+02  0.13743033710E+02 -0.55724742561E+02  0.63345351895E+02  0.41800000000E+01 0.  1.
         -5    1    3    3    0  502 -0.60337228047E+02  0.18326754959E+01  0.33355914394E+02  0.69094350079E+02  0.41800000000E+01 0.  1.
        -11    1    1    2    0    0 -0.96321077457E+01 -0.38791190549E+02  0.19316978844E+02  0.44392337576E+02  0.00000000000E+00 0. -1.
         11    1    1    2    0    0  0.43492113552E+02  0.23215481343E+02 -0.21400925564E+02  0.53744973069E+02  0.00000000000E+00 0.  1.
</event>
<event>
 7    1  0.2842702E-009  0.1241770E+03  0.7561462E-02  0.1236361E+00
          2   -1    0    0  501    0  0.00000000000E+00  0.00000000000E+00  0.12387805564E+04  0.12387805564E+04  0.00000000000E+00 0. -1.
         -2   -1    0    0    0  501 -0.00000000000E+00 -0.00000000000E+00 -0.24432466423E+02  0.24432466423E+02  0.00000000000E+00 0.  1.
         25    2    1    2    0    0  0.79255495230E+02 -0.11892589525E+02  0.10427841812E+04  0.10533141560E+04  0.12509594490E+03 0.  0.
          5    1    3    3  502    0 -0.28227877814E-01  0.45729299126E+02  0.46491484556E+03  0.46717711376E+03  0.41800000000E+01 0.  1.
         -5    1    3    3    0  502  0.79283723108E+02 -0.57621888651E+02  0.57786933565E+03  0.58613704224E+03  0.41800000000E+01 0.  1.
        -11    1    1    2    0    0 -0.36874732388E+02  0.39278027879E+02  0.34834040694E+02  0.64155434328E+02  0.00000000000E+00 0.  1.
         11    1    1    2    0    0 -0.42380762842E+02 -0.27385438353E+02  0.13672986804E+03  0.14574343247E+03  0.00000000000E+00 0. -1.
</event>
<event>
 7    1  0.2842702E-009  0.2095506E+03  0.7561462E-02  0.1141922E+00
          1   -1    0    0  501    0  0.00000000000E+00  0.00000000000E+00  0.72878177840E+02  0.72878177840E+02  0.00000000000E+00 0. -1.
         -1   -1    0    0    0  501 -0.00000000000E+00 -0.00000000000E+00 -0.76807437046E+03  0.76807437046E+03  0.00000000000E+00 0.  1.
         25    2    1    2    0    0 -0.18531670882E+03 -0.31675435861E+01 -0.52836599649E+03  0.57373401058E+03  0.12509105784E+03 0.  0.
          5    1    3    3  502    0 -0.18757257382E+03 -0.35221558833E+02 -0.46176895395E+03  0.49967196028E+03  0.41800000000E+01 0.  1.
         -5    1    3    3    0  502  0.22558649982E+01  0.32054015247E+02 -0.66597042538E+02  0.74062050303E+02  0.41800000000E+01 0.  1.
        -11    1    1    2    0    0  0.12626744565E+03  0.31749109874E+02 -0.63587164053E+02  0.14489582893E+03  0.00000000000E+00 0.  1.
         11    1    1    2    0    0  0.59049263178E+02 -0.28581566288E+02 -0.10324303208E+03  0.12232270880E+03  0.00000000000E+00 0. -1.
</event>
<event>
 7    1  0.3191122E-009  0.1128216E+03  0.7561462E-02  0.1255432E+00
          4   -1    0    0  501    0  0.00000000000E+00  0.00000000000E+00  0.11634367584E+04  0.11634367584E+04  0.00000000000E+00 0. -1.
         -4   -1    0    0    0  501 -0.00000000000E+00 -0.00000000000E+00 -0.12296013888E+02  0.12296013888E+02  0.00000000000E+00 0.  1.
         25    2    1    2    0    0  0.22283903910E+02  0.25670918843E+02  0.83645350013E+03  0.84643818070E+03  0.12509023711E+03 0.  0.
          5    1    3    3  502    0 -0.17380612656E+02 -0.45016434481E+02  0.30416250907E+03  0.30799491781E+03  0.41800000000E+01 0.  1.
         -5    1    3    3    0  502  0.39664516567E+02  0.70687353324E+02  0.53229099106E+03  0.53844326289E+03  0.41800000000E+01 0.  1.
        -11    1    1    2    0    0 -0.25378966664E+02  0.30562244250E+02  0.15327670242E+03  0.15834105667E+03  0.00000000000E+00 0.  1.
         11    1    1    2    0    0  0.30950627537E+01 -0.56233163094E+02  0.16141054198E+03  0.17095353494E+03  0.00000000000E+00 0. -1.
</event>
<event>
 7    1  0.2842702E-009  0.1248926E+03  0.7561462E-02  0.1235237E+00
          2   -1    0    0  501    0  0.00000000000E+00  0.00000000000E+00  0.11634411670E+03  0.11634411670E+03  0.00000000000E+00 0. -1.
         -2   -1    0    0    0  501 -0.00000000000E+00 -0.00000000000E+00 -0.15966884114E+03  0.15966884114E+03  0.00000000000E+00 0.  1.
         25    2    1    2    0    0 -0.50982487950E+02 -0.34815096123E+02 -0.78204918210E+02  0.15992368137E+03  0.12509304391E+03 0.  0.
          5    1    3    3  502    0  0.18633829097E+02  0.35588213825E+02 -0.21747690980E+02  0.45871287458E+02  0.41800000000E+01 0.  1.
         -5    1    3    3    0  502 -0.69616317047E+02 -0.70403309948E+02 -0.56457227230E+02  0.11405239391E+03  0.41800000000E+01 0.  1.
        -11    1    1    2    0    0  0.38228433293E+01  0.57736810989E+02  0.13205225974E+02  0.59350917999E+02  0.00000000000E+00 0.  1.
         11    1    1    2    0    0  0.47159644620E+02 -0.22921714865E+02  0.21674967789E+02  0.56738358469E+02  0.00000000000E+00 0. -1.
</event>
<event>
 7    1  0.2842702E-009  0.1201399E+03  0.7561462E-02  0.1242866E+00
         -1   -1    0    0    0  501 -0.00000000000E+00  0.00000000000E+00  0.30489806620E+03  0.30489806620E+03  0.00000000000E+00 0.  1.
          1   -1    0    0  501    0  0.00000000000E+00 -0.00000000000E+00 -0.52635146370E+02  0.52635146370E+02  0.00000000000E+00 0. -1.
         25    2    1    2    0    0 -0.47383961541E+02 -0.42645110512E+02  0.16184947217E+03  0.21425358717E+03  0.12508198396E+03 0.  0.
          5    1    3    3  502    0 -0.82356194162E+02 -0.50537469273E+02  0.82663886544E+02  0.12722959190E+03  0.41800000000E+01 0. -1.
         -5    1    3    3    0  502  0.34972232620E+02  0.78923587610E+01  0.79185585630E+02  0.87023995270E+02  0.41800000000E+01 0. -1.
        -11    1    1    2    0    0 -0.22491721335E+02  0.28277105510E+02  0.14017860951E+02  0.38755291900E+02  0.00000000000E+00 0. -1.
         11    1    1    2    0    0  0.69875682876E+02  0.14368005002E+02  0.76395586705E+02  0.10452433350E+03  0.00000000000E+00 0.  1.
</event>
<event>
 7    1  0.2842702E-009  0.1036224E+03  0.7561462E-02  0.1272858E+00
          1   -1    0    0  501    0  0.00000000000E+00  0.00000000000E+00  0.22833534457E+03  0.22833534457E+03  0.00000000000E+00 0. -1.
         -1   -1    0    0    0  501 -0.00000000000E+00 -0.00000000000E+00 -0.63804475835E+02  0.63804475835E+02  0.00000000000E+00 0.  1.
         25    2    1    2    0    0 -0.51804031761E+02 -0.57564190552E+01  0.97717214963E+02  0.16707224690E+03  0.12509071715E+03 0.  0.
          5    1    3    3  502    0  0.23352801738E+02 -0.40735796822E+02  0.58897146167E+02  0.75439410909E+02  0.41800000000E+01 0.  1.
         -5    1    3    3    0  502 -0.75156833499E+02  0.34979377766E+02  0.38820068796E+02  0.91632835991E+02  0.41800000000E+01 0.  1.
        -11    1    1    2    0    0  0.61122239457E+02 -0.67618034699E+01  0.82528606785E+02  0.10292045997E+03  0.00000000000E+00 0. -1.
         11    1    1    2    0    0 -0.93182076959E+01  0.12518222525E+02 -0.15714953012E+02  0.22147113537E+02  0.00000000000E+00 0.  1.
</event>
<event>
 7    1  0.2842702E-009  0.4524855E+03  0.7561462E-02  0.1026983E+00
         -2   -1    0    0    0  501 -0.00000000000E+00  0.00000000000E+00  0.75817870617E+02  0.75817870617E+02  0.00000000000E+00 0.  1.
          2   -1    0    0  501    0  0.00000000000E+00 -0.00000000000E+00 -0.28646357912E+04  0.28646357912E+04  0.00000000000E+00 0. -1.
         25    2    1    2    0    0  0.41054720369E+03  0.18338852728E+03 -0.12312257228E+04  0.13167173635E+04  0.12508987339E+03 0.  0.
          5    1    3    3  502    0  0.33378575615E+03  0.17787388998E+03 -0.89266804649E+03  0.96949768714E+03  0.41800000000E+01 0.  1.
         -5    1    3    3    0  502  0.76761447538E+02  0.55146373006E+01 -0.33855767632E+03  0.34721967636E+03  0.41800000000E+01 0.  1.
        -11    1    1    2    0    0 -0.34220583335E+03 -0.15174104681E+03 -0.13982496563E+04  0.14474917199E+04  0.00000000000E+00 0.  1.
         11    1    1    2    0    0 -0.68341370338E+02 -0.31647480467E+02 -0.15934254139E+03  0.17624457841E+03  0.00000000000E+00 0. -1.
</event>
<event>
 7    1  0.2842702E-009  0.3247879E+03  0.7561462E-02  0.1073467E+00
          2   -1    0    0  501    0  0.00000000000E+00  0.00000000000E+00  0.17983291402E+04  0.17983291402E+04  0.00000000000E+00 0.  1.
         -2   -1    0    0    0  501 -0.00000000000E+00 -0.00000000000E+00 -0.76612186348E+02  0.76612186348E+02  0.00000000000E+00 0. -1.
         25    2    1    2    0    0  0.40319998520E+01 -0.31159497898E+03  0.44559523173E+03  0.55795191308E+03  0.12509012280E+03 0.  0.
          5    1    3    3  502    0 -0.32683709537E+02 -0.28913435960E+03  0.40445420615E+03  0.49826456832E+03  0.41800000000E+01 0.  1.
         -5    1    3    3    0  502  0.36715709389E+02 -0.22460619378E+02  0.41141025573E+02  0.59687344756E+02  0.41800000000E+01 0.  1.
        -11    1    1    2    0    0  0.20973885544E+02  0.94698753865E+02  0.25585444757E+03  0.27362247020E+03  0.00000000000E+00 0.  1.
         11    1    1    2    0    0 -0.25005885396E+02  0.21689622511E+03  0.10202672746E+04  0.10433669433E+04  0.00000000000E+00 0. -1.
</event>
<event>
 7    1  0.2842702E-009  0.1063100E+03  0.7561462E-02  0.1267560E+00
          1   -1    0    0  501    0  0.00000000000E+00  0.00000000000E+00  0.48836959316E+03  0.48836959316E+03  0.00000000000E+00 0. -1.
         -1   -1    0    0    0  501 -0.00000000000E+00 -0.00000000000E+00 -0.28213393075E+02  0.28213393075E+02  0.00000000000E+00 0.  1.
         25    2    1    2    0    0 -0.40239684999E+02 -0.14965517676E+02  0.23169503859E+03  0.26678348413E+03  0.12509051734E+03 0.  0.
          5    1    3    3  502    0  0.20772829487E+02  0.41341923257E+02  0.58759986048E+02  0.74905763622E+02  0.41800000000E+01 0. -1.
         -5    1    3    3    0  502 -0.61012514486E+02 -0.56307440933E+02  0.17293505254E+03  0.19187772051E+03  0.41800000000E+01 0. -1.
        -11    1    1    2    0    0 -0.66095626671E+01 -0.22244893388E+02  0.13894295181E+02  0.27047606901E+02  0.00000000000E+00 0.  1.
         11    1    1    2    0    0  0.46849247666E+02  0.37210411063E+02  0.21456686631E+03  0.22275189521E+03  0.00000000000E+00 0. -1.
</event>
<event>
 7    1  0.2842702E-009  0.1765367E+03  0.7561462E-02  0.1171198E+00
          2   -1    0    0  501    0  0.00000000000E+00  0.00000000000E+00  0.11259975032E+04  0.11259975032E+04  0.00000000000E+00 0.  1.
         -2   -1    0    0    0  501 -0.00000000000E+00 -0.00000000000E+00 -0.36472926614E+02  0.36472926614E+02  0.00000000000E+00 0. -1.
         25    2    1    2    0    0 -0.15368883587E+03  0.47057846465E+02  0.64794551198E+03  0.67920939252E+03  0.12512918607E+03 0.  0.
          5    1    3    3  502    0 -0.14883348772E+03  0.65566035083E+02  0.41975681362E+03  0.45018170443E+03  0.41800000000E+01 0.  1.
         -5    1    3    3    0  502 -0.48553481486E+01 -0.18508188618E+02  0.22818869836E+03  0.22902768809E+03  0.41800000000E+01 0.  1.
        -11    1    1    2    0    0  0.94690777493E+02 -0.57646486902E+02  0.15550344196E+03  0.19097324749E+03  0.00000000000E+00 0. -1.
         11    1    1    2    0    0  0.58998058379E+02  0.10588640437E+02  0.28607562263E+03  0.29228778980E+03  0.00000000000E+00 0.  1.
</event>
<event>
 7    1  0.2842702E-009  0.1058569E+03  0.7561462E-02  0.1268440E+00
         -1   -1    0    0    0  501 -0.00000000000E+00  0.00000000000E+00  0.38020053313E+02  0.38020053313E+02  0.00000000000E+00 0.  1.
          1   -1    0    0  501    0  0.00000000000E+00 -0.00000000000E+00 -0.38333570087E+03  0.38333570087E+03  0.00000000000E+00 0. -1.
         25    2    1    2    0    0 -0.70542220107E+01 -0.40833329977E+02 -0.25349903416E+03  0.28570489539E+03  0.12509358115E+03 0.  0.
          5    1    3    3  502    0 -0.62500697147E+02  0.24248539436E+00 -0.11901882818E+03  0.13449665351E+03  0.41800000000E+01 0.  1.
         -5    1    3    3    0  502  0.55446475137E+02 -0.41075815372E+02 -0.13448020598E+03  0.15120824188E+03  0.41800000000E+01 0.  1.
        -11    1    1    2    0    0  0.31967752810E+02 -0.16509958459E+00  0.99168275369E-01  0.31968332955E+02  0.00000000000E+00 0.  1.
         11    1    1    2    0    0 -0.24913530799E+02  0.40998429562E+02 -0.91915781671E+02  0.10368252584E+03  0.00000000000E+00 0. -1.
</event>
<event>
 7    1  0.2842702E-009  0.1491552E+03  0.7561462E-02  0.1201515E+00
          2   -1    0    0  501    0  0.00000000000E+00  0.00000000000E+00  0.98425805073E+03  0.98425805073E+03  0.00000000000E+00 0. -1.
         -2   -1    0    0    0  501 -0.00000000000E+00 -0.00000000000E+00 -0.26067545850E+02  0.26067545850E+02  0.00000000000E+00 0.  1.
         25    2    1    2    0    0 -0.40398847674E+01 -0.11606211099E+03  0.56559355091E+03  0.59078658082E+03  0.12508391171E+03 0.  0.
          5    1    3    3  502    0 -0.20432768039E+02  0.16052072510E+02  0.19926860548E+03  0.20099904619E+03  0.41800000000E+01 0. -1.
         -5    1    3    3    0  502  0.16392883271E+02 -0.13211418350E+03  0.36632494544E+03  0.38978753463E+03  0.41800000000E+01 0. -1.
        -11    1    1    2    0    0  0.25153337135E+02  0.48700047403E+01  0.28816016397E+02  0.38558658123E+02  0.00000000000E+00 0.  1.
         11    1    1    2    0    0 -0.21113452367E+02  0.11119210625E+03  0.36378093757E+03  0.38098035763E+03  0.00000000000E+00 0. -1.
</event>
<event>
 7    1  0.2842702E-009  0.9839044E+02  0.7561462E-02  0.1283717E+00
          2   -1    0    0  501    0  0.00000000000E+00  0.00000000000E+00  0.91268970782E+03  0.91268970782E+03  0.00000000000E+00 0. -1.
         -2   -1    0    0    0  501 -0.00000000000E+00 -0.00000000000E+00 -0.16070147412E+02  0.16070147412E+02  0.00000000000E+00 0.  1.
         25    2    1    2    0    0 -0.35183305563E+02  0.29961579905E+02  0.62673317566E+03  0.64076346031E+03  0.12509107614E+03 0.  0.
          5    1    3    3  502    0 -0.23424216621E+02 -0.38121673030E+02  0.42737008886E+03  0.42972621648E+03  0.41800000000E+01 0. -1.
         -5    1    3    3    0  502 -0.11759088942E+02  0.68083252936E+02  0.19936308680E+03  0.21103724383E+03  0.41800000000E+01 0. -1.
        -11    1    1    2    0    0 -0.15437566682E+02 -0.27991199320E+02  0.33743131462E+02  0.46480368171E+02  0.00000000000E+00 0.  1.
         11    1    1    2    0    0  0.50620872246E+02 -0.19703805847E+01  0.23614325329E+03  0.24151602676E+03  0.00000000000E+00 0. -1.
</event>
<event>
 7    1  0.2842702E-009  0.2095290E+03  0.7561462E-02  0.1141939E+00
         -3   -1    0    0    0  501 -0.00000000000E+00  0.00000000000E+00  0.98338536118E+02  0.98338536118E+02  0.00000000000E+00 0.  1.
          3   -1    0    0  501    0  0.00000000000E+00 -0.00000000000E+00 -0.58680756732E+03  0.58680756732E+03  0.00000000000E+00 0. -1.
         25    2    1    2    0    0  0.17842368649E+03 -0.69122465863E+02 -0.38739850635E+03  0.44981959649E+03  0.12508852656E+03 0.  0.
          5    1    3    3  502    0  0.19696864893E+03 -0.60812883050E+02 -0.33379282827E+03  0.39233911353E+03  0.41800000000E+01 0.  1.
         -5    1    3    3    0  502 -0.18544962439E+02 -0.83095828131E+01 -0.53605678083E+02  0.57480482958E+02  0.41800000000E+01 0. -1.
        -11    1    1    2    0    0 -0.13228501656E+03  0.42960527741E+02 -0.23047988019E+02  0.14098277306E+03  0.00000000000E+00 0.  1.
         11    1    1    2    0    0 -0.46138669931E+02  0.26161938122E+02 -0.78022536833E+02  0.94343733884E+02  0.00000000000E+00 0. -1.
</event>
<event>
 7    1  0.2842702E-009  0.1396631E+03  0.7561462E-02  0.1213783E+00
          1   -1    0    0  501    0  0.00000000000E+00  0.00000000000E+00  0.63763536649E+02  0.63763536649E+02  0.00000000000E+00 0. -1.
         -1   -1    0    0    0  501 -0.00000000000E+00 -0.00000000000E+00 -0.32958317657E+03  0.32958317657E+03  0.00000000000E+00 0.  1.
         25    2    1    2    0    0 -0.95371343143E+02  0.12417164617E+02 -0.14647096766E+03  0.21529317010E+03  0.12509007017E+03 0.  0.
          5    1    3    3  502    0  0.11666142552E+02  0.35584837882E+02 -0.76928037290E+01  0.38458174662E+02  0.41800000000E+01 0. -1.
         -5    1    3    3    0  502 -0.10703748569E+03 -0.23167673264E+02 -0.13877816393E+03  0.17683499544E+03  0.41800000000E+01 0. -1.
        -11    1    1    2    0    0  0.44803195271E+01 -0.37495431201E+02 -0.37011834191E+02  0.52875859276E+02  0.00000000000E+00 0.  1.
         11    1    1    2    0    0  0.90891023616E+02  0.25078266584E+02 -0.82336838075E+02  0.12517768385E+03  0.00000000000E+00 0. -1.
</event>
<event>
 7    1  0.2842702E-009  0.6383114E+02  0.7561462E-02  0.1382423E+00
         -2   -1    0    0    0  501 -0.00000000000E+00  0.00000000000E+00  0.43888287869E+02  0.43888287869E+02  0.00000000000E+00 0.  1.
          2   -1    0    0  501    0  0.00000000000E+00 -0.00000000000E+00 -0.30775352526E+03  0.30775352526E+03  0.00000000000E+00 0. -1.
         25    2    1    2    0    0 -0.15228169803E+02 -0.26884108183E+02 -0.18872063945E+03  0.22851144579E+03  0.12508936275E+03 0.  0.
          5    1    3    3  502    0 -0.29808862378E+02 -0.47121904019E+02 -0.22329154478E+02  0.60208850299E+02  0.41800000000E+01 0. -1.
         -5    1    3    3    0  502  0.14580692576E+02  0.20237795836E+02 -0.16639148497E+03  0.16830259549E+03  0.41800000000E+01 0. -1.
        -11    1    1    2    0    0 -0.70044537242E+01  0.22799568410E+02  0.16328871535E+02  0.28905271791E+02  0.00000000000E+00 0.  1.
         11    1    1    2    0    0  0.22232623527E+02  0.40845397726E+01 -0.91473469479E+02  0.94225095556E+02  0.00000000000E+00 0. -1.
</event>
<event>
 7    1  0.2842702E-009  0.1152436E+03  0.7561462E-02  0.1251157E+00
         -4   -1    0    0    0  501 -0.00000000000E+00  0.00000000000E+00  0.64311328853E+02  0.64311328853E+02  0.00000000000E+00 0.  1.
          4   -1    0    0  501    0  0.00000000000E+00 -0.00000000000E+00 -0.23605119298E+03  0.23605119298E+03  0.00000000000E+00 0. -1.
         25    2    1    2    0    0 -0.57509895840E+02  0.73692471760E+01 -0.97308683914E+02  0.16875706848E+03  0.12509306245E+03 0.  0.
          5    1    3    3  502    0 -0.92548729085E+00 -0.49293124078E+02 -0.66427220858E+02  0.82829443310E+02  0.41800000000E+01 0. -1.
         -5    1    3    3    0  502 -0.56584408550E+02  0.56662371254E+02 -0.30881463056E+02  0.85927625171E+02  0.41800000000E+01 0. -1.
        -11    1    1    2    0    0  0.64868026291E+02 -0.33968383934E+02 -0.73855012025E+02  0.10400132087E+03  0.00000000000E+00 0.  1.
         11    1    1    2    0    0 -0.73581304508E+01  0.26599136758E+02 -0.57616818379E+00  0.27604132476E+02  0.00000000000E+00 0. -1.
</event>
<event>
 7    1  0.2842702E-009  0.1446405E+03  0.7561462E-02  0.1207218E+00
         -2   -1    0    0    0  501 -0.00000000000E+00  0.00000000000E+00  0.25942637801E+03  0.25942637801E+03  0.00000000000E+00 0.  1.
          2   -1    0    0  501    0  0.00000000000E+00 -0.00000000000E+00 -0.91376456527E+02  0.91376456527E+02  0.00000000000E+00 0. -1.
         25    2    1    2    0    0 -0.76518129018E+02 -0.61270822478E+02  0.14515346560E+03  0.21523465401E+03  0.12508912806E+03 0.  0.
          5    1    3    3  502    0 -0.10699760648E+03 -0.68194796158E+02  0.10964874503E+03  0.16774783963E+03  0.41800000000E+01 0.  1.
         -5    1    3    3    0  502  0.30479477458E+02  0.69239736801E+01  0.35504720567E+02  0.47486814382E+02  0.41800000000E+01 0.  1.
        -11    1    1    2    0    0  0.91028489719E+02  0.69121643628E+02  0.10203397177E+02  0.11475232840E+03  0.00000000000E+00 0. -1.
         11    1    1    2    0    0 -0.14510360701E+02 -0.78508211503E+01  0.12693058713E+02  0.20815852130E+02  0.00000000000E+00 0.  1.
</event>
<event>
 7    1  0.2842702E-009  0.1060786E+03  0.7561462E-02  0.1268009E+00
          2   -1    0    0  501    0  0.00000000000E+00  0.00000000000E+00  0.14613879841E+04  0.14613879841E+04  0.00000000000E+00 0. -1.
         -2   -1    0    0    0  501 -0.00000000000E+00 -0.00000000000E+00 -0.13926545649E+02  0.13926545649E+02  0.00000000000E+00 0.  1.
         25    2    1    2    0    0  0.77370454550E+02 -0.43511060069E+02  0.93540000493E+03  0.94789181354E+03  0.12508525637E+03 0.  0.
          5    1    3    3  502    0  0.64993680789E+02 -0.82880933812E+01  0.86997032306E+03  0.87244409932E+03  0.41800000000E+01 0. -1.
         -5    1    3    3    0  502  0.12376773761E+02 -0.35222966688E+02  0.65429681876E+02  0.75447714223E+02  0.41800000000E+01 0. -1.
        -11    1    1    2    0    0  0.94234170808E+01  0.14746795030E+02  0.18511385969E+02  0.25474303987E+02  0.00000000000E+00 0.  1.
         11    1    1    2    0    0 -0.86793871631E+02  0.28764265039E+02  0.49355004750E+03  0.50194841217E+03  0.00000000000E+00 0. -1.
</event>
<event>
 7    1  0.2842702E-009  0.1469655E+03  0.7561462E-02  0.1204252E+00
         -2   -1    0    0    0  501 -0.00000000000E+00  0.00000000000E+00  0.25353909708E+02  0.25353909708E+02  0.00000000000E+00 0. -1.
          2   -1    0    0  501    0  0.00000000000E+00 -0.00000000000E+00 -0.11274909456E+04  0.11274909456E+04  0.00000000000E+00 0.  1.
         25    2    1    2    0    0  0.14334082110E+02 -0.11980163312E+03 -0.73716986065E+03  0.75738019937E+03  0.12508983071E+03 0.  0.
          5    1    3    3  502    0  0.53063068590E+02 -0.27551241426E+02 -0.14656442872E+03  0.15834571140E+03  0.41800000000E+01 0. -1.
         -5    1    3    3    0  502 -0.38728986480E+02 -0.92250391691E+02 -0.59060543193E+03  0.59903448797E+03  0.41800000000E+01 0. -1.
        -11    1    1    2    0    0 -0.33072445709E+02  0.10467729264E+03 -0.35068842444E+03  0.36746903720E+03  0.00000000000E+00 0.  1.
         11    1    1    2    0    0  0.18738363599E+02  0.15124340473E+02 -0.14278750839E+02  0.27995618775E+02  0.00000000000E+00 0. -1.
</event>
<event>
 7    1  0.2842702E-009  0.1336645E+03  0.7561462E-02  0.1222117E+00
          2   -1    0    0  501    0  0.00000000000E+00  0.00000000000E+00  0.80379441556E+03  0.80379441556E+03  0.00000000000E+00 0.  1.
         -2   -1    0    0    0  501 -0.00000000000E+00 -0.00000000000E+00 -0.25178723952E+02  0.25178723952E+02  0.00000000000E+00 0. -1.
         25    2    1    2    0    0  0.52307687172E+01 -0.89520114029E+02  0.49547194575E+03  0.51882446373E+03  0.12508062755E+03 0.  0.
          5    1    3    3  502    0 -0.97239367207E+01  0.27320104749E+02  0.49325641076E+02  0.57371023491E+02  0.41800000000E+01 0. -1.
         -5    1    3    3    0  502  0.14954705438E+02 -0.11684021878E+03  0.44614630467E+03  0.46145344024E+03  0.41800000000E+01 0. -1.
        -11    1    1    2    0    0 -0.40404605609E+02  0.27540440348E+02  0.16579625873E+03  0.17285660941E+03  0.00000000000E+00 0. -1.
         11    1    1    2    0    0  0.35173836891E+02  0.61979673681E+02  0.11734748714E+03  0.13729206637E+03  0.00000000000E+00 0.  1.
</event>
<event>
 7    1  0.3398443E-009  0.1955713E+03  0.7561462E-02  0.1153530E+00
          2   -1    0    0  501    0  0.00000000000E+00  0.00000000000E+00  0.94732001774E+03  0.94732001774E+03  0.00000000000E+00 0. -1.
         -2   -1    0    0    0  501 -0.00000000000E+00 -0.00000000000E+00 -0.56175905449E+02  0.56175905449E+02  0.00000000000E+00 0.  1.
         25    2    1    2    0    0 -0.83613168922E+02 -0.16370561688E+03  0.27222760042E+03  0.35149094854E+03  0.12508928594E+03 0.  0.
          5    1    3    3  502    0 -0.93166617197E+02 -0.79912394762E+02  0.95321711063E+02  0.15546610691E+03  0.41800000000E+01 0. -1.
         -5    1    3    3    0  502  0.95534482745E+01 -0.83793222116E+02  0.17690588936E+03  0.19602484163E+03  0.41800000000E+01 0. -1.
        -11    1    1    2    0    0  0.40406751629E+02  0.73725511312E+02  0.14429103446E+03  0.16699718327E+03  0.00000000000E+00 0.  1.
         11    1    1    2    0    0  0.43206417294E+02  0.89980105565E+02  0.47462547741E+03  0.48500779138E+03  0.00000000000E+00 0. -1.
</event>
<event>
 7    1  0.2842702E-009  0.8919279E+02  0.7561462E-02  0.1304818E+00
          2   -1    0    0  501    0  0.00000000000E+00  0.00000000000E+00  0.73876633947E+03  0.73876633947E+03  0.00000000000E+00 0. -1.
         -2   -1    0    0    0  501 -0.00000000000E+00 -0.00000000000E+00 -0.17322139661E+02  0.17322139661E+02  0.00000000000E+00 0.  1.
         25    2    1    2    0    0 -0.32577255425E+02 -0.17783696335E+02  0.39916373591E+03  0.41994789430E+03  0.12508800274E+03 0.  0.
          5    1    3    3  502    0 -0.46241806630E+02  0.15798501536E+02  0.54346285569E+02  0.73204429417E+02  0.41800000000E+01 0.  1.
         -5    1    3    3    0  502  0.13664551205E+02 -0.33582197871E+02  0.34481745034E+03  0.34674346488E+03  0.41800000000E+01 0.  1.
        -11    1    1    2    0    0  0.98854003308E+01 -0.34479268783E+02  0.87952524136E+02  0.94985196833E+02  0.00000000000E+00 0.  1.
         11    1    1    2    0    0  0.22691855095E+02  0.52262965118E+02  0.23432793976E+03  0.24115538800E+03  0.00000000000E+00 0. -1.
</event>
<event>
 7    1  0.2842702E-009  0.1454731E+03  0.7561462E-02  0.1206149E+00
         -1   -1    0    0    0  501 -0.00000000000E+00  0.00000000000E+00  0.31117078673E+02  0.31117078673E+02  0.00000000000E+00 0.  1.
          1   -1    0    0  501    0  0.00000000000E+00 -0.00000000000E+00 -0.88042032509E+03  0.88042032509E+03  0.00000000000E+00 0. -1.
         25    2    1    2    0    0  0.77450000922E+02  0.94975149254E+02 -0.51882540158E+03  0.54758062942E+03  0.12508383899E+03 0.  0.
          5    1    3    3  502    0  0.91244383675E+02  0.21965779847E+02 -0.36204094987E+03  0.37403095436E+03  0.41800000000E+01 0.  1.
         -5    1    3    3    0  502 -0.13794382753E+02  0.73009369407E+02 -0.15678445171E+03  0.17354967507E+03  0.41800000000E+01 0.  1.
        -11    1    1    2    0    0 -0.25688166448E+02 -0.33621349437E+02 -0.27352403173E+02  0.50382844231E+02  0.00000000000E+00 0.  1.
         11    1    1    2    0    0 -0.51761834474E+02 -0.61353799816E+02 -0.30312544167E+03  0.31357393011E+03  0.00000000000E+00 0. -1.
</event>
<event>
 7    1  0.2842702E-009  0.9513313E+02  0.7561462E-02  0.1290877E+00
         -2   -1    0    0    0  501 -0.00000000000E+00  0.00000000000E+00  0.23592279089E+03  0.23592279089E+03  0.00000000000E+00 0.  1.
          2   -1    0    0  501    0  0.00000000000E+00 -0.00000000000E+00 -0.52159588625E+02  0.52159588625E+02  0.00000000000E+00 0. -1.
         25    2    1    2    0    0  0.48130403155E+01  0.10523965311E+02  0.76023095760E+02  0.14683740181E+03  0.12509113589E+03 0.  0.
          5    1    3    3  502    0  0.51629493741E+02  0.94318653103E+01 -0.52850938149E+01  0.52914736358E+02  0.41800000000E+01 0.  1.
         -5    1    3    3    0  502 -0.46816453425E+02  0.10921000011E+01  0.81308189575E+02  0.93922665453E+02  0.41800000000E+01 0.  1.
        -11    1    1    2    0    0  0.38817961071E+02  0.13119902623E+02  0.57710090846E+02  0.70777259992E+02  0.00000000000E+00 0.  1.
         11    1    1    2    0    0 -0.43631001387E+02 -0.23643867935E+02  0.50030015659E+02  0.70467717714E+02  0.00000000000E+00 0. -1.
</event>
<event>
 7    1  0.2842702E-009  0.1012111E+03  0.7561462E-02  0.1277770E+00
         -1   -1    0    0    0  501 -0.00000000000E+00  0.00000000000E+00  0.90326828490E+02  0.90326828490E+02  0.00000000000E+00 0.  1.
          1   -1    0    0  501    0  0.00000000000E+00 -0.00000000000E+00 -0.18347614730E+03  0.18347614730E+03  0.00000000000E+00 0. -1.
         25    2    1    2    0    0  0.46168376191E+02 -0.79304130482E+01  0.89836667788E+01  0.13389955553E+03  0.12511584349E+03 0.  0.
          5    1    3    3  502    0  0.23879208340E+02  0.48764744204E+02 -0.29288452292E+02  0.61834478294E+02  0.41800000000E+01 0. -1.
         -5    1    3    3    0  502  0.22289167850E+02 -0.56695157252E+02  0.38272119071E+02  0.72065077239E+02  0.41800000000E+01 0. -1.
        -11    1    1    2    0    0 -0.31226723996E+02  0.40457446459E+02 -0.29703718854E+02  0.59111963080E+02  0.00000000000E+00 0. -1.
         11    1    1    2    0    0 -0.14941652194E+02 -0.32527033410E+02 -0.72429266735E+02  0.80791457176E+02  0.00000000000E+00 0.  1.
</event>
<event>
 7    1  0.2842702E-009  0.9042330E+02  0.7561462E-02  0.1301830E+00
         -1   -1    0    0    0  501 -0.00000000000E+00  0.00000000000E+00  0.22057222708E+02  0.22057222708E+02  0.00000000000E+00 0.  1.
          1   -1    0    0  501    0  0.00000000000E+00 -0.00000000000E+00 -0.67673305987E+03  0.67673305987E+03  0.00000000000E+00 0. -1.
         25    2    1    2    0    0 -0.31281711388E+02 -0.43513173838E+02 -0.41208196522E+03  0.43397128697E+03  0.12509032774E+03 0.  0.
          5    1    3    3  502    0  0.23981639115E+02 -0.16437318110E+02 -0.16662826833E+02  0.33770203425E+02  0.41800000000E+01 0. -1.
         -5    1    3    3    0  502 -0.55263350504E+02 -0.27075855728E+02 -0.39541913839E+03  0.40020108355E+03  0.41800000000E+01 0. -1.
        -11    1    1    2    0    0  0.50155258932E+01 -0.20233573163E+02 -0.11815230918E+02  0.23961482938E+02  0.00000000000E+00 0.  1.
         11    1    1    2    0    0  0.26266185495E+02  0.63746747001E+02 -0.23077864102E+03  0.24085751266E+03  0.00000000000E+00 0. -1.
</event>
<event>
 7    1  0.2842702E-009  0.9287295E+02  0.7561462E-02  0.1296040E+00
         -1   -1    0    0    0  501 -0.00000000000E+00  0.00000000000E+00  0.16647422845E+04  0.16647422845E+04  0.00000000000E+00 0.  1.
          1   -1    0    0  501    0  0.00000000000E+00 -0.00000000000E+00 -0.10514436596E+02  0.10514436596E+02  0.00000000000E+00 0. -1.
         25    2    1    2    0    0  0.27808253494E+02  0.55644325768E+02  0.11829006909E+04  0.11911219268E+04  0.12509120705E+03 0.  0.
          5    1    3    3  502    0  0.41329042528E+01 -0.78526007951E+01  0.90479714402E+03  0.90485031274E+03  0.41800000000E+01 0.  1.
         -5    1    3    3    0  502  0.23675349241E+02  0.63496926564E+02  0.27810354688E+03  0.28627161408E+03  0.41800000000E+01 0.  1.
        -11    1    1    2    0    0 -0.54183416720E+02 -0.96718462988E+01  0.29188091269E+03  0.29702500644E+03  0.00000000000E+00 0.  1.
         11    1    1    2    0    0  0.26375163226E+02 -0.45972479470E+02  0.17944624434E+03  0.18710978786E+03  0.00000000000E+00 0. -1.
</event>
<event>
 7    1  0.2842702E-009  0.1293697E+03  0.7561462E-02  0.1228394E+00
          2   -1    0    0  501    0  0.00000000000E+00  0.00000000000E+00  0.17996915236E+03  0.17996915236E+03  0.00000000000E+00 0.  1.
         -2   -1    0    0    0  501 -0.00000000000E+00 -0.00000000000E+00 -0.11107457465E+03  0.11107457465E+03  0.00000000000E+00 0. -1.
         25    2    1    2    0    0  0.66904078176E+02 -0.32790989616E+02 -0.15127378881E+02  0.14638192561E+03  0.12508967135E+03 0.  0.
          5    1    3    3  502    0  0.92645448060E+02  0.11589393647E+02 -0.16409389660E+02  0.94890640004E+02  0.41800000000E+01 0. -1.
         -5    1    3    3    0  502 -0.25741369885E+02 -0.44380383263E+02  0.12820107794E+01  0.51491285610E+02  0.41800000000E+01 0. -1.
        -11    1    1    2    0    0 -0.50725677337E+02 -0.23012586849E+02  0.59771583402E+02  0.81702605082E+02  0.00000000000E+00 0.  1.
         11    1    1    2    0    0 -0.16178400839E+02  0.55803576465E+02  0.24250373187E+02  0.62959196308E+02  0.00000000000E+00 0. -1.
</event>
<event>
 7    1  0.2842702E-009  0.1016994E+03  0.7561462E-02  0.1276762E+00
          3   -1    0    0  501    0  0.00000000000E+00  0.00000000000E+00  0.10629067182E+03  0.10629067182E+03  0.00000000000E+00 0. -1.
         -3   -1    0    0    0  501 -0.00000000000E+00 -0.00000000000E+00 -0.14592843003E+03  0.14592843003E+03  0.00000000000E+00 0.  1.
         25    2    1    2    0    0 -0.46090849047E+02 -0.36842002324E+02 -0.83726783852E+01  0.13855134053E+03  0.12507866612E+03 0.  0.
          5    1    3    3  502    0 -0.77905105954E+02  0.11230111830E+02  0.58230646812E+01  0.79036076748E+02  0.41800000000E+01 0.  1.
         -5    1    3    3    0  502  0.31814256908E+02 -0.48072114155E+02 -0.14195743066E+02  0.59515263782E+02  0.41800000000E+01 0.  1.
        -11    1    1    2    0    0  0.23694036260E+02  0.37517453476E+02  0.26517484131E+02  0.51692781259E+02  0.00000000000E+00 0. -1.
         11    1    1    2    0    0  0.22396812786E+02 -0.67545115159E+00 -0.57782563952E+02  0.61974980065E+02  0.00000000000E+00 0.  1.
</event>
<event>
 7    1  0.2842702E-009  0.1610164E+03  0.7561462E-02  0.1187554E+00
         -3   -1    0    0    0  501 -0.00000000000E+00  0.00000000000E+00  0.64489883532E+02  0.64489883532E+02  0.00000000000E+00 0.  1.
          3   -1    0    0  501    0  0.00000000000E+00 -0.00000000000E+00 -0.41620090945E+03  0.41620090945E+03  0.00000000000E+00 0. -1.
         25    2    1    2    0    0  0.31279744200E+02 -0.11542064871E+03 -0.20299547760E+03  0.26674955612E+03  0.12509121961E+03 0.  0.
          5    1    3    3  502    0 -0.44956959980E+02 -0.33305441976E+02 -0.99141251467E+02  0.11391593768E+03  0.41800000000E+01 0. -1.
         -5    1    3    3    0  502  0.76236704180E+02 -0.82115206733E+02 -0.10385422613E+03  0.15283361844E+03  0.41800000000E+01 0. -1.
        -11    1    1    2    0    0 -0.66410545548E+02  0.78822599109E+02 -0.99747176076E+02  0.14343242948E+03  0.00000000000E+00 0.  1.
         11    1    1    2    0    0  0.35130801348E+02  0.36598049600E+02 -0.48968372248E+02  0.70508807382E+02  0.00000000000E+00 0. -1.
</event>
<event>
 7    1  0.3545119E-009  0.1148678E+03  0.7561462E-02  0.1251812E+00
         -2   -1    0    0    0  501 -0.00000000000E+00  0.00000000000E+00  0.34353406418E+02  0.34353406418E+02  0.00000000000E+00 0. -1.
          2   -1    0    0  501    0  0.00000000000E+00 -0.00000000000E+00 -0.58307651474E+03  0.58307651474E+03  0.00000000000E+00 0.  1.
         25    2    1    2    0    0 -0.84841946560E+02 -0.28089982260E+02 -0.32832862143E+03  0.36253819599E+03  0.12508819649E+03 0.  0.
          5    1    3    3  502    0 -0.77254258280E+02  0.26957791232E+02 -0.10969008324E+03  0.13690993277E+03  0.41800000000E+01 0. -1.
         -5    1    3    3    0  502 -0.75876882807E+01 -0.55047773493E+02 -0.21863853819E+03  0.22562826322E+03  0.41800000000E+01 0. -1.
        -11    1    1    2    0    0  0.63392851601E+02  0.10320374781E+02 -0.21762029151E+03  0.22690031962E+03  0.00000000000E+00 0.  1.
         11    1    1    2    0    0  0.21449094959E+02  0.17769607479E+02 -0.27741953890E+01  0.27991405549E+02  0.00000000000E+00 0. -1.
</event>
<event>
 7    1  0.2842702E-009  0.3073647E+03  0.7561462E-02  0.1081616E+00
         -1   -1    0    0    0  501 -0.00000000000E+00  0.00000000000E+00  0.13375005461E+03  0.13375005461E+03  0.00000000000E+00 0.  1.
          1   -1    0    0  501    0  0.00000000000E+00 -0.00000000000E+00 -0.84658199937E+03  0.84658199937E+03  0.00000000000E+00 0. -1.
         25    2    1    2    0    0 -0.29283450049E+03 -0.78494675085E+02 -0.50126123764E+03  0.59901925212E+03  0.12509107624E+03 0.  0.
          5    1    3    3  502    0 -0.13561867573E+02 -0.19469989341E+02 -0.23481731208E+01  0.24207252095E+02  0.41800000000E+01 0.  1.
         -5    1    3    3    0  502 -0.27927263292E+03 -0.59024685744E+02 -0.49891306452E+03  0.57481200002E+03  0.41800000000E+01 0.  1.
        -11    1    1    2    0    0  0.14423016945E+03  0.56676295546E+02 -0.15939987012E+03  0.22231253417E+03  0.00000000000E+00 0. -1.
         11    1    1    2    0    0  0.14860433105E+03  0.21818379540E+02 -0.52170837003E+02  0.15900026769E+03  0.00000000000E+00 0.  1.
</event>
<event>
 7    1  0.2842702E-009  0.3307939E+03  0.7561462E-02  0.1070786E+00
         -2   -1    0    0    0  501 -0.00000000000E+00  0.00000000000E+00  0.50341787587E+02  0.50341787587E+02  0.00000000000E+00 0.  1.
          2   -1    0    0  501    0  0.00000000000E+00 -0.00000000000E+00 -0.23661553890E+04  0.23661553890E+04  0.00000000000E+00 0. -1.
         25    2    1    2    0    0 -0.27542719576E+03 -0.16873680436E+03 -0.13490454454E+04  0.13928041109E+04  0.12508968078E+03 0.  0.
          5    1    3    3  502    0 -0.26570365592E+02 -0.45771451147E+01 -0.32757962666E+03  0.32871388591E+03  0.41800000000E+01 0. -1.
         -5    1    3    3    0  502 -0.24885683016E+03 -0.16415965925E+03 -0.10214658188E+04  0.10640902250E+04  0.41800000000E+01 0. -1.
        -11    1    1    2    0    0  0.14390997166E+03  0.34010887303E+02 -0.39887589313E+03  0.42540427657E+03  0.00000000000E+00 0. -1.
         11    1    1    2    0    0  0.13151722410E+03  0.13472591706E+03 -0.56789226282E+03  0.59828878907E+03  0.00000000000E+00 0.  1.
</event>
<event>
 7    1  0.2842702E-009  0.1004511E+03  0.7561462E-02  0.1279350E+00
          2   -1    0    0  501    0  0.00000000000E+00  0.00000000000E+00  0.14080824658E+02  0.14080824658E+02  0.00000000000E+00 0.  1.
         -2   -1    0    0    0  501 -0.00000000000E+00 -0.00000000000E+00 -0.11768602671E+04  0.11768602671E+04  0.00000000000E+00 0. -1.
         25    2    1    2    0    0  0.11667818957E+02 -0.91796485614E+01 -0.94223543905E+03  0.95062178971E+03  0.12511498918E+03 0.  0.
          5    1    3    3  502    0  0.58181892992E+02 -0.41275062683E+01 -0.76614931683E+03  0.76837778277E+03  0.41800000000E+01 0. -1.
         -5    1    3    3    0  502 -0.46514074035E+02 -0.50521422931E+01 -0.17608612222E+03  0.18224400694E+03  0.41800000000E+01 0. -1.
        -11    1    1    2    0    0 -0.36184991304E+02 -0.31486012135E+02 -0.11297879531E+03  0.12273927956E+03  0.00000000000E+00 0.  1.
         11    1    1    2    0    0  0.24517172346E+02  0.40665660697E+02 -0.10756520805E+03  0.11758002246E+03  0.00000000000E+00 0. -1.
</event>
<event>
 7    1  0.2842702E-009  0.1175726E+03  0.7561462E-02  0.1247156E+00
          2   -1    0    0  501    0  0.00000000000E+00  0.00000000000E+00  0.19047210775E+03  0.19047210775E+03  0.00000000000E+00 0. -1.
         -2   -1    0    0    0  501 -0.00000000000E+00 -0.00000000000E+00 -0.11135435426E+03  0.11135435426E+03  0.00000000000E+00 0.  1.
         25    2    1    2    0    0  0.95208182666E+02  0.12238968587E+02  0.60603771088E+02  0.16892264919E+03  0.12509058294E+03 0.  0.
          5    1    3    3  502    0  0.26707875604E+01  0.40548193125E+02 -0.17552680654E+02  0.44461872093E+02  0.41800000000E+01 0.  1.
         -5    1    3    3    0  502  0.92537395105E+02 -0.28309224537E+02  0.78156451743E+02  0.12446077710E+03  0.41800000000E+01 0.  1.
        -11    1    1    2    0    0 -0.74917219555E+02 -0.16470128273E+02  0.52601226658E+02  0.93009375641E+02  0.00000000000E+00 0. -1.
         11    1    1    2    0    0 -0.20290963110E+02  0.42311596860E+01 -0.34087244263E+02  0.39894437177E+02  0.00000000000E+00 0.  1.
</event>
<event>
 7    1  0.2842702E-009  0.1026362E+03  0.7561462E-02  0.1274848E+00
          1   -1    0    0  501    0  0.00000000000E+00  0.00000000000E+00  0.54572898482E+03  0.54572898482E+03  0.00000000000E+00 0. -1.
         -1   -1    0    0    0  501 -0.00000000000E+00 -0.00000000000E+00 -0.26160719896E+02  0.26160719896E+02  0.00000000000E+00 0.  1.
         25    2    1    2    0    0 -0.38209905777E+02 -0.40588450263E+00  0.21235143338E+03  0.24939878476E+03  0.12508581430E+03 0.  0.
          5    1    3    3  502    0  0.18435136430E+02  0.37070343445E+02  0.21622681269E+02  0.46894321230E+02  0.41800000000E+01 0. -1.
         -5    1    3    3    0  502 -0.56645042208E+02 -0.37476227947E+02  0.19072875211E+03  0.20250446353E+03  0.41800000000E+01 0. -1.
        -11    1    1    2    0    0  0.97197899722E+01 -0.42782737238E+02  0.17737211539E+03  0.18271755318E+03  0.00000000000E+00 0. -1.
         11    1    1    2    0    0  0.28490115805E+02  0.43188621741E+02  0.12984471616E+03  0.13977336678E+03  0.00000000000E+00 0.  1.
</event>
<event>
 7    1  0.2842702E-009  0.1036835E+03  0.7561462E-02  0.1272735E+00
          1   -1    0    0  501    0  0.00000000000E+00  0.00000000000E+00  0.18089602272E+02  0.18089602272E+02  0.00000000000E+00 0. -1.
         -1   -1    0    0    0  501 -0.00000000000E+00 -0.00000000000E+00 -0.83334748070E+03  0.83334748070E+03  0.00000000000E+00 0.  1.
         25    2    1    2    0    0  0.57553318031E+02  0.83104828426E+01 -0.48104393539E+03  0.50041689257E+03  0.12502939678E+03 0.  0.
          5    1    3    3  502    0 -0.13414788467E+02  0.30536505295E+02 -0.33299131119E+03  0.33468361244E+03  0.41800000000E+01 0.  1.
         -5    1    3    3    0  502  0.70968106498E+02 -0.22226022452E+02 -0.14805262420E+03  0.16573328014E+03  0.41800000000E+01 0.  1.
        -11    1    1    2    0    0 -0.75320725289E+02 -0.20086057057E+02 -0.30532294745E+03  0.31511706331E+03  0.00000000000E+00 0.  1.
         11    1    1    2    0    0  0.17767407259E+02  0.11775574214E+02 -0.28890995593E+02  0.35903127094E+02  0.00000000000E+00 0. -1.
</event>
<event>
 7    1  0.2842702E-009  0.1497646E+03  0.7561462E-02  0.1200763E+00
         -3   -1    0    0    0  501 -0.00000000000E+00  0.00000000000E+00  0.11492891701E+03  0.11492891701E+03  0.00000000000E+00 0.  1.
          3   -1    0    0  501    0  0.00000000000E+00 -0.00000000000E+00 -0.20015089218E+03  0.20015089218E+03  0.00000000000E+00 0. -1.
         25    2    1    2    0    0 -0.17435879924E+01 -0.10616699930E+03 -0.42508071853E+02  0.16949533891E+03  0.12508901590E+03 0.  0.
          5    1    3    3  502    0 -0.62142774350E+02 -0.38633238925E+02 -0.16253331729E+02  0.75072596505E+02  0.41800000000E+01 0.  1.
         -5    1    3    3    0  502  0.60399186357E+02 -0.67533760380E+02 -0.26254740124E+02  0.94422742401E+02  0.41800000000E+01 0.  1.
        -11    1    1    2    0    0 -0.37249474609E+02  0.80928712117E+02 -0.11986593990E+02  0.89892481549E+02  0.00000000000E+00 0.  1.
         11    1    1    2    0    0  0.38993062601E+02  0.25238287188E+02 -0.30727309319E+02  0.55691988734E+02  0.00000000000E+00 0. -1.
</event>
<event>
 7    1  0.2842702E-009  0.2404016E+03  0.7561462E-02  0.1119526E+00
         -2   -1    0    0    0  501 -0.00000000000E+00  0.00000000000E+00  0.29865433715E+03  0.29865433715E+03  0.00000000000E+00 0. -1.
          2   -1    0    0  501    0  0.00000000000E+00 -0.00000000000E+00 -0.20890999417E+03  0.20890999417E+03  0.00000000000E+00 0.  1.
         25    2    1    2    0    0 -0.22053101777E+03 -0.41280015838E+02  0.77101850873E+02  0.26819804164E+03  0.12509006606E+03 0.  0.
          5    1    3    3  502    0 -0.84183177598E+00 -0.30111728344E+02  0.30961219857E+02  0.43399244229E+02  0.41800000000E+01 0. -1.
         -5    1    3    3    0  502 -0.21968918599E+03 -0.11168287494E+02  0.46140631017E+02  0.22479879741E+03  0.41800000000E+01 0. -1.
        -11    1    1    2    0    0  0.13638292628E+03 -0.60074819867E+00 -0.24004671108E+02  0.13848064021E+03  0.00000000000E+00 0.  1.
         11    1    1    2    0    0  0.84148091487E+02  0.41880764037E+02  0.36647163213E+02  0.10088564947E+03  0.00000000000E+00 0. -1.
</event>
<event>
 7    1  0.2842702E-009  0.1145656E+03  0.7561462E-02  0.1252341E+00
          1   -1    0    0  501    0  0.00000000000E+00  0.00000000000E+00  0.36464781613E+03  0.36464781613E+03  0.00000000000E+00 0. -1.
         -1   -1    0    0    0  501 -0.00000000000E+00 -0.00000000000E+00 -0.51360849833E+02  0.51360849833E+02  0.00000000000E+00 0.  1.
         25    2    1    2    0    0 -0.66068032020E+01 -0.77069419734E+02  0.21128758369E+03  0.25743642074E+03  0.12509085655E+03 0.  0.
          5    1    3    3  502    0 -0.42248386583E+02 -0.47729655962E+02  0.30473505760E+02  0.70775371284E+02  0.41800000000E+01 0. -1.
         -5    1    3    3    0  502  0.35641583380E+02 -0.29339763772E+02  0.18081407793E+03  0.18666104945E+03  0.41800000000E+01 0. -1.
        -11    1    1    2    0    0  0.41571688769E+02  0.92371855801E+01  0.52546689748E+02  0.67636421461E+02  0.00000000000E+00 0. -1.
         11    1    1    2    0    0 -0.34964885567E+02  0.67832234154E+02  0.49452692856E+02  0.90935823764E+02  0.00000000000E+00 0.  1.
</event>
<event>
 7    1  0.3383401E-009  0.1270788E+03  0.7561462E-02  0.1231856E+00
          3   -1    0    0  501    0  0.00000000000E+00  0.00000000000E+00  0.50202334955E+03  0.50202334955E+03  0.00000000000E+00 0.  1.
         -3   -1    0    0    0  501 -0.00000000000E+00 -0.00000000000E+00 -0.54233965796E+02  0.54233965796E+02  0.00000000000E+00 0. -1.
         25    2    1    2    0    0 -0.76374009001E+02  0.96893519578E+02  0.25626232591E+03  0.31070734616E+03  0.12508929566E+03 0.  0.
          5    1    3    3  502    0 -0.28265116252E+02  0.53912665523E+02  0.23478762206E+03  0.24258646330E+03  0.41800000000E+01 0.  1.
         -5    1    3    3    0  502 -0.48108892749E+02  0.42980854055E+02  0.21474703850E+02  0.68120882865E+02  0.41800000000E+01 0.  1.
        -11    1    1    2    0    0  0.44531342785E+01 -0.29818969656E+02 -0.11218760606E+00  0.30149858081E+02  0.00000000000E+00 0. -1.
         11    1    1    2    0    0  0.71920874723E+02 -0.67074549923E+02  0.19163924545E+03  0.21540011111E+03  0.00000000000E+00 0.  1.
</event>
<event>
 7    1  0.4216483E-009  0.1327195E+03  0.7561462E-02  0.1223475E+00
         -2   -1    0    0    0  501 -0.00000000000E+00  0.00000000000E+00  0.16040737919E+02  0.16040737919E+02  0.00000000000E+00 0.  1.
          2   -1    0    0  501    0  0.00000000000E+00 -0.00000000000E+00 -0.15411523433E+04  0.15411523433E+04  0.00000000000E+00 0. -1.
         25    2    1    2    0    0  0.19736120458E+02 -0.88588295889E+02 -0.11527783561E+04  0.11630916110E+04  0.12508699618E+03 0.  0.
          5    1    3    3  502    0 -0.16878106687E+02 -0.11037169104E+03 -0.83005048629E+03  0.83753690238E+03  0.41800000000E+01 0. -1.
         -5    1    3    3    0  502  0.36614227145E+02  0.21783395149E+02 -0.32272786980E+03  0.32555470858E+03  0.41800000000E+01 0. -1.
        -11    1    1    2    0    0  0.22568864010E+02  0.19207412375E+02 -0.29673526272E+02  0.41938007514E+02  0.00000000000E+00 0.  1.
         11    1    1    2    0    0 -0.42304984468E+02  0.69380883514E+02 -0.34265972306E+03  0.35216346277E+03  0.00000000000E+00 0. -1.
</event>
<event>
 7    1  0.2842702E-009  0.1193669E+03  0.7561462E-02  0.1244145E+00
         -1   -1    0    0    0  501 -0.00000000000E+00  0.00000000000E+00  0.26396948491E+02  0.26396948491E+02  0.00000000000E+00 0.  1.
          1   -1    0    0  501    0  0.00000000000E+00 -0.00000000000E+00 -0.10331222042E+04  0.10331222042E+04  0.00000000000E+00 0. -1.
         25    2    1    2    0    0 -0.68427966877E+02  0.91801969831E+02 -0.69157874727E+03  0.71206707490E+03  0.12509343376E+03 0.  0.
          5    1    3    3  502    0 -0.76911432765E+00  0.99088367557E+01 -0.42408952560E+03  0.42422656059E+03  0.41800000000E+01 0.  1.
         -5    1    3    3    0  502 -0.67658852550E+02  0.81893133076E+02 -0.26748922167E+03  0.28784051432E+03  0.41800000000E+01 0.  1.
        -11    1    1    2    0    0  0.43428919862E+02 -0.24534335280E+02 -0.42534902144E+02  0.65553204257E+02  0.00000000000E+00 0.  1.
         11    1    1    2    0    0  0.24999047016E+02 -0.67267634551E+02 -0.27261160626E+03  0.28189887349E+03  0.00000000000E+00 0. -1.
</event>
<event>
 7    1  0.2842702E-009  0.1512366E+03  0.7561462E-02  0.1198962E+00
         -2   -1    0    0    0  501 -0.00000000000E+00  0.00000000000E+00  0.39560425615E+03  0.39560425615E+03  0.00000000000E+00 0.  1.
          2   -1    0    0  501    0  0.00000000000E+00 -0.00000000000E+00 -0.72559923582E+02  0.72559923582E+02  0.00000000000E+00 0. -1.
         25    2    1    2    0    0  0.12725607601E+03 -0.20630713549E+02  0.21351971403E+03  0.27903021294E+03  0.12508979266E+03 0.  0.
          5    1    3    3  502    0  0.53850932620E+01 -0.29894583042E+02 -0.25336294667E+01  0.30766491561E+02  0.41800000000E+01 0. -1.
         -5    1    3    3    0  502  0.12187098275E+03  0.92638694934E+01  0.21605334350E+03  0.24826372138E+03  0.41800000000E+01 0. -1.
        -11    1    1    2    0    0 -0.13684065064E+02  0.32561771531E+02  0.47461334445E+02  0.59161650326E+02  0.00000000000E+00 0. -1.
         11    1    1    2    0    0 -0.11357201095E+03 -0.11931057983E+02  0.62063284087E+02  0.12997231646E+03  0.00000000000E+00 0.  1.
</event>
<event>
 7    1  0.2842702E-009  0.1050369E+03  0.7561462E-02  0.1270047E+00
          2   -1    0    0  501    0  0.00000000000E+00  0.00000000000E+00  0.60083586121E+03  0.60083586121E+03  0.00000000000E+00 0. -1.
         -2   -1    0    0    0  501 -0.00000000000E+00 -0.00000000000E+00 -0.20146143522E+02  0.20146143522E+02  0.00000000000E+00 0.  1.
         25    2    1    2    0    0  0.19509711821E+02  0.11553259693E+02  0.31928050293E+03  0.34365917549E+03  0.12508989838E+03 0.  0.
          5    1    3    3  502    0 -0.15483976748E+02 -0.46715825233E+02  0.20284655372E+03  0.20877336665E+03  0.41800000000E+01 0. -1.
         -5    1    3    3    0  502  0.34993688569E+02  0.58269084926E+02  0.11643394921E+03  0.13488580884E+03  0.41800000000E+01 0. -1.
        -11    1    1    2    0    0 -0.25445510687E+02  0.36318507264E+02  0.12700146262E+03  0.13452092585E+03  0.00000000000E+00 0.  1.
         11    1    1    2    0    0  0.59357988661E+01 -0.47871766957E+02  0.13440775213E+03  0.14280190340E+03  0.00000000000E+00 0. -1.
</event>
<event>
 7    1  0.2842702E-009  0.9542177E+02  0.7561462E-02  0.1290229E+00
         -2   -1    0    0    0  501 -0.00000000000E+00  0.00000000000E+00  0.71539574147E+02  0.71539574147E+02  0.00000000000E+00 0.  1.
          2   -1    0    0  501    0  0.00000000000E+00 -0.00000000000E+00 -0.27676149644E+03  0.27676149644E+03  0.00000000000E+00 0. -1.
         25    2    1    2    0    0  0.78647607825E+02  0.39883768417E+02 -0.13394489359E+03  0.20338507127E+03  0.12509233189E+03 0.  0.
          5    1    3    3  502    0 -0.82961190814E+00  0.13155437103E+01 -0.11222970964E+03  0.11231829343E+03  0.41800000000E+01 0.  1.
         -5    1    3    3    0  502  0.79477219733E+02  0.38568224707E+02 -0.21715183942E+02  0.91066777846E+02  0.41800000000E+01 0.  1.
        -11    1    1    2    0    0 -0.39126722744E+02 -0.43198723369E+02 -0.84900916697E+02  0.10298153130E+03  0.00000000000E+00 0. -1.
         11    1    1    2    0    0 -0.39520885082E+02  0.33149549514E+01  0.13623887987E+02  0.41934468017E+02  0.00000000000E+00 0.  1.
</event>
<event>
 7    1  0.2842702E-009  0.8547422E+02  0.7561462E-02  0.1314197E+00
          1   -1    0    0  501    0  0.00000000000E+00  0.00000000000E+00  0.46242932036E+02  0.46242932036E+02  0.00000000000E+00 0. -1.
         -1   -1    0    0    0  501 -0.00000000000E+00 -0.00000000000E+00 -0.29845906452E+03  0.29845906452E+03  0.00000000000E+00 0.  1.
         25    2    1    2    0    0  0.41620316183E+01  0.43002811580E+02 -0.12781527032E+03  0.18398286137E+03  0.12508551332E+03 0.  0.
          5    1    3    3  502    0  0.54126698787E+02  0.13596774528E+02 -0.10961283811E+03  0.12307322405E+03  0.41800000000E+01 0.  1.
         -5    1    3    3    0  502 -0.49964667169E+02  0.29406037053E+02 -0.18202432203E+02  0.60909637321E+02  0.41800000000E+01 0.  1.
        -11    1    1    2    0    0 -0.17465382063E+02 -0.39365369786E+02 -0.13602662360E+03  0.14268116287E+03  0.00000000000E+00 0.  1.
         11    1    1    2    0    0  0.13303350444E+02 -0.36374417944E+01  0.11625761443E+02  0.18037972308E+02  0.00000000000E+00 0. -1.
</event>
<event>
 7    1  0.2842702E-009  0.1044416E+03  0.7561462E-02  0.1271224E+00
          1   -1    0    0  501    0  0.00000000000E+00  0.00000000000E+00  0.90404144785E+02  0.90404144785E+02  0.00000000000E+00 0. -1.
         -1   -1    0    0    0  501 -0.00000000000E+00 -0.00000000000E+00 -0.21871850177E+03  0.21871850177E+03  0.00000000000E+00 0.  1.
         25    2    1    2    0    0 -0.12589660832E+02 -0.61418757430E+02  0.91396856933E+00  0.13992406958E+03  0.12508855498E+03 0.  0.
          5    1    3    3  502    0  0.54931387990E+02 -0.33136554983E+02 -0.12202360975E+02  0.65435912740E+02  0.41800000000E+01 0. -1.
         -5    1    3    3    0  502 -0.67521048822E+02 -0.28282202447E+02  0.13116329545E+02  0.74488156844E+02  0.41800000000E+01 0. -1.
        -11    1    1    2    0    0 -0.11548970402E+02  0.14794525689E+02 -0.11255976738E+03  0.11411379382E+03  0.00000000000E+00 0.  1.
         11    1    1    2    0    0  0.24138631234E+02  0.46624231742E+02 -0.16668558179E+02  0.55084783154E+02  0.00000000000E+00 0. -1.
</event>
<event>
 7    1  0.2842702E-009  0.1325204E+03  0.7561462E-02  0.1223763E+00
         -2   -1    0    0    0  501 -0.00000000000E+00  0.00000000000E+00  0.37945529267E+02  0.37945529267E+02  0.00000000000E+00 0.  1.
          2   -1    0    0  501    0  0.00000000000E+00 -0.00000000000E+00 -0.61514713614E+03  0.61514713614E+03  0.00000000000E+00 0. -1.
         25    2    1    2    0    0  0.80727848700E+02 -0.63322028419E+02 -0.24770293590E+03  0.29585619145E+03  0.12508987460E+03 0.  0.
          5    1    3    3  502    0  0.87399025921E+02 -0.22965025769E+02 -0.23654295588E+03  0.25325091217E+03  0.41800000000E+01 0.  1.
         -5    1    3    3    0  502 -0.66711772211E+01 -0.40357002650E+02 -0.11159980026E+02  0.42605279281E+02  0.41800000000E+01 0.  1.
        -11    1    1    2    0    0 -0.27423477969E+02  0.74157876782E+02 -0.23800801136E+03  0.25079723145E+03  0.00000000000E+00 0. -1.
         11    1    1    2    0    0 -0.53304370731E+02 -0.10835848362E+02 -0.91490659614E+02  0.10643924251E+03  0.00000000000E+00 0.  1.
</event>
<event>
 7    1  0.2842702E-009  0.8507781E+02  0.7561462E-02  0.1315229E+00
         -2   -1    0    0    0  501 -0.00000000000E+00  0.00000000000E+00  0.93982866687E+02  0.93982866687E+02  0.00000000000E+00 0. -1.
          2   -1    0    0  501    0  0.00000000000E+00 -0.00000000000E+00 -0.14554315862E+03  0.14554315862E+03  0.00000000000E+00 0.  1.
         25    2    1    2    0    0 -0.12546176573E+00 -0.32065980378E+01  0.15840539548E+02  0.12613162316E+03  0.12509182889E+03 0.  0.
          5    1    3    3  502    0  0.47976419233E+02  0.26498855296E+02  0.36290537598E+02  0.65866544266E+02  0.41800000000E+01 0.  1.
         -5    1    3    3    0  502 -0.48101880999E+02 -0.29705453333E+02 -0.20449998050E+02  0.60265078890E+02  0.41800000000E+01 0.  1.
        -11    1    1    2    0    0  0.29268128078E+02  0.15107620235E+01  0.97652716028E+01  0.30891200245E+02  0.00000000000E+00 0. -1.
         11    1    1    2    0    0 -0.29142666313E+02  0.16958360144E+01 -0.77166103088E+02  0.82503201910E+02  0.00000000000E+00 0.  1.
</event>
<event>
 7    1  0.2842702E-009  0.1071858E+03  0.7561462E-02  0.1265872E+00
         -2   -1    0    0    0  501 -0.00000000000E+00  0.00000000000E+00  0.38762351080E+03  0.38762351080E+03  0.00000000000E+00 0.  1.
          2   -1    0    0  501    0  0.00000000000E+00 -0.00000000000E+00 -0.50246837801E+02  0.50246837801E+02  0.00000000000E+00 0. -1.
         25    2    1    2    0    0  0.36940874215E+02 -0.28671805497E+02  0.29699909263E+03  0.32564108715E+03  0.12508779316E+03 0.  0.
          5    1    3    3  502    0  0.38734430691E+02 -0.69375844507E+02  0.12012107000E+03  0.14408298921E+03  0.41800000000E+01 0. -1.
         -5    1    3    3    0  502 -0.17935564762E+01  0.40704039010E+02  0.17687802263E+03  0.18155809794E+03  0.41800000000E+01 0. -1.
        -11    1    1    2    0    0 -0.12541813349E+02 -0.28799259391E+02 -0.89466548143E+01  0.32660940831E+02  0.00000000000E+00 0. -1.
         11    1    1    2    0    0 -0.24399060866E+02  0.57471064888E+02  0.49324235183E+02  0.79568320624E+02  0.00000000000E+00 0.  1.
</event>
<event>
 7    1  0.2842702E-009  0.2406108E+03  0.7561462E-02  0.1119387E+00
          1   -1    0    0  501    0  0.00000000000E+00  0.00000000000E+00  0.42412331779E+03  0.42412331779E+03  0.00000000000E+00 0. -1.
         -1   -1    0    0    0  501 -0.00000000000E+00 -0.00000000000E+00 -0.16862495584E+03  0.16862495584E+03  0.00000000000E+00 0.  1.
         25    2    1    2    0    0  0.22563245229E+03  0.44262551193E+02  0.40305464212E+02  0.26484771828E+03  0.12510238394E+03 0.  0.
          5    1    3    3  502    0  0.21009891898E+03  0.75903232853E+01  0.32715209049E+01  0.21030298147E+03  0.41800000000E+01 0. -1.
         -5    1    3    3    0  502  0.15533533303E+02  0.36672227907E+02  0.37033943307E+02  0.54544736808E+02  0.41800000000E+01 0. -1.
        -11    1    1    2    0    0 -0.85082855073E+02 -0.27159864347E+02  0.14393675534E+03  0.16939462800E+03  0.00000000000E+00 0.  1.
         11    1    1    2    0    0 -0.14054959721E+03 -0.17102686846E+02  0.71256142399E+02  0.15850592735E+03  0.00000000000E+00 0. -1.
</event>
<event>
 7    1  0.2842702E-009  0.7238890E+02  0.7561462E-02  0.1352153E+00
          4   -1    0    0  501    0  0.00000000000E+00  0.00000000000E+00  0.10931093311E+03  0.10931093311E+03  0.00000000000E+00 0. -1.
         -4   -1    0    0    0  501 -0.00000000000E+00 -0.00000000000E+00 -0.10845553482E+03  0.10845553482E+03  0.00000000000E+00 0.  1.
         25    2    1    2    0    0  0.72055465412E+01 -0.65403576068E+01  0.27081406844E+01  0.12549551483E+03  0.12508834493E+03 0.  0.
          5    1    3    3  502    0  0.58170195291E+02  0.14134367323E+02  0.26282344431E+02  0.65511724055E+02  0.41800000000E+01 0. -1.
         -5    1    3    3    0  502 -0.50964648750E+02 -0.20674724930E+02 -0.23574203747E+02  0.59983790773E+02  0.41800000000E+01 0. -1.
        -11    1    1    2    0    0  0.10475283108E+02  0.56665128289E+01 -0.44515576802E+02  0.46081205516E+02  0.00000000000E+00 0.  1.
         11    1    1    2    0    0 -0.17680829649E+02  0.87384477787E+00  0.42662834409E+02  0.46189747581E+02  0.00000000000E+00 0. -1.
</event>
<event>
 7    1  0.2842702E-009  0.1682216E+03  0.7561462E-02  0.1179715E+00
         -1   -1    0    0    0  501 -0.00000000000E+00  0.00000000000E+00  0.50433167567E+03  0.50433167567E+03  0.00000000000E+00 0.  1.
          1   -1    0    0  501    0  0.00000000000E+00 -0.00000000000E+00 -0.67082347708E+02  0.67082347708E+02  0.00000000000E+00 0. -1.
         25    2    1    2    0    0 -0.13801654731E+03 -0.40832988768E+02  0.28446336408E+03  0.34246638542E+03  0.12509164377E+03 0.  0.
          5    1    3    3  502    0 -0.54323154420E+02 -0.71034011377E+02  0.82529561760E+02  0.12175975050E+03  0.41800000000E+01 0. -1.
         -5    1    3    3    0  502 -0.83693392885E+02  0.30201022608E+02  0.20193380232E+03  0.22070663492E+03  0.41800000000E+01 0. -1.
        -11    1    1    2    0    0  0.25850612850E+02 -0.17697122267E+02  0.72828667120E+02  0.79280874590E+02  0.00000000000E+00 0.  1.
         11    1    1    2    0    0  0.11216593446E+03  0.58530111035E+02  0.79957296762E+02  0.14966676336E+03  0.00000000000E+00 0. -1.
</event>
<event>
 7    1  0.2842702E-009  0.1141329E+03  0.7561462E-02  0.1253102E+00
         -1   -1    0    0    0  501 -0.00000000000E+00  0.00000000000E+00  0.23833312331E+02  0.23833312331E+02  0.00000000000E+00 0.  1.
          1   -1    0    0  501    0  0.00000000000E+00 -0.00000000000E+00 -0.81369499911E+03  0.81369499911E+03  0.00000000000E+00 0. -1.
         25    2    1    2    0    0 -0.48626176229E+02  0.75637620028E+01 -0.64059063785E+03  0.65454070475E+03  0.12508178667E+03 0.  0.
          5    1    3    3  502    0 -0.80173600228E+02  0.32475356313E+02 -0.32374254130E+03  0.33512558898E+03  0.41800000000E+01 0.  1.
         -5    1    3    3    0  502  0.31547423999E+02 -0.24911594310E+02 -0.31684809655E+03  0.31941511577E+03  0.41800000000E+01 0.  1.
        -11    1    1    2    0    0 -0.20529329593E+02  0.18215359857E+02 -0.19397490310E+02  0.33608262951E+02  0.00000000000E+00 0. -1.
         11    1    1    2    0    0  0.69155505822E+02 -0.25779121860E+02 -0.12987355862E+03  0.14937934375E+03  0.00000000000E+00 0.  1.
</event>
<event>
 7    1  0.2842702E-009  0.8658810E+02  0.7561462E-02  0.1311331E+00
          1   -1    0    0  501    0  0.00000000000E+00  0.00000000000E+00  0.90772363012E+02  0.90772363012E+02  0.00000000000E+00 0. -1.
         -1   -1    0    0    0  501 -0.00000000000E+00 -0.00000000000E+00 -0.39781233932E+03  0.39781233932E+03  0.00000000000E+00 0.  1.
         25    2    1    2    0    0  0.77557304013E+01  0.62279347091E+02  0.22023321938E+02  0.14167294629E+03  0.12508928241E+03 0.  0.
          5    1    3    3  502    0  0.58713827170E+01  0.22226377756E+02  0.73019144836E+02  0.76666504523E+02  0.41800000000E+01 0.  1.
         -5    1    3    3    0  502  0.18843476844E+01  0.40052969335E+02 -0.50995822898E+02  0.65006441772E+02  0.41800000000E+01 0.  1.
        -11    1    1    2    0    0 -0.29517937976E+02  0.12172075484E+02 -0.83883498176E+02  0.89754717704E+02  0.00000000000E+00 0.  1.
         11    1    1    2    0    0  0.21762207575E+02 -0.74451422575E+02 -0.24517980007E+03  0.25715703833E+03  0.00000000000E+00 0. -1.
</event>
<event>
 7    1  0.2842702E-009  0.1651434E+03  0.7561462E-02  0.1183009E+00
          2   -1    0    0  501    0  0.00000000000E+00  0.00000000000E+00  0.48543448617E+03  0.48543448617E+03  0.00000000000E+00 0. -1.
         -2   -1    0    0    0  501 -0.00000000000E+00 -0.00000000000E+00 -0.59694235943E+02  0.59694235943E+02  0.00000000000E+00 0.  1.
         25    2    1    2    0    0  0.59376428798E+01 -0.13078447150E+03  0.25314681112E+03  0.31124038158E+03  0.12508970203E+03 0.  0.
          5    1    3    3  502    0  0.34182828258E+02  0.93060135788E+01  0.73040721417E+02  0.81286450418E+02  0.41800000000E+01 0. -1.
         -5    1    3    3    0  502 -0.28245185378E+02 -0.14009048508E+03  0.18010608971E+03  0.22995393116E+03  0.41800000000E+01 0. -1.
        -11    1    1    2    0    0 -0.39943030311E+02  0.90517975623E+02  0.79545114915E+02  0.12695028510E+03  0.00000000000E+00 0.  1.
         11    1    1    2    0    0  0.34005387431E+02  0.40266495879E+02  0.93048324183E+02  0.10693805542E+03  0.00000000000E+00 0. -1.
</event>
<event>
 7    1  0.2842702E-009  0.1157012E+03  0.7561462E-02  0.1250362E+00
         -1   -1    0    0    0  501 -0.00000000000E+00  0.00000000000E+00  0.14814694367E+03  0.14814694367E+03  0.00000000000E+00 0.  1.
          1   -1    0    0  501    0  0.00000000000E+00 -0.00000000000E+00 -0.14610312636E+03  0.14610312636E+03  0.00000000000E+00 0. -1.
         25    2    1    2    0    0 -0.15474192550E+02 -0.41234068878E+02 -0.85630061448E+02  0.15785813506E+03  0.12508790632E+03 0.  0.
          5    1    3    3  502    0 -0.31356505916E+02  0.36023460025E+02 -0.10987548958E+02  0.49184537891E+02  0.41800000000E+01 0.  1.
         -5    1    3    3    0  502  0.15882313366E+02 -0.77257528903E+02 -0.74642512489E+02  0.10867359716E+03  0.41800000000E+01 0.  1.
        -11    1    1    2    0    0 -0.38483425076E+02  0.31316666653E+02  0.42139235022E+02  0.65095489429E+02  0.00000000000E+00 0.  1.
         11    1    1    2    0    0  0.53957617625E+02  0.99174022252E+01  0.45534643740E+02  0.71296445544E+02  0.00000000000E+00 0. -1.
</event>
<event>
 7    1  0.2842702E-009  0.1739898E+03  0.7561462E-02  0.1173750E+00
         -1   -1    0    0    0  501 -0.00000000000E+00  0.00000000000E+00  0.21558942724E+03  0.21558942724E+03  0.00000000000E+00 0.  1.
          1   -1    0    0  501    0  0.00000000000E+00 -0.00000000000E+00 -0.15379921658E+03  0.15379921658E+03  0.00000000000E+00 0. -1.
         25    2    1    2    0    0  0.17891625230E+02 -0.13500481135E+03  0.85285213005E+02  0.20363651248E+03  0.12509137587E+03 0.  0.
          5    1    3    3  502    0 -0.45614306397E+02 -0.14189697725E+02  0.16302685972E+02  0.50648419911E+02  0.41800000000E+01 0.  1.
         -5    1    3    3    0  502  0.63505931626E+02 -0.12081511363E+03  0.68982527032E+02  0.15298809257E+03  0.41800000000E+01 0.  1.
        -11    1    1    2    0    0  0.31176173596E+02  0.95559239516E+02 -0.21348763277E+02  0.10275841450E+03  0.00000000000E+00 0. -1.
         11    1    1    2    0    0 -0.49067798825E+02  0.39445571835E+02 -0.21462390754E+01  0.62993716838E+02  0.00000000000E+00 0.  1.
</event>
<event>
 7    1  0.2842702E-009  0.1222243E+03  0.7561462E-02  0.1239472E+00
          2   -1    0    0  501    0  0.00000000000E+00  0.00000000000E+00  0.54681927410E+03  0.54681927410E+03  0.00000000000E+00 0. -1.
         -2   -1    0    0    0  501 -0.00000000000E+00 -0.00000000000E+00 -0.33220473929E+02  0.33220473929E+02  0.00000000000E+00 0.  1.
         25    2    1    2    0    0  0.56916764870E+02 -0.57518431640E+02  0.26581305888E+03  0.30471468367E+03  0.12508624253E+03 0.  0.
          5    1    3    3  502    0  0.68745031450E+02  0.18481073621E+02  0.11371179370E+03  0.13422098889E+03  0.41800000000E+01 0.  1.
         -5    1    3    3    0  502 -0.11828266581E+02 -0.75999505261E+02  0.15210126518E+03  0.17049369478E+03  0.41800000000E+01 0.  1.
        -11    1    1    2    0    0 -0.28948160219E+02  0.61393857797E+02  0.78828368072E+02  0.10402458060E+03  0.00000000000E+00 0.  1.
         11    1    1    2    0    0 -0.27968604651E+02 -0.38754261574E+01  0.16895737321E+03  0.17130048376E+03  0.00000000000E+00 0. -1.
</event>
<event>
 7    1  0.2842702E-009  0.7618638E+02  0.7561462E-02  0.1340236E+00
          3   -1    0    0  501    0  0.00000000000E+00  0.00000000000E+00  0.13598589369E+03  0.13598589369E+03  0.00000000000E+00 0. -1.
         -3   -1    0    0    0  501 -0.00000000000E+00 -0.00000000000E+00 -0.10545996311E+03  0.10545996311E+03  0.00000000000E+00 0.  1.
         25    2    1    2    0    0  0.84353327880E+01  0.43681254882E+02  0.38579586540E+02  0.13825896923E+03  0.12509177115E+03 0.  0.
          5    1    3    3  502    0 -0.21628299941E+02  0.74916487488E+01  0.75056499914E+02  0.78580269398E+02  0.41800000000E+01 0.  1.
         -5    1    3    3    0  502  0.30063632729E+02  0.36189606133E+02 -0.36476913374E+02  0.59678699837E+02  0.41800000000E+01 0.  1.
        -11    1    1    2    0    0  0.29608576833E+02 -0.27906707593E+02  0.27227073400E+02  0.48956773552E+02  0.00000000000E+00 0. -1.
         11    1    1    2    0    0 -0.38043909621E+02 -0.15774547289E+02 -0.35280729361E+02  0.54230114011E+02  0.00000000000E+00 0.  1.
</event>
<event>
 7    1  0.2842702E-009  0.8244570E+02  0.7561462E-02  0.1322251E+00
          1   -1    0    0  501    0  0.00000000000E+00  0.00000000000E+00  0.27285932894E+03  0.27285932894E+03  0.00000000000E+00 0. -1.
         -1   -1    0    0    0  501 -0.00000000000E+00 -0.00000000000E+00 -0.49034189167E+02  0.49034189167E+02  0.00000000000E+00 0.  1.
         25    2    1    2    0    0  0.19136011656E+02 -0.31081172822E+02  0.10368844571E+03  0.16652761630E+03  0.12509167427E+03 0.  0.
          5    1    3    3  502    0  0.12022632864E+02  0.36538632755E+02  0.88707275331E+02  0.96778450500E+02  0.41800000000E+01 0. -1.
         -5    1    3    3    0  502  0.71133787925E+01 -0.67619805577E+02  0.14981170376E+02  0.69749165801E+02  0.41800000000E+01 0. -1.
        -11    1    1    2    0    0  0.11145378585E+02 -0.39025378485E+01 -0.11103029274E+02  0.16208840937E+02  0.00000000000E+00 0.  1.
         11    1    1    2    0    0 -0.30281390241E+02  0.34983710670E+02  0.13123972334E+03  0.13915706087E+03  0.00000000000E+00 0. -1.
</event>
<event>
 7    1  0.2842702E-009  0.8067980E+02  0.7561462E-02  0.1327133E+00
         -1   -1    0    0    0  501 -0.00000000000E+00  0.00000000000E+00  0.40897496153E+03  0.40897496153E+03  0.00000000000E+00 0.  1.
          1   -1    0    0  501    0  0.00000000000E+00 -0.00000000000E+00 -0.34082751636E+02  0.34082751636E+02  0.00000000000E+00 0. -1.
         25    2    1    2    0    0  0.32171732156E+02 -0.29970904541E+02  0.25230060855E+03  0.28502000638E+03  0.12509009350E+03 0.  0.
          5    1    3    3  502    0  0.29615260461E+01 -0.67177005184E+02  0.72145697534E+02  0.98711674764E+02  0.41800000000E+01 0. -1.
         -5    1    3    3    0  502  0.29210206110E+02  0.37206100644E+02  0.18015491102E+03  0.18630833162E+03  0.41800000000E+01 0. -1.
        -11    1    1    2    0    0 -0.63925843557E+01  0.15887635658E+02 -0.11589718868E+02  0.20678580342E+02  0.00000000000E+00 0. -1.
         11    1    1    2    0    0 -0.25779147800E+02  0.14083268883E+02  0.13418132021E+03  0.13735912645E+03  0.00000000000E+00 0.  1.
</event>
<event>
 7    1  0.2842702E-009  0.9092868E+02  0.7561462E-02  0.1300618E+00
         -1   -1    0    0    0  501 -0.00000000000E+00  0.00000000000E+00  0.21960988436E+02  0.21960988436E+02  0.00000000000E+00 0.  1.
          1   -1    0    0  501    0  0.00000000000E+00 -0.00000000000E+00 -0.71252993582E+03  0.71252993582E+03  0.00000000000E+00 0. -1.
         25    2    1    2    0    0  0.92295006727E+00  0.39779745944E+02 -0.52351549348E+03  0.53972156644E+03  0.12509043666E+03 0.  0.
          5    1    3    3  502    0  0.40970191935E+02  0.66650883002E+02 -0.25112035805E+03  0.26305855519E+03  0.41800000000E+01 0.  1.
         -5    1    3    3    0  502 -0.40047241868E+02 -0.26871137058E+02 -0.27239513542E+03  0.27666301124E+03  0.41800000000E+01 0.  1.
        -11    1    1    2    0    0 -0.15219235849E+02 -0.37698746076E+02 -0.17403745199E+03  0.17872284490E+03  0.00000000000E+00 0. -1.
         11    1    1    2    0    0  0.14296285781E+02 -0.20809998678E+01  0.69839980798E+01  0.16046512916E+02  0.00000000000E+00 0.  1.
</event>
<event>
 7    1  0.2842702E-009  0.1079553E+03  0.7561462E-02  0.1264404E+00
          2   -1    0    0  501    0  0.00000000000E+00  0.00000000000E+00  0.51632874184E+03  0.51632874184E+03  0.00000000000E+00 0. -1.
         -2   -1    0    0    0  501 -0.00000000000E+00 -0.00000000000E+00 -0.48324060756E+02  0.48324060756E+02  0.00000000000E+00 0.  1.
         25    2    1    2    0    0 -0.52138145128E+01  0.83650737433E+02  0.39205419846E+03  0.41997586618E+03  0.12509437999E+03 0.  0.
          5    1    3    3  502    0  0.22845096502E+01  0.89498106252E+02  0.13105648429E+03  0.15877154809E+03  0.41800000000E+01 0.  1.
         -5    1    3    3    0  502 -0.74983241630E+01 -0.58473688187E+01  0.26099771417E+03  0.26120431809E+03  0.41800000000E+01 0.  1.
        -11    1    1    2    0    0  0.42706304035E+02 -0.45841245058E+02  0.65070952923E+02  0.90329823796E+02  0.00000000000E+00 0. -1.
         11    1    1    2    0    0 -0.37492489523E+02 -0.37809492375E+02  0.10879529703E+02  0.54347112626E+02  0.00000000000E+00 0.  1.
</event>
<event>
 7    1  0.2842702E-009  0.9653465E+02  0.7561462E-02  0.1287757E+00
          1   -1    0    0  501    0  0.00000000000E+00  0.00000000000E+00  0.47907844506E+03  0.47907844506E+03  0.00000000000E+00 0. -1.
         -1   -1    0    0    0  501 -0.00000000000E+00 -0.00000000000E+00 -0.28024339750E+02  0.28024339750E+02  0.00000000000E+00 0.  1.
         25    2    1    2    0    0 -0.20457548329E+02 -0.12688329138E+02  0.33033792088E+03  0.35404365191E+03  0.12507701831E+03 0.  0.
          5    1    3    3  502    0  0.40317948146E+02  0.17050614940E+02  0.54659745160E+02  0.70152837102E+02  0.41800000000E+01 0.  1.
         -5    1    3    3    0  502 -0.60775496475E+02 -0.29738944078E+02  0.27567817572E+03  0.28389081481E+03  0.41800000000E+01 0.  1.
        -11    1    1    2    0    0  0.49330475398E+02 -0.10238735738E+01  0.10785440427E+03  0.11860487612E+03  0.00000000000E+00 0.  1.
         11    1    1    2    0    0 -0.28872927069E+02  0.13712202712E+02  0.12861780160E+02  0.34454256771E+02  0.00000000000E+00 0. -1.
</event>
<event>
 7    1  0.2842702E-009  0.8066323E+02  0.7561462E-02  0.1327180E+00
         -2   -1    0    0    0  501 -0.00000000000E+00  0.00000000000E+00  0.30338377932E+02  0.30338377932E+02  0.00000000000E+00 0. -1.
          2   -1    0    0  501    0  0.00000000000E+00 -0.00000000000E+00 -0.54238596055E+03  0.54238596055E+03  0.00000000000E+00 0.  1.
         25    2    1    2    0    0 -0.23901077751E+02 -0.29989345044E+02 -0.17464753610E+03  0.21822096443E+03  0.12509198661E+03 0.  0.
          5    1    3    3  502    0  0.88868563679E+01  0.12861855952E+01  0.17852287681E+02  0.20415853274E+02  0.41800000000E+01 0.  1.
         -5    1    3    3    0  502 -0.32787934119E+02 -0.31275530640E+02 -0.19249982379E+03  0.19780511115E+03  0.41800000000E+01 0.  1.
        -11    1    1    2    0    0  0.62659072145E+02  0.21455781536E+02 -0.16958004220E+03  0.18205466375E+03  0.00000000000E+00 0. -1.
         11    1    1    2    0    0 -0.38757994394E+02  0.85335635086E+01 -0.16782000431E+03  0.17244871030E+03  0.00000000000E+00 0.  1.
</event>
<event>
 7    1  0.2842702E-009  0.1166102E+03  0.7561462E-02  0.1248796E+00
         -2   -1    0    0    0  501 -0.00000000000E+00  0.00000000000E+00  0.16648581875E+03  0.16648581875E+03  0.00000000000E+00 0.  1.
          2   -1    0    0  501    0  0.00000000000E+00 -0.00000000000E+00 -0.14859678210E+03  0.14859678210E+03  0.00000000000E+00 0. -1.
         25    2    1    2    0    0 -0.42174705140E+02 -0.13334127179E+02 -0.95454236812E+02  0.16340850258E+03  0.12503728520E+03 0.  0.
          5    1    3    3  502    0  0.31742951052E+02 -0.42257108809E+02 -0.34679926574E+02  0.63351778930E+02  0.41800000000E+01 0. -1.
         -5    1    3    3    0  502 -0.73917656192E+02  0.28922981630E+02 -0.60774310238E+02  0.10005672365E+03  0.41800000000E+01 0. -1.
        -11    1    1    2    0    0 -0.25050339990E+02 -0.13357388627E+02  0.34513508093E+02  0.44689166533E+02  0.00000000000E+00 0. -1.
         11    1    1    2    0    0  0.67225045130E+02  0.26691515806E+02  0.78829765375E+02  0.10698493173E+03  0.00000000000E+00 0.  1.
</event>
<event>
 7    1  0.2842702E-009  0.1216580E+03  0.7561462E-02  0.1240387E+00
          2   -1    0    0  501    0  0.00000000000E+00  0.00000000000E+00  0.18010519654E+03  0.18010519654E+03  0.00000000000E+00 0. -1.
         -2   -1    0    0    0  501 -0.00000000000E+00 -0.00000000000E+00 -0.14745125210E+03  0.14745125210E+03  0.00000000000E+00 0.  1.
         25    2    1    2    0    0 -0.84550941483E+02 -0.69203727533E+01  0.64292926053E+02  0.16424957627E+03  0.12509032616E+03 0.  0.
          5    1    3    3  502    0 -0.11726419198E+03  0.44250176589E+00  0.50805715237E+02  0.12786625681E+03  0.41800000000E+01 0.  1.
         -5    1    3    3    0  502  0.32713250499E+02 -0.73628745192E+01  0.13487210815E+02  0.36383319461E+02  0.41800000000E+01 0.  1.
        -11    1    1    2    0    0  0.19541441678E+02  0.17606709378E+02  0.51141753739E+02  0.57509504723E+02  0.00000000000E+00 0. -1.
         11    1    1    2    0    0  0.65009499805E+02 -0.10686336625E+02 -0.82780735356E+02  0.10579736765E+03  0.00000000000E+00 0.  1.
</event>
<event>
 7    1  0.2842702E-009  0.1176105E+03  0.7561462E-02  0.1247092E+00
          2   -1    0    0  501    0  0.00000000000E+00  0.00000000000E+00  0.10489031883E+04  0.10489031883E+04  0.00000000000E+00 0. -1.
         -2   -1    0    0    0  501 -0.00000000000E+00 -0.00000000000E+00 -0.16133571430E+02  0.16133571430E+02  0.00000000000E+00 0.  1.
         25    2    1    2    0    0 -0.58167876003E+02  0.43041723125E+02  0.58025587128E+03  0.59797762321E+03  0.12507705619E+03 0.  0.
          5    1    3    3  502    0 -0.76554752561E+02  0.59094323736E+02  0.27168359111E+03  0.28841327174E+03  0.41800000000E+01 0.  1.
         -5    1    3    3    0  502  0.18386876558E+02 -0.16052600611E+02  0.30857228016E+03  0.30956435147E+03  0.41800000000E+01 0.  1.
        -11    1    1    2    0    0  0.13320228788E+02 -0.63127403744E+02  0.21301389006E+03  0.22257002259E+03  0.00000000000E+00 0. -1.
         11    1    1    2    0    0  0.44847647215E+02  0.20085680619E+02  0.23949985556E+03  0.24448911395E+03  0.00000000000E+00 0.  1.
</event>
<event>
 7    1  0.2842702E-009  0.1460855E+03  0.7561462E-02  0.1205367E+00
          2   -1    0    0  501    0  0.00000000000E+00  0.00000000000E+00  0.10291142339E+04  0.10291142339E+04  0.00000000000E+00 0. -1.
         -2   -1    0    0    0  501 -0.00000000000E+00 -0.00000000000E+00 -0.21060000260E+02  0.21060000260E+02  0.00000000000E+00 0.  1.
         25    2    1    2    0    0  0.40167517130E+02 -0.88685778191E+02  0.48811106340E+03  0.51321602173E+03  0.12513863536E+03 0.  0.
          5    1    3    3  502    0 -0.45114779528E+02 -0.35969260212E+02  0.19528332339E+03  0.20367174524E+03  0.41800000000E+01 0.  1.
         -5    1    3    3    0  502  0.85282296658E+02 -0.52716517979E+02  0.29282774001E+03  0.30954427649E+03  0.41800000000E+01 0.  1.
        -11    1    1    2    0    0 -0.26956815423E+02 -0.14045686342E+02  0.12804804520E+03  0.13160643253E+03  0.00000000000E+00 0.  1.
         11    1    1    2    0    0 -0.13210701707E+02  0.10273146453E+03  0.39189512506E+03  0.40535177992E+03  0.00000000000E+00 0. -1.
</event>
<event>
 7    1  0.2842702E-009  0.1138380E+03  0.7561462E-02  0.1253623E+00
         -2   -1    0    0    0  501 -0.00000000000E+00  0.00000000000E+00  0.21763067668E+02  0.21763067668E+02  0.00000000000E+00 0.  1.
          2   -1    0    0  501    0  0.00000000000E+00 -0.00000000000E+00 -0.83256232432E+03  0.83256232432E+03  0.00000000000E+00 0. -1.
         25    2    1    2    0    0 -0.54499825267E+02  0.25139310239E+02 -0.59559934146E+03  0.61154801118E+03  0.12510067367E+03 0.  0.
          5    1    3    3  502    0 -0.72758333780E+02  0.50283273576E+02 -0.54408371663E+03  0.55124109593E+03  0.41800000000E+01 0. -1.
         -5    1    3    3    0  502  0.18258508513E+02 -0.25143963337E+02 -0.51515624829E+02  0.60306915249E+02  0.41800000000E+01 0. -1.
        -11    1    1    2    0    0  0.56310972776E+02 -0.54498889235E+02 -0.18349698343E+03  0.19952994139E+03  0.00000000000E+00 0.  1.
         11    1    1    2    0    0 -0.18111475087E+01  0.29359578996E+02 -0.31702931755E+02  0.43247439415E+02  0.00000000000E+00 0. -1.
</event>
<event>
 7    1  0.2842702E-009  0.9558256E+02  0.7561462E-02  0.1289869E+00
         -2   -1    0    0    0  501 -0.00000000000E+00  0.00000000000E+00  0.21382397474E+02  0.21382397474E+02  0.00000000000E+00 0.  1.
          2   -1    0    0  501    0  0.00000000000E+00 -0.00000000000E+00 -0.59193773691E+03  0.59193773691E+03  0.00000000000E+00 0. -1.
         25    2    1    2    0    0 -0.22926770439E+02  0.15794089560E+02 -0.34205953111E+03  0.36527629106E+03  0.12508779286E+03 0.  0.
          5    1    3    3  502    0  0.19413621017E+02  0.42939357791E+02 -0.49791621882E+02  0.68683004726E+02  0.41800000000E+01 0. -1.
         -5    1    3    3    0  502 -0.42340391456E+02 -0.27145268231E+02 -0.29226790923E+03  0.29659328634E+03  0.41800000000E+01 0. -1.
        -11    1    1    2    0    0 -0.17673389427E+02 -0.41656172090E+02 -0.79633601982E+02  0.91592008012E+02  0.00000000000E+00 0.  1.
         11    1    1    2    0    0  0.40600159866E+02  0.25862082530E+02 -0.14886220634E+03  0.15645183531E+03  0.00000000000E+00 0. -1.
</event>
<event>
 7    1  0.2842702E-009  0.1183118E+03  0.7561462E-02  0.1245908E+00
         -2   -1    0    0    0  501 -0.00000000000E+00  0.00000000000E+00  0.22386473234E+02  0.22386473234E+02  0.00000000000E+00 0. -1.
          2   -1    0    0  501    0  0.00000000000E+00 -0.00000000000E+00 -0.96753159867E+03  0.96753159867E+03  0.00000000000E+00 0.  1.
         25    2    1    2    0    0 -0.69499918034E+02  0.15801274835E+02 -0.73895560354E+03  0.75285112715E+03  0.12509802857E+03 0.  0.
          5    1    3    3  502    0 -0.10226102522E+03  0.85339704868E+01 -0.64210515407E+03  0.65026659703E+03  0.41800000000E+01 0. -1.
         -5    1    3    3    0  502  0.32761107188E+02  0.72673043486E+01 -0.96850449475E+02  0.10258453012E+03  0.41800000000E+01 0. -1.
        -11    1    1    2    0    0  0.77603653418E+02  0.50166699490E+01 -0.90867026640E+02  0.11960062931E+03  0.00000000000E+00 0. -1.
         11    1    1    2    0    0 -0.81037353837E+01 -0.20817944784E+02 -0.11532249526E+03  0.11746631545E+03  0.00000000000E+00 0.  1.
</event>
<event>
 7    1  0.2842702E-009  0.6952018E+02  0.7561462E-02  0.1361732E+00
         -1   -1    0    0    0  501 -0.00000000000E+00  0.00000000000E+00  0.12172174882E+02  0.12172174882E+02  0.00000000000E+00 0.  1.
          1   -1    0    0  501    0  0.00000000000E+00 -0.00000000000E+00 -0.14541839291E+04  0.14541839291E+04  0.00000000000E+00 0. -1.
         25    2    1    2    0    0 -0.38843736859E+02  0.14464586899E+02 -0.12331838439E+04  0.12402049795E+04  0.12509171882E+03 0.  0.
          5    1    3    3  502    0 -0.18229882930E+01 -0.17231444444E+02 -0.10625237836E+04  0.10626732843E+04  0.41800000000E+01 0. -1.
         -5    1    3    3    0  502 -0.37020748566E+02  0.31696031343E+02 -0.17066006024E+03  0.17753169517E+03  0.41800000000E+01 0. -1.
        -11    1    1    2    0    0 -0.57918149557E+01  0.16822859762E+02 -0.10924583894E+02  0.20878224645E+02  0.00000000000E+00 0.  1.
         11    1    1    2    0    0  0.44635551815E+02 -0.31287446661E+02 -0.19790332644E+03  0.20527289987E+03  0.00000000000E+00 0. -1.
</event>
<event>
 7    1  0.2842702E-009  0.2346333E+03  0.7561462E-02  0.1123420E+00
          2   -1    0    0  501    0  0.00000000000E+00  0.00000000000E+00  0.17864688863E+04  0.17864688863E+04  0.00000000000E+00 0. -1.
         -2   -1    0    0    0  501 -0.00000000000E+00 -0.00000000000E+00 -0.37739457500E+02  0.37739457500E+02  0.00000000000E+00 0.  1.
         25    2    1    2    0    0  0.19251265037E+03 -0.99988857383E+02  0.12076989425E+04  0.12333867045E+04  0.12508850852E+03 0.  0.
          5    1    3    3  502    0  0.43180226470E+02  0.27110044157E+02  0.33761294658E+03  0.34146663168E+03  0.41800000000E+01 0.  1.
         -5    1    3    3    0  502  0.14933242390E+03 -0.12709890154E+03  0.87008599596E+03  0.89192007286E+03  0.41800000000E+01 0.  1.
        -11    1    1    2    0    0 -0.14092509926E+03  0.95394605496E+02  0.30585195835E+03  0.35000776390E+03  0.00000000000E+00 0.  1.
         11    1    1    2    0    0 -0.51587551112E+02  0.45942518873E+01  0.23517852788E+03  0.24081387534E+03  0.00000000000E+00 0. -1.
</event>
<event>
 7    1  0.2842702E-009  0.1090013E+03  0.7561462E-02  0.1262431E+00
         -1   -1    0    0    0  501 -0.00000000000E+00  0.00000000000E+00  0.29756812169E+03  0.29756812169E+03  0.00000000000E+00 0.  1.
          1   -1    0    0  501    0  0.00000000000E+00 -0.00000000000E+00 -0.41936590727E+02  0.41936590727E+02  0.00000000000E+00 0. -1.
         25    2    1    2    0    0 -0.75597797541E+01  0.14297094874E+02  0.18351775607E+03  0.22268522103E+03  0.12509349975E+03 0.  0.
          5    1    3    3  502    0 -0.48416967547E+02 -0.36504340665E+02  0.90784576254E+02  0.10925237443E+03  0.41800000000E+01 0. -1.
         -5    1    3    3    0  502  0.40857187793E+02  0.50801435540E+02  0.92733179817E+02  0.11343284659E+03  0.41800000000E+01 0. -1.
        -11    1    1    2    0    0  0.16109159824E+02 -0.51376767955E+02  0.43042443230E+02  0.68932787808E+02  0.00000000000E+00 0. -1.
         11    1    1    2    0    0 -0.85493800698E+01  0.37079673080E+02  0.29071331659E+02  0.47886703580E+02  0.00000000000E+00 0.  1.
</event>
<event>
 7    1  0.2842702E-009  0.1114261E+03  0.7561462E-02  0.1257952E+00
          2   -1    0    0  501    0  0.00000000000E+00  0.00000000000E+00  0.63370573826E+02  0.63370573826E+02  0.00000000000E+00 0. -1.
         -2   -1    0    0    0  501 -0.00000000000E+00 -0.00000000000E+00 -0.31068812587E+03  0.31068812587E+03  0.00000000000E+00 0.  1.
         25    2    1    2    0    0  0.34662734562E+02  0.45170802678E+02 -0.43417144501E+02  0.14413355372E+03  0.12509007271E+03 0.  0.
          5    1    3    3  502    0  0.76836854818E+02  0.35634369236E+01 -0.15805385357E+02  0.78637668755E+02  0.41800000000E+01 0. -1.
         -5    1    3    3    0  502 -0.42174120256E+02  0.41607365755E+02 -0.27611759144E+02  0.65495884966E+02  0.41800000000E+01 0. -1.
        -11    1    1    2    0    0  0.55787376033E+01 -0.45842930730E+02 -0.17335112062E+03  0.17939706695E+03  0.00000000000E+00 0.  1.
         11    1    1    2    0    0 -0.40241472165E+02  0.67212805179E+00 -0.30549286923E+02  0.50528079022E+02  0.00000000000E+00 0. -1.
</event>
<event>
 7    1  0.2842702E-009  0.8406562E+02  0.7561462E-02  0.1317894E+00
          2   -1    0    0  501    0  0.00000000000E+00  0.00000000000E+00  0.69761474646E+03  0.69761474646E+03  0.00000000000E+00 0. -1.
         -2   -1    0    0    0  501 -0.00000000000E+00 -0.00000000000E+00 -0.19183151018E+02  0.19183151018E+02  0.00000000000E+00 0.  1.
         25    2    1    2    0    0 -0.23160496785E+01  0.17912659669E+02  0.26881955935E+03  0.29704829319E+03  0.12508998975E+03 0.  0.
          5    1    3    3  502    0  0.32701384112E+02 -0.65518225828E+01  0.10538944766E+02  0.35225681807E+02  0.41800000000E+01 0. -1.
         -5    1    3    3    0  502 -0.35017433790E+02  0.24464482252E+02  0.25828061459E+03  0.26182261138E+03  0.41800000000E+01 0. -1.
        -11    1    1    2    0    0  0.16256274537E+02 -0.52153517767E+02  0.23481381802E+03  0.24108460136E+03  0.00000000000E+00 0. -1.
         11    1    1    2    0    0 -0.13940224858E+02  0.34240858098E+02  0.17479821806E+03  0.17866500293E+03  0.00000000000E+00 0.  1.
</event>
<event>
 7    1  0.2842702E-009  0.1074931E+03  0.7561462E-02  0.1265284E+00
         -2   -1    0    0    0  501 -0.00000000000E+00  0.00000000000E+00  0.36801825722E+02  0.36801825722E+02  0.00000000000E+00 0.  1.
          2   -1    0    0  501    0  0.00000000000E+00 -0.00000000000E+00 -0.48895652459E+03  0.48895652459E+03  0.00000000000E+00 0. -1.
         25    2    1    2    0    0  0.32269130060E+02 -0.40785572398E+02 -0.29208735076E+03  0.32197317013E+03  0.12508773777E+03 0.  0.
          5    1    3    3  502    0  0.54248132356E+02  0.22652280643E+02 -0.79274031226E+02  0.98781729633E+02  0.41800000000E+01 0.  1.
         -5    1    3    3    0  502 -0.21979002296E+02 -0.63437853040E+02 -0.21281331953E+03  0.22319144049E+03  0.41800000000E+01 0.  1.
        -11    1    1    2    0    0 -0.94153048281E+01 -0.20941494389E+02  0.71753833536E+01  0.24055774328E+02  0.00000000000E+00 0.  1.
         11    1    1    2    0    0 -0.22853825232E+02  0.61727066786E+02 -0.16724273147E+03  0.17972940586E+03  0.00000000000E+00 0. -1.
</event>
<event>
 7    1  0.2842702E-009  0.9185359E+02  0.7561462E-02  0.1298424E+00
         -2   -1    0    0    0  501 -0.00000000000E+00  0.00000000000E+00  0.26695816597E+02  0.26695816597E+02  0.00000000000E+00 0.  1.
          2   -1    0    0  501    0  0.00000000000E+00 -0.00000000000E+00 -0.45918225437E+03  0.45918225437E+03  0.00000000000E+00 0. -1.
         25    2    1    2    0    0 -0.11737643383E+02  0.72370501956E+01 -0.24143845144E+03  0.27226820483E+03  0.12508917763E+03 0.  0.
          5    1    3    3  502    0 -0.47091928518E+02 -0.38530832868E+02 -0.16780791092E+03  0.17854759080E+03  0.41800000000E+01 0.  1.
         -5    1    3    3    0  502  0.35354285135E+02  0.45767883063E+02 -0.73630540521E+02  0.93720614034E+02  0.41800000000E+01 0.  1.
        -11    1    1    2    0    0  0.11316293969E+02 -0.35094169713E+02 -0.23420056538E+02  0.43682471373E+02  0.00000000000E+00 0.  1.
         11    1    1    2    0    0  0.42134941412E+00  0.27857119518E+02 -0.16762792980E+03  0.16992739476E+03  0.00000000000E+00 0. -1.
</event>
<event>
 7    1  0.2842702E-009  0.7689963E+02  0.7561462E-02  0.1338087E+00
         -1   -1    0    0    0  501 -0.00000000000E+00  0.00000000000E+00  0.22312670928E+02  0.22312670928E+02  0.00000000000E+00 0.  1.
          1   -1    0    0  501    0  0.00000000000E+00 -0.00000000000E+00 -0.69251365388E+03  0.69251365388E+03  0.00000000000E+00 0. -1.
         25    2    1    2    0    0 -0.27699485727E+02 -0.14620691454E+02 -0.52054690556E+03  0.53628361109E+03  0.12509997805E+03 0.  0.
          5    1    3    3  502    0  0.15838750390E+02  0.89092933319E+01 -0.44786547636E+03  0.44825349841E+03  0.41800000000E+01 0. -1.
         -5    1    3    3    0  502 -0.43538236117E+02 -0.23529984786E+02 -0.72681429204E+02  0.88030112685E+02  0.41800000000E+01 0. -1.
        -11    1    1    2    0    0 -0.54829164559E+01  0.42067586683E+02 -0.11713510839E+03  0.12458080848E+03  0.00000000000E+00 0. -1.
         11    1    1    2    0    0  0.33182402183E+02 -0.27446895230E+02 -0.32518968998E+02  0.53961905239E+02  0.00000000000E+00 0.  1.
</event>
<event>
 7    1  0.2842702E-009  0.1000106E+03  0.7561462E-02  0.1280274E+00
         -4   -1    0    0    0  501 -0.00000000000E+00  0.00000000000E+00  0.47250576233E+02  0.47250576233E+02  0.00000000000E+00 0.  1.
          4   -1    0    0  501    0  0.00000000000E+00 -0.00000000000E+00 -0.39051674722E+03  0.39051674722E+03  0.00000000000E+00 0. -1.
         25    2    1    2    0    0  0.81054325908E+02  0.80756601660E+01 -0.18367772632E+03  0.23668607206E+03  0.12509104495E+03 0.  0.
          5    1    3    3  502    0  0.77626075633E+02  0.52234913165E+00 -0.30947691327E+02  0.83673845766E+02  0.41800000000E+01 0.  1.
         -5    1    3    3    0  502  0.34282502756E+01  0.75533110343E+01 -0.15273003499E+03  0.15301222629E+03  0.41800000000E+01 0.  1.
        -11    1    1    2    0    0 -0.91726642008E+02  0.97215918260E+01 -0.91597036714E+02  0.12999347421E+03  0.00000000000E+00 0.  1.
         11    1    1    2    0    0  0.10672316100E+02 -0.17797251992E+02 -0.67991407960E+02  0.71087777190E+02  0.00000000000E+00 0. -1.
</event>
<event>
 7    1  0.2842702E-009  0.9674553E+02  0.7561462E-02  0.1287292E+00
          1   -1    0    0  501    0  0.00000000000E+00  0.00000000000E+00  0.39936809458E+02  0.39936809458E+02  0.00000000000E+00 0. -1.
         -1   -1    0    0    0  501 -0.00000000000E+00 -0.00000000000E+00 -0.34579520937E+03  0.34579520937E+03  0.00000000000E+00 0.  1.
         25    2    1    2    0    0  0.25051596160E+02  0.33477484487E+02 -0.21347894502E+03  0.25094183796E+03  0.12510084586E+03 0.  0.
          5    1    3    3  502    0 -0.29229186559E+02 -0.25433211019E+02 -0.12764256237E+03  0.13345894387E+03  0.41800000000E+01 0. -1.
         -5    1    3    3    0  502  0.54280782719E+02  0.58910695506E+02 -0.85836382642E+02  0.11748289409E+03  0.41800000000E+01 0. -1.
        -11    1    1    2    0    0  0.63637481323E+01  0.15139621891E+02  0.84936718647E+01  0.18489129321E+02  0.00000000000E+00 0. -1.
         11    1    1    2    0    0 -0.31415344292E+02 -0.48617106378E+02 -0.10087312676E+03  0.11630105156E+03  0.00000000000E+00 0.  1.
</event>
<event>
 7    1  0.2842702E-009  0.1549000E+03  0.7561462E-02  0.1194578E+00
         -2   -1    0    0    0  501 -0.00000000000E+00  0.00000000000E+00  0.39429850246E+02  0.39429850246E+02  0.00000000000E+00 0.  1.
          2   -1    0    0  501    0  0.00000000000E+00 -0.00000000000E+00 -0.85556685213E+03  0.85556685213E+03  0.00000000000E+00 0. -1.
         25    2    1    2    0    0  0.82854284700E+02 -0.76843930713E+02 -0.19601580338E+03  0.25853573484E+03  0.12509479939E+03 0.  0.
          5    1    3    3  502    0 -0.23059386284E+02  0.13695892372E+02 -0.48463646958E+02  0.55547369336E+02  0.41800000000E+01 0. -1.
         -5    1    3    3    0  502  0.10591367098E+03 -0.90539823084E+02 -0.14755215642E+03  0.20298836550E+03  0.41800000000E+01 0. -1.
        -11    1    1    2    0    0  0.18933257461E+02  0.14977085351E+02 -0.10992142561E+03  0.11254110863E+03  0.00000000000E+00 0.  1.
         11    1    1    2    0    0 -0.10178754216E+03  0.61866845361E+02 -0.51019977289E+03  0.52391985890E+03  0.00000000000E+00 0. -1.
</event>
<event>
 7    1  0.2842702E-009  0.1115453E+03  0.7561462E-02  0.1257735E+00
          1   -1    0    0  501    0  0.00000000000E+00  0.00000000000E+00  0.56651992444E+03  0.56651992444E+03  0.00000000000E+00 0. -1.
         -1   -1    0    0    0  501 -0.00000000000E+00 -0.00000000000E+00 -0.39509780931E+02  0.39509780931E+02  0.00000000000E+00 0.  1.
         25    2    1    2    0    0  0.46014877035E+02 -0.92466339824E+02  0.27933584815E+03  0.32302097847E+03  0.12508654427E+03 0.  0.
          5    1    3    3  502    0  0.30157022414E+02 -0.24045658499E+02  0.23857361343E+03  0.24170742876E+03  0.41800000000E+01 0. -1.
         -5    1    3    3    0  502  0.15857854620E+02 -0.68420681325E+02  0.40762234726E+02  0.81313549707E+02  0.41800000000E+01 0. -1.
        -11    1    1    2    0    0 -0.15193733963E+02  0.78747289868E+02  0.23263616572E+03  0.24607228779E+03  0.00000000000E+00 0. -1.
         11    1    1    2    0    0 -0.30821143071E+02  0.13719049957E+02  0.15038129631E+02  0.36936439118E+02  0.00000000000E+00 0.  1.
</event>
<event>
 7    1  0.2842702E-009  0.9877733E+02  0.7561462E-02  0.1282888E+00
         -2   -1    0    0    0  501 -0.00000000000E+00  0.00000000000E+00  0.88485846378E+02  0.88485846378E+02  0.00000000000E+00 0.  1.
          2   -1    0    0  501    0  0.00000000000E+00 -0.00000000000E+00 -0.20527111212E+03  0.20527111212E+03  0.00000000000E+00 0. -1.
         25    2    1    2    0    0 -0.59965397625E+02 -0.25101923182E+02 -0.11640212242E+02  0.14145711429E+03  0.12509462492E+03 0.  0.
          5    1    3    3  502    0  0.16161226732E+01 -0.30794611728E+02 -0.56799825066E+02  0.64765828115E+02  0.41800000000E+01 0.  1.
         -5    1    3    3    0  502 -0.61581520298E+02  0.56926885464E+01  0.45159612824E+02  0.76691286177E+02  0.41800000000E+01 0.  1.
        -11    1    1    2    0    0  0.78073620026E+02  0.32915372003E+02 -0.62407500458E+02  0.10523121196E+03  0.00000000000E+00 0.  1.
         11    1    1    2    0    0 -0.18108222401E+02 -0.78134488216E+01 -0.42737553039E+02  0.47068632238E+02  0.00000000000E+00 0. -1.
</event>
<event>
 7    1  0.2842702E-009  0.9574266E+02  0.7561462E-02  0.1289512E+00
          4   -1    0    0  501    0  0.00000000000E+00  0.00000000000E+00  0.80179694051E+03  0.80179694051E+03  0.00000000000E+00 0.  1.
         -4   -1    0    0    0  501 -0.00000000000E+00 -0.00000000000E+00 -0.21825927031E+02  0.21825927031E+02  0.00000000000E+00 0. -1.
         25    2    1    2    0    0  0.41045909317E+02 -0.29607328046E+02  0.60991548381E+03  0.62466302022E+03  0.12508249639E+03 0.  0.
          5    1    3    3  502    0 -0.40717307713E+01  0.28285212582E+02  0.36452023479E+02  0.46506501244E+02  0.41800000000E+01 0. -1.
         -5    1    3    3    0  502  0.45117640088E+02 -0.57892540628E+02  0.57346346033E+03  0.57815651898E+03  0.41800000000E+01 0. -1.
        -11    1    1    2    0    0  0.21262843790E+02  0.11641765527E+02  0.99198115771E+01  0.26192401424E+02  0.00000000000E+00 0. -1.
         11    1    1    2    0    0 -0.62308753106E+02  0.17965562518E+02  0.16013571809E+03  0.17276744589E+03  0.00000000000E+00 0.  1.
</event>
<event>
 7    1  0.2842702E-009  0.1493176E+03  0.7561462E-02  0.1201314E+00
          2   -1    0    0  501    0  0.00000000000E+00  0.00000000000E+00  0.40833347405E+03  0.40833347405E+03  0.00000000000E+00 0. -1.
         -2   -1    0    0    0  501 -0.00000000000E+00 -0.00000000000E+00 -0.87087353969E+02  0.87087353969E+02  0.00000000000E+00 0.  1.
         25    2    1    2    0    0 -0.13601236703E+03 -0.48757628682E+01  0.25600338224E+03  0.31576614468E+03  0.12508952536E+03 0.  0.
          5    1    3    3  502    0 -0.26683165465E+02 -0.14208687609E+02 -0.65170114728E+01  0.31206120575E+02  0.41800000000E+01 0.  1.
         -5    1    3    3    0  502 -0.10932920157E+03  0.93329247413E+01  0.26252039372E+03  0.28456002410E+03  0.41800000000E+01 0.  1.
        -11    1    1    2    0    0  0.10530456862E+03 -0.32248809122E+02  0.16931509947E+02  0.11142582237E+03  0.00000000000E+00 0. -1.
         11    1    1    2    0    0  0.30707798410E+02  0.37124571990E+02  0.48311227895E+02  0.68228860971E+02  0.00000000000E+00 0.  1.
</event>
<event>
 7    1  0.2842702E-009  0.1260179E+03  0.7561462E-02  0.1233487E+00
         -1   -1    0    0    0  501 -0.00000000000E+00  0.00000000000E+00  0.12325982375E+03  0.12325982375E+03  0.00000000000E+00 0.  1.
          1   -1    0    0  501    0  0.00000000000E+00 -0.00000000000E+00 -0.16113791787E+03  0.16113791787E+03  0.00000000000E+00 0. -1.
         25    2    1    2    0    0  0.61713189895E+02 -0.79026625296E+02 -0.31732057519E+02  0.16342475825E+03  0.12508798032E+03 0.  0.
          5    1    3    3  502    0 -0.21258931361E+02  0.14947503765E+02  0.14126790561E+02  0.29873209452E+02  0.41800000000E+01 0. -1.
         -5    1    3    3    0  502  0.82972121257E+02 -0.93974129061E+02 -0.45858848081E+02  0.13355154880E+03  0.41800000000E+01 0. -1.
        -11    1    1    2    0    0 -0.49006622777E+02  0.63853631495E+02  0.24812281532E+02  0.84229357387E+02  0.00000000000E+00 0.  1.
         11    1    1    2    0    0 -0.12706567119E+02  0.15172993802E+02 -0.30958318132E+02  0.36743625983E+02  0.00000000000E+00 0. -1.
</event>
<event>
 7    1  0.3495443E-009  0.1193771E+03  0.7561462E-02  0.1244128E+00
          2   -1    0    0  501    0  0.00000000000E+00  0.00000000000E+00  0.43326136849E+03  0.43326136849E+03  0.00000000000E+00 0. -1.
         -2   -1    0    0    0  501 -0.00000000000E+00 -0.00000000000E+00 -0.39732655567E+02  0.39732655567E+02  0.00000000000E+00 0.  1.
         25    2    1    2    0    0  0.70843191852E+02  0.17904585715E+02  0.20307118261E+03  0.24944855373E+03  0.12508934300E+03 0.  0.
          5    1    3    3  502    0  0.90233561480E+02  0.52336485940E+02  0.15784799336E+03  0.18924762822E+03  0.41800000000E+01 0.  1.
         -5    1    3    3    0  502 -0.19390369628E+02 -0.34431900225E+02  0.45223189249E+02  0.60200925519E+02  0.41800000000E+01 0.  1.
        -11    1    1    2    0    0 -0.46398820968E+02 -0.40308612242E+02  0.50012872189E+02  0.79239650382E+02  0.00000000000E+00 0.  1.
         11    1    1    2    0    0 -0.24444370885E+02  0.22404026527E+02  0.14044465813E+03  0.14430581994E+03  0.00000000000E+00 0. -1.
</event>
<event>
 7    1  0.2842702E-009  0.8782753E+02  0.7561462E-02  0.1308200E+00
         -2   -1    0    0    0  501 -0.00000000000E+00  0.00000000000E+00  0.58635744522E+02  0.58635744522E+02  0.00000000000E+00 0.  1.
          2   -1    0    0  501    0  0.00000000000E+00 -0.00000000000E+00 -0.28474103025E+03  0.28474103025E+03  0.00000000000E+00 0. -1.
         25    2    1    2    0    0  0.32239842054E+01 -0.49127146838E+02 -0.19337354917E+03  0.23550808731E+03  0.12508740560E+03 0.  0.
          5    1    3    3  502    0  0.55404692917E+02 -0.20070029053E+02 -0.41321538994E+02  0.72093190027E+02  0.41800000000E+01 0. -1.
         -5    1    3    3    0  502 -0.52180708711E+02 -0.29057117785E+02 -0.15205201018E+03  0.16341489728E+03  0.41800000000E+01 0. -1.
        -11    1    1    2    0    0  0.12269475364E+02  0.27403683581E+02 -0.61618457270E+02  0.68544410245E+02  0.00000000000E+00 0. -1.
         11    1    1    2    0    0 -0.15493459569E+02  0.21723463257E+02  0.28886720711E+02  0.39324277218E+02  0.00000000000E+00 0.  1.
</event>
<event>
 7    1  0.2842702E-009  0.7284611E+02  0.7561462E-02  0.1350674E+00
         -3   -1    0    0    0  501 -0.00000000000E+00  0.00000000000E+00  0.44500738974E+03  0.44500738974E+03  0.00000000000E+00 0.  1.
          3   -1    0    0  501    0  0.00000000000E+00 -0.00000000000E+00 -0.32018865158E+02  0.32018865158E+02  0.00000000000E+00 0. -1.
         25    2    1    2    0    0 -0.79662580054E+01  0.44116582385E+02  0.26558065916E+03  0.29696887190E+03  0.12509072808E+03 0.  0.
          5    1    3    3  502    0  0.20119929407E+02  0.14433271624E+02 -0.29770974850E+01  0.25287672858E+02  0.41800000000E+01 0. -1.
         -5    1    3    3    0  502 -0.28086187413E+02  0.29683310761E+02  0.26855775664E+03  0.27168119904E+03  0.41800000000E+01 0. -1.
        -11    1    1    2    0    0  0.27448467245E+02 -0.51749394398E+02  0.14795183753E+03  0.15912625303E+03  0.00000000000E+00 0. -1.
         11    1    1    2    0    0 -0.19482209239E+02  0.76328120128E+01 -0.54397210432E+00  0.20931129968E+02  0.00000000000E+00 0.  1.
</event>
<event>
 6    1  0.2842702E-009  0.1228915E+03  0.7561462E-02  0.1238402E+00
         -1   -1    0    0    0  501 -0.00000000000E+00  0.00000000000E+00  0.41109431006E+03  0.41109431006E+03  0.00000000000E+00 0.  1.
          1   -1    0    0  501    0  0.00000000000E+00 -0.00000000000E+00 -0.46894651472E+02  0.46894651472E+02  0.00000000000E+00 0. -1.
          5    1    1    2  502    0  0.89559741828E+02  0.17605464697E+02  0.18873597686E+03  0.20968939197E+03  0.41800000000E+01 0. -1.
         -5    1    1    2    0  502 -0.42015276089E+02  0.24327357544E+02  0.10223044785E+03  0.11325034489E+03  0.41800000000E+01 0. -1.
        -11    1    1    2    0    0 -0.50310675775E+02  0.11966145020E+02  0.11363384150E+02  0.52947891582E+02  0.00000000000E+00 0.  1.
         11    1    1    2    0    0  0.27662100365E+01 -0.53898967261E+02  0.61869849723E+02  0.82101333086E+02  0.00000000000E+00 0. -1.
</event>
<event>
 7    1  0.2842702E-009  0.1567608E+03  0.7561462E-02  0.1192403E+00
          2   -1    0    0  501    0  0.00000000000E+00  0.00000000000E+00  0.14146911468E+03  0.14146911468E+03  0.00000000000E+00 0. -1.
         -2   -1    0    0    0  501 -0.00000000000E+00 -0.00000000000E+00 -0.26776682658E+03  0.26776682658E+03  0.00000000000E+00 0.  1.
         25    2    1    2    0    0 -0.38081664503E+02  0.13984107200E+03 -0.14020029870E+03  0.23729586377E+03  0.12508982620E+03 0.  0.
          5    1    3    3  502    0 -0.51304229554E+02  0.78613871875E+02 -0.12233567204E+02  0.94759682291E+02  0.41800000000E+01 0. -1.
         -5    1    3    3    0  502  0.13222565051E+02  0.61227200123E+02 -0.12796673150E+03  0.14253618148E+03  0.41800000000E+01 0. -1.
        -11    1    1    2    0    0  0.43228757593E+02 -0.47244294603E+02  0.40118527179E+02  0.75566163582E+02  0.00000000000E+00 0.  1.
         11    1    1    2    0    0 -0.51470930893E+01 -0.92596777396E+02 -0.26215940376E+02  0.96373913904E+02  0.00000000000E+00 0. -1.
</event>
<event>
 7    1  0.2842702E-009  0.1457405E+03  0.7561462E-02  0.1205807E+00
          4   -1    0    0  501    0  0.00000000000E+00  0.00000000000E+00  0.24348518101E+03  0.24348518101E+03  0.00000000000E+00 0. -1.
         -4   -1    0    0    0  501 -0.00000000000E+00 -0.00000000000E+00 -0.12850310085E+03  0.12850310085E+03  0.00000000000E+00 0.  1.
         25    2    1    2    0    0  0.12329007874E+03  0.61934792867E+02  0.83640513026E+02  0.20415530790E+03  0.12508913718E+03 0.  0.
          5    1    3    3  502    0  0.39569504409E+02  0.32192446986E+02  0.10128023135E+03  0.11347800221E+03  0.41800000000E+01 0. -1.
         -5    1    3    3    0  502  0.83720574331E+02  0.29742345881E+02 -0.17639718326E+02  0.90677305692E+02  0.41800000000E+01 0. -1.
        -11    1    1    2    0    0 -0.84672135467E+02 -0.80413548055E+01  0.50377632086E+02  0.98853121985E+02  0.00000000000E+00 0.  1.
         11    1    1    2    0    0 -0.38617943274E+02 -0.53893438062E+02 -0.19036064950E+02  0.68979851968E+02  0.00000000000E+00 0. -1.
</event>
<event>
 7    1  0.2842702E-009  0.1052600E+03  0.7561462E-02  0.1269608E+00
          2   -1    0    0  501    0  0.00000000000E+00  0.00000000000E+00  0.38621104091E+03  0.38621104091E+03  0.00000000000E+00 0. -1.
         -2   -1    0    0    0  501 -0.00000000000E+00 -0.00000000000E+00 -0.40615275502E+02  0.40615275502E+02  0.00000000000E+00 0.  1.
         25    2    1    2    0    0 -0.48741538552E+02  0.53446590935E+02  0.17970592509E+03  0.23059564085E+03  0.12509138421E+03 0.  0.
          5    1    3    3  502    0  0.30078409019E+02  0.37956717108E+02  0.21574722887E+02  0.53182366724E+02  0.41800000000E+01 0. -1.
         -5    1    3    3    0  502 -0.78819947571E+02  0.15489873827E+02  0.15813120220E+03  0.17741327412E+03  0.41800000000E+01 0. -1.
        -11    1    1    2    0    0  0.28218967515E+02 -0.47319122472E+01  0.12808545462E+03  0.13124246571E+03  0.00000000000E+00 0. -1.
         11    1    1    2    0    0  0.20522571038E+02 -0.48714678688E+02  0.37804385706E+02  0.64988209856E+02  0.00000000000E+00 0.  1.
</event>
<event>
 7    1  0.2842702E-009  0.1093411E+03  0.7561462E-02  0.1261795E+00
         -1   -1    0    0    0  501 -0.00000000000E+00  0.00000000000E+00  0.44392034411E+03  0.44392034411E+03  0.00000000000E+00 0.  1.
          1   -1    0    0  501    0  0.00000000000E+00 -0.00000000000E+00 -0.29204278011E+02  0.29204278011E+02  0.00000000000E+00 0. -1.
         25    2    1    2    0    0  0.25015315030E+02 -0.29703667995E+02  0.24144281714E+03  0.27467905921E+03  0.12508348308E+03 0.  0.
          5    1    3    3  502    0  0.63148094182E+02 -0.50995285027E+02  0.11484962537E+03  0.14069864868E+03  0.41800000000E+01 0.  1.
         -5    1    3    3    0  502 -0.38132779152E+02  0.21291617032E+02  0.12659319177E+03  0.13398041053E+03  0.41800000000E+01 0.  1.
        -11    1    1    2    0    0 -0.46238794308E+02 -0.11088812946E+02  0.11329460847E+03  0.12286845071E+03  0.00000000000E+00 0. -1.
         11    1    1    2    0    0  0.21223479278E+02  0.40792480940E+02  0.59978640485E+02  0.75577112199E+02  0.00000000000E+00 0.  1.
</event>
<event>
 7    1  0.2842702E-009  0.1053969E+03  0.7561462E-02  0.1269340E+00
          2   -1    0    0  501    0  0.00000000000E+00  0.00000000000E+00  0.34190207999E+03  0.34190207999E+03  0.00000000000E+00 0. -1.
         -2   -1    0    0    0  501 -0.00000000000E+00 -0.00000000000E+00 -0.76348611985E+02  0.76348611985E+02  0.00000000000E+00 0.  1.
         25    2    1    2    0    0  0.34764072456E+02  0.79331285648E+02  0.25073994942E+03  0.29330056373E+03  0.12511077026E+03 0.  0.
          5    1    3    3  502    0  0.26283650367E+02  0.11678637599E+02  0.21355827953E+03  0.21552687074E+03  0.41800000000E+01 0. -1.
         -5    1    3    3    0  502  0.84804220884E+01  0.67652648049E+02  0.37181669886E+02  0.77773692997E+02  0.41800000000E+01 0. -1.
        -11    1    1    2    0    0  0.22870391912E+02 -0.16787697185E+02  0.26839730158E+02  0.39054483967E+02  0.00000000000E+00 0. -1.
         11    1    1    2    0    0 -0.57634464367E+02 -0.62543588463E+02 -0.12026211570E+02  0.85895644275E+02  0.00000000000E+00 0.  1.
</event>
<event>
 7    1  0.2842702E-009  0.1126750E+03  0.7561462E-02  0.1255695E+00
         -2   -1    0    0    0  501 -0.00000000000E+00  0.00000000000E+00  0.33129750704E+02  0.33129750704E+02  0.00000000000E+00 0. -1.
          2   -1    0    0  501    0  0.00000000000E+00 -0.00000000000E+00 -0.65725682020E+03  0.65725682020E+03  0.00000000000E+00 0.  1.
         25    2    1    2    0    0  0.36667002611E+02  0.85330504404E+02 -0.24613560966E+03  0.29130519361E+03  0.12510081302E+03 0.  0.
          5    1    3    3  502    0 -0.20660354672E+02  0.18529368257E+02 -0.17722892202E+03  0.17943731759E+03  0.41800000000E+01 0.  1.
         -5    1    3    3    0  502  0.57327357282E+02  0.66801136147E+02 -0.68906687633E+02  0.11186787601E+03  0.41800000000E+01 0.  1.
        -11    1    1    2    0    0  0.14156033904E+02 -0.70193334947E+01 -0.84269688290E+01  0.17907488440E+02  0.00000000000E+00 0. -1.
         11    1    1    2    0    0 -0.50823036514E+02 -0.78311170909E+02 -0.36956449101E+03  0.38117388886E+03  0.00000000000E+00 0.  1.
</event>
<event>
 7    1  0.2842702E-009  0.1353509E+03  0.7561462E-02  0.1219725E+00
         -2   -1    0    0    0  501 -0.00000000000E+00  0.00000000000E+00  0.22643931043E+02  0.22643931043E+02  0.00000000000E+00 0.  1.
          2   -1    0    0  501    0  0.00000000000E+00 -0.00000000000E+00 -0.10711094948E+04  0.10711094948E+04  0.00000000000E+00 0. -1.
         25    2    1    2    0    0  0.26401055456E+02 -0.96248081501E+02 -0.75268593211E+03  0.76951022167E+03  0.12509660237E+03 0.  0.
          5    1    3    3  502    0  0.65025889633E+02 -0.10155522456E+03 -0.55300023329E+03  0.56601109563E+03  0.41800000000E+01 0.  1.
         -5    1    3    3    0  502 -0.38624834177E+02  0.53071430554E+01 -0.19968569883E+03  0.20349912604E+03  0.41800000000E+01 0.  1.
        -11    1    1    2    0    0 -0.14688384753E+02  0.84867062167E+00 -0.16471937042E+01  0.14804801099E+02  0.00000000000E+00 0.  1.
         11    1    1    2    0    0 -0.11712670702E+02  0.95399410879E+02 -0.29413243792E+03  0.30943840306E+03  0.00000000000E+00 0. -1.
</event>
<event>
 7    1  0.2842702E-009  0.2510988E+03  0.7561462E-02  0.1112612E+00
          2   -1    0    0  501    0  0.00000000000E+00  0.00000000000E+00  0.44541641580E+03  0.44541641580E+03  0.00000000000E+00 0. -1.
         -2   -1    0    0    0  501 -0.00000000000E+00 -0.00000000000E+00 -0.20745634812E+03  0.20745634812E+03  0.00000000000E+00 0.  1.
         25    2    1    2    0    0  0.22055675422E+03  0.60470697772E+02  0.30053868072E+03  0.39783538320E+03  0.12508999318E+03 0.  0.
          5    1    3    3  502    0  0.11481634490E+03  0.94870532153E+02  0.18286285061E+03  0.23588027781E+03  0.41800000000E+01 0. -1.
         -5    1    3    3    0  502  0.10574040933E+03 -0.34399834381E+02  0.11767583011E+03  0.16195510539E+03  0.41800000000E+01 0. -1.
        -11    1    1    2    0    0 -0.66966098263E+02  0.18148687461E+02 -0.42416591512E+02  0.81320356668E+02  0.00000000000E+00 0.  1.
         11    1    1    2    0    0 -0.15359065596E+03 -0.78619385233E+02 -0.20162021529E+02  0.17371702405E+03  0.00000000000E+00 0. -1.
</event>
<event>
 7    1  0.2842702E-009  0.1529674E+03  0.7561462E-02  0.1196873E+00
          2   -1    0    0  501    0  0.00000000000E+00  0.00000000000E+00  0.47768110615E+02  0.47768110615E+02  0.00000000000E+00 0. -1.
         -2   -1    0    0    0  501 -0.00000000000E+00 -0.00000000000E+00 -0.57020882257E+03  0.57020882257E+03  0.00000000000E+00 0.  1.
         25    2    1    2    0    0  0.10677132429E+03  0.52736684895E+02 -0.34267891612E+03  0.38374065327E+03  0.12508707285E+03 0.  0.
          5    1    3    3  502    0  0.72250622469E+02  0.92789586502E+02 -0.26166187374E+03  0.28690498145E+03  0.41800000000E+01 0. -1.
         -5    1    3    3    0  502  0.34520701820E+02 -0.40052901607E+02 -0.81017042385E+02  0.96835671827E+02  0.41800000000E+01 0. -1.
        -11    1    1    2    0    0 -0.29766128933E+02 -0.49969215673E+02 -0.13024738357E+03  0.14264405306E+03  0.00000000000E+00 0.  1.
         11    1    1    2    0    0 -0.77005195356E+02 -0.27674692219E+01 -0.49514412258E+02  0.91592226848E+02  0.00000000000E+00 0. -1.
</event>
<event>
 7    1  0.2842702E-009  0.1260147E+03  0.7561462E-02  0.1233492E+00
          2   -1    0    0  501    0  0.00000000000E+00  0.00000000000E+00  0.90636001854E+03  0.90636001854E+03  0.00000000000E+00 0.  1.
         -2   -1    0    0    0  501 -0.00000000000E+00 -0.00000000000E+00 -0.18022380453E+02  0.18022380453E+02  0.00000000000E+00 0. -1.
         25    2    1    2    0    0  0.72284711523E+02  0.52050245690E+02  0.53763062509E+03  0.55913257449E+03  0.12509292236E+03 0.  0.
          5    1    3    3  502    0  0.21830880085E+02 -0.39898172843E+02  0.11687205141E+03  0.12547908320E+03  0.41800000000E+01 0.  1.
         -5    1    3    3    0  502  0.50453831437E+02  0.91948418533E+02  0.42075857368E+03  0.43365349128E+03  0.41800000000E+01 0.  1.
        -11    1    1    2    0    0 -0.74046755655E+02 -0.31008426585E+02  0.25965425829E+03  0.27178075426E+03  0.00000000000E+00 0.  1.
         11    1    1    2    0    0  0.17620441319E+01 -0.21041819106E+02  0.91052754718E+02  0.93469070246E+02  0.00000000000E+00 0. -1.
</event>
<event>
 7    1  0.2842702E-009  0.4228325E+03  0.7561462E-02  0.1036148E+00
         -2   -1    0    0    0  501 -0.00000000000E+00  0.00000000000E+00  0.19401976911E+03  0.19401976911E+03  0.00000000000E+00 0.  1.
          2   -1    0    0  501    0  0.00000000000E+00 -0.00000000000E+00 -0.11323931311E+04  0.11323931311E+04  0.00000000000E+00 0. -1.
         25    2    1    2    0    0  0.14066942602E+03  0.39173914997E+03 -0.73393368855E+03  0.85296758391E+03  0.12509033123E+03 0.  0.
          5    1    3    3  502    0  0.32300919273E+02  0.23986632658E+03 -0.48280719119E+03  0.54009208500E+03  0.41800000000E+01 0. -1.
         -5    1    3    3    0  502  0.10836850675E+03  0.15187282339E+03 -0.25112649736E+03  0.31287549890E+03  0.41800000000E+01 0. -1.
        -11    1    1    2    0    0 -0.83567687371E+02 -0.26741390388E+03 -0.18382338725E+03  0.33508923000E+03  0.00000000000E+00 0. -1.
         11    1    1    2    0    0 -0.57101738653E+02 -0.12432524609E+03 -0.20616286229E+02  0.13835608635E+03  0.00000000000E+00 0.  1.
</event>
<event>
 7    1  0.3547798E-009  0.9332626E+02  0.7561462E-02  0.1294991E+00
          2   -1    0    0  501    0  0.00000000000E+00  0.00000000000E+00  0.66577675477E+02  0.66577675477E+02  0.00000000000E+00 0.  1.
         -2   -1    0    0    0  501 -0.00000000000E+00 -0.00000000000E+00 -0.23945272668E+03  0.23945272668E+03  0.00000000000E+00 0. -1.
         25    2    1    2    0    0 -0.74534691089E+01 -0.64321621881E+02 -0.96355966091E+02  0.17065777631E+03  0.12508708634E+03 0.  0.
          5    1    3    3  502    0 -0.25384686411E+02  0.21653035412E+02 -0.71933407024E+02  0.79404809003E+02  0.41800000000E+01 0. -1.
         -5    1    3    3    0  502  0.17931217302E+02 -0.85974657293E+02 -0.24422559067E+02  0.91252967305E+02  0.41800000000E+01 0. -1.
        -11    1    1    2    0    0  0.70701333441E+01  0.31713014398E+02  0.16758451355E+02  0.36558826014E+02  0.00000000000E+00 0.  1.
         11    1    1    2    0    0  0.38333576488E+00  0.32608607483E+02 -0.93277536465E+02  0.98813799832E+02  0.00000000000E+00 0. -1.
</event>
<event>
 7    1  0.2842702E-009  0.1146941E+03  0.7561462E-02  0.1252116E+00
          1   -1    0    0  501    0  0.00000000000E+00  0.00000000000E+00  0.64834327902E+02  0.64834327902E+02  0.00000000000E+00 0. -1.
         -1   -1    0    0    0  501 -0.00000000000E+00 -0.00000000000E+00 -0.11016800309E+04  0.11016800309E+04  0.00000000000E+00 0.  1.
         25    2    1    2    0    0 -0.91368868315E+02  0.65838949330E+02 -0.10011574247E+04  0.10152079964E+04  0.12509216437E+03 0.  0.
          5    1    3    3  502    0 -0.75056468860E+01  0.95460657580E+01 -0.64109360974E+03  0.64122223212E+03  0.41800000000E+01 0. -1.
         -5    1    3    3    0  502 -0.83863221429E+02  0.56292883572E+02 -0.36006381494E+03  0.37398576427E+03  0.41800000000E+01 0. -1.
        -11    1    1    2    0    0  0.60416325557E+02 -0.57484311789E+02  0.21163664844E+02  0.86037661552E+02  0.00000000000E+00 0.  1.
         11    1    1    2    0    0  0.30952542758E+02 -0.83546375414E+01 -0.56851943184E+02  0.65268700887E+02  0.00000000000E+00 0. -1.
</event>
<event>
 7    1  0.2842702E-009  0.1105087E+03  0.7561462E-02  0.1259631E+00
          2   -1    0    0  501    0  0.00000000000E+00  0.00000000000E+00  0.18427047709E+03  0.18427047709E+03  0.00000000000E+00 0. -1.
         -2   -1    0    0    0  501 -0.00000000000E+00 -0.00000000000E+00 -0.11340454478E+03  0.11340454478E+03  0.00000000000E+00 0.  1.
         25    2    1    2    0    0  0.79990230769E+02  0.39536294743E+02  0.68313283164E+02  0.16815641497E+03  0.12509324369E+03 0.  0.
          5    1    3    3  502    0 -0.23297692070E+01 -0.26023090356E+02  0.56232829474E+02  0.62146862889E+02  0.41800000000E+01 0.  1.
         -5    1    3    3    0  502  0.82319999977E+02  0.65559385099E+02  0.12080453690E+02  0.10600955208E+03  0.41800000000E+01 0.  1.
        -11    1    1    2    0    0 -0.33612788812E+02 -0.17401851661E+02  0.47853667676E+02  0.61013256944E+02  0.00000000000E+00 0. -1.
         11    1    1    2    0    0 -0.46377441957E+02 -0.22134443082E+02 -0.45301018534E+02  0.68505349961E+02  0.00000000000E+00 0.  1.
</event>
<event>
 7    1  0.2842702E-009  0.9884353E+02  0.7561462E-02  0.1282747E+00
          4   -1    0    0  501    0  0.00000000000E+00  0.00000000000E+00  0.73050117614E+02  0.73050117614E+02  0.00000000000E+00 0. -1.
         -4   -1    0    0    0  501 -0.00000000000E+00 -0.00000000000E+00 -0.20012219388E+03  0.20012219388E+03  0.00000000000E+00 0.  1.
         25    2    1    2    0    0 -0.18004111154E+02  0.16817492355E+01 -0.24370894619E+02  0.12872635563E+03  0.12509819275E+03 0.  0.
          5    1    3    3  502    0 -0.70231630282E+02 -0.10969258168E+02 -0.22930115367E+02  0.74806878745E+02  0.41800000000E+01 0. -1.
         -5    1    3    3    0  502  0.52227519128E+02  0.12651007404E+02 -0.14407792514E+01  0.53919476884E+02  0.41800000000E+01 0. -1.
        -11    1    1    2    0    0 -0.40760078632E+01  0.32026490201E+02  0.19108238118E+01  0.32341322829E+02  0.00000000000E+00 0. -1.
         11    1    1    2    0    0  0.22080119018E+02 -0.33708239436E+02 -0.10461200546E+03  0.11210463303E+03  0.00000000000E+00 0.  1.
</event>
<event>
 7    1  0.2842702E-009  0.8606371E+02  0.7561462E-02  0.1312674E+00
         -2   -1    0    0    0  501 -0.00000000000E+00  0.00000000000E+00  0.32638614909E+02  0.32638614909E+02  0.00000000000E+00 0.  1.
          2   -1    0    0  501    0  0.00000000000E+00 -0.00000000000E+00 -0.36839867535E+03  0.36839867535E+03  0.00000000000E+00 0. -1.
         25    2    1    2    0    0 -0.19598157784E+02  0.79978489956E+01 -0.18635535073E+03  0.22544174444E+03  0.12509040737E+03 0.  0.
          5    1    3    3  502    0  0.38221761188E+02 -0.26038055566E+01 -0.15288655072E+03  0.15766880675E+03  0.41800000000E+01 0. -1.
         -5    1    3    3    0  502 -0.57819918973E+02  0.10601654552E+02 -0.33468800010E+02  0.67772937691E+02  0.41800000000E+01 0. -1.
        -11    1    1    2    0    0  0.31766537150E+02  0.24396072885E+02 -0.26779003230E+02  0.48180870361E+02  0.00000000000E+00 0.  1.
         11    1    1    2    0    0 -0.12168379366E+02 -0.32393921880E+02 -0.12262570648E+03  0.12741467545E+03  0.00000000000E+00 0. -1.
</event>
<event>
 7    1  0.2842702E-009  0.1336366E+03  0.7561462E-02  0.1222157E+00
          2   -1    0    0  501    0  0.00000000000E+00  0.00000000000E+00  0.37800018197E+03  0.37800018197E+03  0.00000000000E+00 0.  1.
         -2   -1    0    0    0  501 -0.00000000000E+00 -0.00000000000E+00 -0.67032250650E+02  0.67032250650E+02  0.00000000000E+00 0. -1.
         25    2    1    2    0    0 -0.10468265665E+03  0.60902176751E+02  0.20222941048E+03  0.26685358601E+03  0.12508624293E+03 0.  0.
          5    1    3    3  502    0 -0.62364213581E+02  0.66533096047E+02  0.20444593510E+03  0.22390078334E+03  0.41800000000E+01 0.  1.
         -5    1    3    3    0  502 -0.42318443068E+02 -0.56309192952E+01 -0.22165246170E+01  0.42952802670E+02  0.41800000000E+01 0.  1.
        -11    1    1    2    0    0  0.64621931017E+02 -0.66398607831E+02  0.45763644694E+02  0.10333963550E+03  0.00000000000E+00 0. -1.
         11    1    1    2    0    0  0.40060725633E+02  0.54964310796E+01  0.62974876149E+02  0.74839211104E+02  0.00000000000E+00 0.  1.
</event>
<event>
 7    1  0.2842702E-009  0.1342397E+03  0.7561462E-02  0.1221297E+00
         -1   -1    0    0    0  501 -0.00000000000E+00  0.00000000000E+00  0.29040398105E+03  0.29040398105E+03  0.00000000000E+00 0.  1.
          1   -1    0    0  501    0  0.00000000000E+00 -0.00000000000E+00 -0.92716510149E+02  0.92716510149E+02  0.00000000000E+00 0. -1.
         25    2    1    2    0    0  0.11723217589E+03  0.52531106597E+01  0.14765404034E+03  0.22632093895E+03  0.12509385894E+03 0.  0.
          5    1    3    3  502    0 -0.14868391607E+02  0.10799273633E+02 -0.93341107756E+01  0.21030725236E+02  0.41800000000E+01 0. -1.
         -5    1    3    3    0  502  0.13210056749E+03 -0.55461629737E+01  0.15698815112E+03  0.20529021372E+03  0.41800000000E+01 0. -1.
        -11    1    1    2    0    0 -0.50049676424E+02 -0.20379021913E+01  0.70510665357E+02  0.86492063709E+02  0.00000000000E+00 0. -1.
         11    1    1    2    0    0 -0.67182499464E+02 -0.32152084684E+01 -0.20477234798E+02  0.70307488539E+02  0.00000000000E+00 0.  1.
</event>
<event>
 7    1  0.2842702E-009  0.1163127E+03  0.7561462E-02  0.1249307E+00
         -2   -1    0    0    0  501 -0.00000000000E+00  0.00000000000E+00  0.10382979991E+02  0.10382979991E+02  0.00000000000E+00 0.  1.
          2   -1    0    0  501    0  0.00000000000E+00 -0.00000000000E+00 -0.15687631736E+04  0.15687631736E+04  0.00000000000E+00 0. -1.
         25    2    1    2    0    0 -0.25351047637E+01  0.56857856343E+02 -0.11000695529E+04  0.11086216862E+04  0.12509907827E+03 0.  0.
          5    1    3    3  502    0 -0.37649879742E+01 -0.35143838885E+02 -0.15305452595E+03  0.15713823488E+03  0.41800000000E+01 0.  1.
         -5    1    3    3    0  502  0.12298832105E+01  0.92001695228E+02 -0.94701502693E+03  0.95148345134E+03  0.41800000000E+01 0.  1.
        -11    1    1    2    0    0 -0.38061363603E+02 -0.39857325960E+01 -0.13004741168E+03  0.13556136156E+03  0.00000000000E+00 0.  1.
         11    1    1    2    0    0  0.40596468366E+02 -0.52872123747E+02 -0.32826322903E+03  0.33496310580E+03  0.00000000000E+00 0. -1.
</event>
<event>
 7    1  0.2842702E-009  0.1138813E+03  0.7561462E-02  0.1253546E+00
          1   -1    0    0  501    0  0.00000000000E+00  0.00000000000E+00  0.20792330182E+02  0.20792330182E+02  0.00000000000E+00 0. -1.
         -1   -1    0    0    0  501 -0.00000000000E+00 -0.00000000000E+00 -0.69257242365E+03  0.69257242365E+03  0.00000000000E+00 0.  1.
         25    2    1    2    0    0  0.26803282362E+02  0.43447263620E+02 -0.37925544267E+03  0.40260209591E+03  0.12509067181E+03 0.  0.
          5    1    3    3  502    0 -0.22350993452E+02 -0.28184023591E+02 -0.20127729698E+03  0.20450899436E+03  0.41800000000E+01 0.  1.
         -5    1    3    3    0  502  0.49154275814E+02  0.71631287211E+02 -0.17797814568E+03  0.19809310154E+03  0.41800000000E+01 0.  1.
        -11    1    1    2    0    0 -0.38799982170E+02 -0.67408784516E+02 -0.20654476122E+03  0.22070369556E+03  0.00000000000E+00 0.  1.
         11    1    1    2    0    0  0.11996699808E+02  0.23961520896E+02 -0.85979889582E+02  0.90058962367E+02  0.00000000000E+00 0. -1.
</event>
<event>
 7    1  0.2842702E-009  0.1102088E+03  0.7561462E-02  0.1260184E+00
         -2   -1    0    0    0  501 -0.00000000000E+00  0.00000000000E+00  0.40044597919E+02  0.40044597919E+02  0.00000000000E+00 0.  1.
          2   -1    0    0  501    0  0.00000000000E+00 -0.00000000000E+00 -0.41462541347E+03  0.41462541347E+03  0.00000000000E+00 0. -1.
         25    2    1    2    0    0 -0.66054724880E+02 -0.22872931753E+02 -0.20983810474E+03  0.25409872461E+03  0.12509090279E+03 0.  0.
          5    1    3    3  502    0 -0.17054709062E+02  0.51298425634E+02 -0.83673741745E+02  0.99705361097E+02  0.41800000000E+01 0.  1.
         -5    1    3    3    0  502 -0.49000015818E+02 -0.74171357387E+02 -0.12616436299E+03  0.15439336351E+03  0.41800000000E+01 0.  1.
        -11    1    1    2    0    0  0.30770288006E+02  0.27933012983E+02 -0.11333981669E+02  0.43075781813E+02  0.00000000000E+00 0.  1.
         11    1    1    2    0    0  0.35284436874E+02 -0.50600812299E+01 -0.15340872914E+03  0.15749550496E+03  0.00000000000E+00 0. -1.
</event>
<event>
 7    1  0.3499137E-009  0.1082651E+03  0.7561462E-02  0.1263817E+00
          2   -1    0    0  501    0  0.00000000000E+00  0.00000000000E+00  0.10278221805E+04  0.10278221805E+04  0.00000000000E+00 0. -1.
         -2   -1    0    0    0  501 -0.00000000000E+00 -0.00000000000E+00 -0.21404480748E+02  0.21404480748E+02  0.00000000000E+00 0.  1.
         25    2    1    2    0    0 -0.84228509846E+02  0.47506199840E+02  0.64341911320E+03  0.66256044939E+03  0.12508762119E+03 0.  0.
          5    1    3    3  502    0 -0.61642249438E+02  0.50196881304E+02  0.16117310844E+03  0.17976022110E+03  0.41800000000E+01 0.  1.
         -5    1    3    3    0  502 -0.22586260409E+02 -0.26906814637E+01  0.48224600477E+03  0.48280022829E+03  0.41800000000E+01 0.  1.
        -11    1    1    2    0    0  0.11119333822E+02 -0.38574961701E+02  0.45243115900E+02  0.60486418238E+02  0.00000000000E+00 0.  1.
         11    1    1    2    0    0  0.73109176024E+02 -0.89312381397E+01  0.31775547060E+03  0.32617979357E+03  0.00000000000E+00 0. -1.
</event>
<event>
 7    1  0.2842702E-009  0.1035846E+03  0.7561462E-02  0.1272934E+00
          1   -1    0    0  501    0  0.00000000000E+00  0.00000000000E+00  0.18226813604E+03  0.18226813604E+03  0.00000000000E+00 0. -1.
         -1   -1    0    0    0  501 -0.00000000000E+00 -0.00000000000E+00 -0.74016296047E+02  0.74016296047E+02  0.00000000000E+00 0.  1.
         25    2    1    2    0    0 -0.91946352986E+00  0.18667217227E+02  0.18687297702E+02  0.12784659210E+03  0.12508487360E+03 0.  0.
          5    1    3    3  502    0 -0.99589537190E+00 -0.53738488667E+02  0.95010039856E+01  0.54740829812E+02  0.41800000000E+01 0.  1.
         -5    1    3    3    0  502  0.76431842039E-01  0.72405705894E+02  0.91862937164E+01  0.73105762291E+02  0.41800000000E+01 0.  1.
        -11    1    1    2    0    0 -0.32809123202E+02  0.12207821540E+02  0.70856999549E+02  0.79032802412E+02  0.00000000000E+00 0. -1.
         11    1    1    2    0    0  0.33728586732E+02 -0.30875038767E+02  0.18707542737E+02  0.49405037568E+02  0.00000000000E+00 0.  1.
</event>
<event>
 7    1  0.2842702E-009  0.1723980E+03  0.7561462E-02  0.1175370E+00
          1   -1    0    0  501    0  0.00000000000E+00  0.00000000000E+00  0.14061860934E+04  0.14061860934E+04  0.00000000000E+00 0. -1.
         -1   -1    0    0    0  501 -0.00000000000E+00 -0.00000000000E+00 -0.32559582583E+02  0.32559582583E+02  0.00000000000E+00 0.  1.
         25    2    1    2    0    0  0.12440093070E+03 -0.11587876921E+03  0.95345019183E+03  0.97653362977E+03  0.12508869277E+03 0.  0.
          5    1    3    3  502    0  0.77319524657E+02 -0.78155180863E+02  0.28731168465E+03  0.30765568047E+03  0.41800000000E+01 0. -1.
         -5    1    3    3    0  502  0.47081406041E+02 -0.37723588348E+02  0.66613850718E+03  0.66887794930E+03  0.41800000000E+01 0. -1.
        -11    1    1    2    0    0 -0.60098484383E+02  0.30432939962E+02  0.26721940091E+03  0.27557975231E+03  0.00000000000E+00 0. -1.
         11    1    1    2    0    0 -0.64302446315E+02  0.85445829249E+02  0.15295691804E+03  0.18663229387E+03  0.00000000000E+00 0.  1.
</event>
<event>
 7    1  0.2842702E-009  0.1300395E+03  0.7561462E-02  0.1227397E+00
         -2   -1    0    0    0  501 -0.00000000000E+00  0.00000000000E+00  0.46827478110E+02  0.46827478110E+02  0.00000000000E+00 0.  1.
          2   -1    0    0  501    0  0.00000000000E+00 -0.00000000000E+00 -0.38552063121E+03  0.38552063121E+03  0.00000000000E+00 0. -1.
         25    2    1    2    0    0  0.44424514317E+02 -0.56158234217E+02 -0.13441602470E+03  0.19709084863E+03  0.12509936121E+03 0.  0.
          5    1    3    3  502    0 -0.25650391994E+02  0.25231391852E+02 -0.40767100847E+02  0.54534343818E+02  0.41800000000E+01 0.  1.
         -5    1    3    3    0  502  0.70074906311E+02 -0.81389626069E+02 -0.93648923851E+02  0.14255650481E+03  0.41800000000E+01 0.  1.
        -11    1    1    2    0    0  0.11553483494E+02  0.59198267507E+02 -0.11449148204E+03  0.12940717644E+03  0.00000000000E+00 0. -1.
         11    1    1    2    0    0 -0.55977997811E+02 -0.30400332905E+01 -0.89785646369E+02  0.10585008425E+03  0.00000000000E+00 0.  1.
</event>
<event>
 7    1  0.2842702E-009  0.1102124E+03  0.7561462E-02  0.1260177E+00
         -2   -1    0    0    0  501 -0.00000000000E+00  0.00000000000E+00  0.20966217090E+02  0.20966217090E+02  0.00000000000E+00 0.  1.
          2   -1    0    0  501    0  0.00000000000E+00 -0.00000000000E+00 -0.11596964253E+04  0.11596964253E+04  0.00000000000E+00 0. -1.
         25    2    1    2    0    0 -0.27840579524E+02 -0.67880147652E+02 -0.93163256523E+03  0.94285161549E+03  0.12508844839E+03 0.  0.
          5    1    3    3  502    0  0.28925467877E+02 -0.11983186978E+02 -0.62145212573E+02  0.69712117367E+02  0.41800000000E+01 0. -1.
         -5    1    3    3    0  502 -0.56766047400E+02 -0.55896960674E+02 -0.86948735266E+03  0.87313949812E+03  0.41800000000E+01 0. -1.
        -11    1    1    2    0    0  0.77532537843E+01 -0.18666997506E+02 -0.81471398713E+02  0.83941399491E+02  0.00000000000E+00 0. -1.
         11    1    1    2    0    0  0.20087325739E+02  0.86547145159E+02 -0.12562624426E+03  0.15386962740E+03  0.00000000000E+00 0.  1.
</event>
<event>
 7    1  0.2842702E-009  0.9441051E+02  0.7561462E-02  0.1292509E+00
          2   -1    0    0  501    0  0.00000000000E+00  0.00000000000E+00  0.32515862190E+02  0.32515862190E+02  0.00000000000E+00 0. -1.
         -2   -1    0    0    0  501 -0.00000000000E+00 -0.00000000000E+00 -0.46149595381E+03  0.46149595381E+03  0.00000000000E+00 0.  1.
         25    2    1    2    0    0  0.10837917670E+02 -0.50811745949E+02 -0.28255209250E+03  0.31333993647E+03  0.12508771652E+03 0.  0.
          5    1    3    3  502    0  0.45578859741E+02  0.23066804916E+02 -0.13893687442E+03  0.14808928867E+03  0.41800000000E+01 0. -1.
         -5    1    3    3    0  502 -0.34740942071E+02 -0.73878550865E+02 -0.14361521808E+03  0.16525064780E+03  0.41800000000E+01 0. -1.
        -11    1    1    2    0    0  0.60953255907E+01  0.15613901638E+02  0.99482360940E+01  0.19491390915E+02  0.00000000000E+00 0. -1.
         11    1    1    2    0    0 -0.16933243260E+02  0.35197844311E+02 -0.15637623522E+03  0.16118048862E+03  0.00000000000E+00 0.  1.
</event>
<event>
 7    1  0.2842702E-009  0.7358226E+02  0.7561462E-02  0.1348318E+00
         -1   -1    0    0    0  501 -0.00000000000E+00  0.00000000000E+00  0.13598630441E+02  0.13598630441E+02  0.00000000000E+00 0.  1.
          1   -1    0    0  501    0  0.00000000000E+00 -0.00000000000E+00 -0.10712159357E+04  0.10712159357E+04  0.00000000000E+00 0. -1.
         25    2    1    2    0    0  0.17480284575E+02 -0.45438682381E+02 -0.69362031242E+03  0.70649079665E+03  0.12509945543E+03 0.  0.
          5    1    3    3  502    0  0.12044370079E+02 -0.22847314176E+02 -0.67726443265E+03  0.67776961480E+03  0.41800000000E+01 0.  1.
         -5    1    3    3    0  502  0.54359144962E+01 -0.22591368206E+02 -0.16355879765E+02  0.28721181847E+02  0.41800000000E+01 0.  1.
        -11    1    1    2    0    0 -0.28616174273E+02  0.67148829163E+02 -0.31784946373E+03  0.32612287911E+03  0.00000000000E+00 0. -1.
         11    1    1    2    0    0  0.11135889698E+02 -0.21710146782E+02 -0.46147529077E+02  0.52200890343E+02  0.00000000000E+00 0.  1.
</event>
<event>
 7    1  0.2842702E-009  0.1765414E+03  0.7561462E-02  0.1171193E+00
         -1   -1    0    0    0  501 -0.00000000000E+00  0.00000000000E+00  0.68937120280E+02  0.68937120280E+02  0.00000000000E+00 0.  1.
          1   -1    0    0  501    0  0.00000000000E+00 -0.00000000000E+00 -0.62628920306E+03  0.62628920306E+03  0.00000000000E+00 0. -1.
         25    2    1    2    0    0 -0.16447072822E+03 -0.12960931174E+02 -0.18822114151E+03  0.27980994742E+03  0.12509117630E+03 0.  0.
          5    1    3    3  502    0 -0.11904756991E+03  0.87288547886E+01 -0.19517782592E+03  0.22882389066E+03  0.41800000000E+01 0. -1.
         -5    1    3    3    0  502 -0.45423158309E+02 -0.21689785962E+02  0.69566844102E+01  0.50986056759E+02  0.41800000000E+01 0. -1.
        -11    1    1    2    0    0  0.11112552897E+03 -0.29474801467E+02 -0.17246616855E+03  0.20727331330E+03  0.00000000000E+00 0. -1.
         11    1    1    2    0    0  0.53345199248E+02  0.42435732641E+02 -0.19666477272E+03  0.20814306262E+03  0.00000000000E+00 0.  1.
</event>
<event>
 7    1  0.2842702E-009  0.2346351E+03  0.7561462E-02  0.1123419E+00
          4   -1    0    0  501    0  0.00000000000E+00  0.00000000000E+00  0.32599098337E+03  0.32599098337E+03  0.00000000000E+00 0. -1.
         -4   -1    0    0    0  501 -0.00000000000E+00 -0.00000000000E+00 -0.20514826710E+03  0.20514826710E+03  0.00000000000E+00 0.  1.
         25    2    1    2    0    0 -0.11892124274E+03 -0.19394539767E+03  0.11898222889E+03  0.28558953390E+03  0.12509009484E+03 0.  0.
          5    1    3    3  502    0 -0.61947545214E+02 -0.54984469576E+02  0.10627786316E+03  0.13480818540E+03  0.41800000000E+01 0.  1.
         -5    1    3    3    0  502 -0.56973697530E+02 -0.13896092810E+03  0.12704365732E+02  0.15078134850E+03  0.41800000000E+01 0.  1.
        -11    1    1    2    0    0  0.12390484917E+02  0.76621079016E+02 -0.31220805789E+02  0.83660340545E+02  0.00000000000E+00 0. -1.
         11    1    1    2    0    0  0.10653075783E+03  0.11732431866E+03  0.33081293166E+02  0.16188937602E+03  0.00000000000E+00 0.  1.
</event>
<event>
 7    1  0.2842702E-009  0.8978650E+02  0.7561462E-02  0.1303370E+00
         -2   -1    0    0    0  501 -0.00000000000E+00  0.00000000000E+00  0.40113010868E+02  0.40113010868E+02  0.00000000000E+00 0.  1.
          2   -1    0    0  501    0  0.00000000000E+00 -0.00000000000E+00 -0.39193715871E+03  0.39193715871E+03  0.00000000000E+00 0. -1.
         25    2    1    2    0    0 -0.62585822040E+02 -0.10590522811E+02 -0.17948361666E+03  0.22779483192E+03  0.12508785915E+03 0.  0.
          5    1    3    3  502    0 -0.26745208113E+02  0.27628136240E+02 -0.17005024122E+03  0.17439374131E+03  0.41800000000E+01 0. -1.
         -5    1    3    3    0  502 -0.35840613927E+02 -0.38218659050E+02 -0.94333754377E+01  0.53401090610E+02  0.41800000000E+01 0. -1.
        -11    1    1    2    0    0  0.72401569633E+02 -0.19245683964E+01 -0.17379597929E+03  0.18828365215E+03  0.00000000000E+00 0. -1.
         11    1    1    2    0    0 -0.98157475937E+01  0.12515091207E+02  0.14554481088E+01  0.15971685507E+02  0.00000000000E+00 0.  1.
</event>
<event>
 7    1  0.2842702E-009  0.1027328E+03  0.7561462E-02  0.1274652E+00
         -2   -1    0    0    0  501 -0.00000000000E+00  0.00000000000E+00  0.10896149687E+03  0.10896149687E+03  0.00000000000E+00 0. -1.
          2   -1    0    0  501    0  0.00000000000E+00 -0.00000000000E+00 -0.19290427928E+03  0.19290427928E+03  0.00000000000E+00 0.  1.
         25    2    1    2    0    0 -0.65132962402E+00  0.86560945616E+02 -0.41992102742E+01  0.15218093552E+03  0.12509269456E+03 0.  0.
          5    1    3    3  502    0 -0.13719369493E+02  0.14076948740E+02  0.54383945946E+02  0.57978164526E+02  0.41800000000E+01 0. -1.
         -5    1    3    3    0  502  0.13068039869E+02  0.72483996876E+02 -0.58583156221E+02  0.94202770989E+02  0.41800000000E+01 0. -1.
        -11    1    1    2    0    0  0.11198505825E+02  0.96672210792E+01 -0.44119221470E+02  0.46533508348E+02  0.00000000000E+00 0.  1.
         11    1    1    2    0    0 -0.10547176201E+02 -0.96228166695E+02 -0.35624350673E+02  0.10315133229E+03  0.00000000000E+00 0. -1.
</event>
<event>
 7    1  0.2842702E-009  0.1102731E+03  0.7561462E-02  0.1260065E+00
         -1   -1    0    0    0  501 -0.00000000000E+00  0.00000000000E+00  0.26763606803E+02  0.26763606803E+02  0.00000000000E+00 0.  1.
          1   -1    0    0  501    0  0.00000000000E+00 -0.00000000000E+00 -0.68049614625E+03  0.68049614625E+03  0.00000000000E+00 0. -1.
         25    2    1    2    0    0  0.78478905348E+02  0.36551584318E+02 -0.26776694035E+03  0.30796271285E+03  0.12508773424E+03 0.  0.
          5    1    3    3  502    0 -0.20111399350E+02  0.19423597254E+02 -0.77347018974E+01  0.29309427281E+02  0.41800000000E+01 0.  1.
         -5    1    3    3    0  502  0.98590304698E+02  0.17127987064E+02 -0.26003223845E+03  0.27865328557E+03  0.41800000000E+01 0.  1.
        -11    1    1    2    0    0 -0.26573160425E+02 -0.29557765090E+02 -0.85324420068E+02  0.94127843872E+02  0.00000000000E+00 0. -1.
         11    1    1    2    0    0 -0.51905744923E+02 -0.69938192281E+01 -0.30064117903E+03  0.30516919633E+03  0.00000000000E+00 0.  1.
</event>
<event>
 7    1  0.2842702E-009  0.7487922E+02  0.7561462E-02  0.1344245E+00
         -1   -1    0    0    0  501 -0.00000000000E+00  0.00000000000E+00  0.29590289682E+02  0.29590289682E+02  0.00000000000E+00 0.  1.
          1   -1    0    0  501    0  0.00000000000E+00 -0.00000000000E+00 -0.39101825494E+03  0.39101825494E+03  0.00000000000E+00 0. -1.
         25    2    1    2    0    0  0.10487365978E+02  0.32298433761E+02 -0.18901961330E+03  0.22919455543E+03  0.12509418994E+03 0.  0.
          5    1    3    3  502    0 -0.18867828737E+02  0.49626243167E+02 -0.18739214546E+03  0.19481285263E+03  0.41800000000E+01 0. -1.
         -5    1    3    3    0  502  0.29355194716E+02 -0.17327809405E+02 -0.16274678430E+01  0.34381702796E+02  0.41800000000E+01 0. -1.
        -11    1    1    2    0    0 -0.27074374200E+02 -0.36116903564E+02 -0.16782165599E+03  0.17378596226E+03  0.00000000000E+00 0. -1.
         11    1    1    2    0    0  0.16587008222E+02  0.38184698023E+01 -0.45866959672E+01  0.17628026925E+02  0.00000000000E+00 0.  1.
</event>
<event>
 7    1  0.2842702E-009  0.1253743E+03  0.7561462E-02  0.1234486E+00
         -1   -1    0    0    0  501 -0.00000000000E+00  0.00000000000E+00  0.43577396522E+03  0.43577396522E+03  0.00000000000E+00 0.  1.
          1   -1    0    0  501    0  0.00000000000E+00 -0.00000000000E+00 -0.54374767042E+02  0.54374767042E+02  0.00000000000E+00 0. -1.
         25    2    1    2    0    0 -0.62788892094E+02  0.73314294662E+02  0.28169715829E+03  0.32298331350E+03  0.12508997178E+03 0.  0.
          5    1    3    3  502    0 -0.40758659282E+02 -0.18669477827E+02  0.17333251168E+03  0.17908503487E+03  0.41800000000E+01 0.  1.
         -5    1    3    3    0  502 -0.22030232811E+02  0.91983772489E+02  0.10836464661E+03  0.14389827863E+03  0.41800000000E+01 0.  1.
        -11    1    1    2    0    0 -0.10249545346E+02 -0.71758336911E+01 -0.12605181315E+02  0.17760528284E+02  0.00000000000E+00 0. -1.
         11    1    1    2    0    0  0.73038437440E+02 -0.66138460971E+02  0.11230722120E+03  0.14940489048E+03  0.00000000000E+00 0.  1.
</event>
<event>
 7    1  0.2842702E-009  0.2410751E+03  0.7561462E-02  0.1119079E+00
         -1   -1    0    0    0  501 -0.00000000000E+00  0.00000000000E+00  0.49883818812E+02  0.49883818812E+02  0.00000000000E+00 0.  1.
          1   -1    0    0  501    0  0.00000000000E+00 -0.00000000000E+00 -0.14167955854E+04  0.14167955854E+04  0.00000000000E+00 0. -1.
         25    2    1    2    0    0 -0.17623171666E+03  0.13442700368E+03 -0.43041513728E+03  0.50003292204E+03  0.12508994946E+03 0.  0.
          5    1    3    3  502    0 -0.90987106963E+02  0.14189032321E+03 -0.27524721795E+03  0.32278479030E+03  0.41800000000E+01 0.  1.
         -5    1    3    3    0  502 -0.85244609695E+02 -0.74633195361E+01 -0.15516791933E+03  0.17724813175E+03  0.41800000000E+01 0.  1.
        -11    1    1    2    0    0  0.71156051638E+02 -0.87526154776E+02 -0.31500939730E+03  0.33459667040E+03  0.00000000000E+00 0. -1.
         11    1    1    2    0    0  0.10507566502E+03 -0.46900848903E+02 -0.62148723201E+03  0.63204981177E+03  0.00000000000E+00 0.  1.
</event>
<event>
 7    1  0.2842702E-009  0.1098751E+03  0.7561462E-02  0.1260801E+00
          1   -1    0    0  501    0  0.00000000000E+00  0.00000000000E+00  0.51250082667E+02  0.51250082667E+02  0.00000000000E+00 0. -1.
         -1   -1    0    0    0  501 -0.00000000000E+00 -0.00000000000E+00 -0.33109244382E+03  0.33109244382E+03  0.00000000000E+00 0.  1.
         25    2    1    2    0    0 -0.70079956171E+01  0.27519957367E+02 -0.25508743600E+03  0.28552496213E+03  0.12509374061E+03 0.  0.
          5    1    3    3  502    0 -0.46165752759E+02  0.60921892735E+02 -0.14715740845E+03  0.16587805461E+03  0.41800000000E+01 0.  1.
         -5    1    3    3    0  502  0.39157757142E+02 -0.33401935368E+02 -0.10793002755E+03  0.11964690751E+03  0.41800000000E+01 0.  1.
        -11    1    1    2    0    0 -0.13825097777E+02  0.28562790388E+02  0.84358523310E+00  0.31743943664E+02  0.00000000000E+00 0. -1.
         11    1    1    2    0    0  0.20833093394E+02 -0.56082747755E+02 -0.25598510392E+02  0.65073620695E+02  0.00000000000E+00 0.  1.
</event>
<event>
 7    1  0.2842702E-009  0.1204695E+03  0.7561462E-02  0.1242324E+00
         -2   -1    0    0    0  501 -0.00000000000E+00  0.00000000000E+00  0.33584580323E+02  0.33584580323E+02  0.00000000000E+00 0. -1.
          2   -1    0    0  501    0  0.00000000000E+00 -0.00000000000E+00 -0.65353436132E+03  0.65353436132E+03  0.00000000000E+00 0.  1.
         25    2    1    2    0    0 -0.18409362832E+02  0.82011399846E+02 -0.21270115476E+03  0.26066981266E+03  0.12506876369E+03 0.  0.
          5    1    3    3  502    0 -0.26134494596E+02 -0.12075620877E+02 -0.13119706263E+01  0.29120887594E+02  0.41800000000E+01 0.  1.
         -5    1    3    3    0  502  0.77251317645E+01  0.94087020723E+02 -0.21138918413E+03  0.23154892506E+03  0.41800000000E+01 0.  1.
        -11    1    1    2    0    0  0.49684364555E+02 -0.34565650518E+02 -0.28880396665E+03  0.29507804294E+03  0.00000000000E+00 0.  1.
         11    1    1    2    0    0 -0.31275001723E+02 -0.47445749328E+02 -0.11844465959E+03  0.13137108604E+03  0.00000000000E+00 0. -1.
</event>
<event>
 7    1  0.2842702E-009  0.1323453E+03  0.7561462E-02  0.1224017E+00
          1   -1    0    0  501    0  0.00000000000E+00  0.00000000000E+00  0.69571160216E+02  0.69571160216E+02  0.00000000000E+00 0. -1.
         -1   -1    0    0    0  501 -0.00000000000E+00 -0.00000000000E+00 -0.35704851970E+03  0.35704851970E+03  0.00000000000E+00 0.  1.
         25    2    1    2    0    0 -0.11100684255E+03  0.29012873047E+02 -0.15755572085E+03  0.23159363925E+03  0.12509013820E+03 0.  0.
          5    1    3    3  502    0 -0.39117452084E+02 -0.23457941515E+02 -0.13076300355E+03  0.13855282594E+03  0.41800000000E+01 0.  1.
         -5    1    3    3    0  502 -0.71889390463E+02  0.52470814562E+02 -0.26792717294E+02  0.93040813313E+02  0.41800000000E+01 0.  1.
        -11    1    1    2    0    0  0.67741356057E+02 -0.47502904848E+02 -0.12185449002E+03  0.14728860793E+03  0.00000000000E+00 0.  1.
         11    1    1    2    0    0  0.43265486490E+02  0.18490031801E+02 -0.80671486231E+01  0.47737432735E+02  0.00000000000E+00 0. -1.
</event>
<event>
 7    1  0.2842702E-009  0.1045054E+03  0.7561462E-02  0.1271097E+00
          1   -1    0    0  501    0  0.00000000000E+00  0.00000000000E+00  0.62668469701E+03  0.62668469701E+03  0.00000000000E+00 0. -1.
         -1   -1    0    0    0  501 -0.00000000000E+00 -0.00000000000E+00 -0.19811195702E+02  0.19811195702E+02  0.00000000000E+00 0.  1.
         25    2    1    2    0    0 -0.12024380980E+02  0.70584223565E+01  0.37334409673E+03  0.39398962060E+03  0.12509036539E+03 0.  0.
          5    1    3    3  502    0 -0.28339799980E+01  0.60570301066E+02  0.11613046539E+03  0.13107459786E+03  0.41800000000E+01 0. -1.
         -5    1    3    3    0  502 -0.91904009821E+01 -0.53511878709E+02  0.25721363134E+03  0.26291502274E+03  0.41800000000E+01 0. -1.
        -11    1    1    2    0    0  0.91488909776E+01 -0.49952826299E+02  0.98852264811E+02  0.11113396114E+03  0.00000000000E+00 0.  1.
         11    1    1    2    0    0  0.28754900025E+01  0.42894403942E+02  0.13467713977E+03  0.14137231097E+03  0.00000000000E+00 0. -1.
</event>
<event>
 7    1  0.2842702E-009  0.2658836E+03  0.7561462E-02  0.1103659E+00
          2   -1    0    0  501    0  0.00000000000E+00  0.00000000000E+00  0.12652082085E+04  0.12652082085E+04  0.00000000000E+00 0. -1.
         -2   -1    0    0    0  501 -0.00000000000E+00 -0.00000000000E+00 -0.65037869925E+02  0.65037869925E+02  0.00000000000E+00 0.  1.
         25    2    1    2    0    0 -0.13872545403E+03  0.22540055919E+03  0.57704383258E+03  0.64705268870E+03  0.12508970204E+03 0.  0.
          5    1    3    3  502    0 -0.30942643534E+02  0.75947129003E+02  0.71228208343E+02  0.10870300666E+03  0.41800000000E+01 0.  1.
         -5    1    3    3    0  502 -0.10778281050E+03  0.14945343018E+03  0.50581562423E+03  0.53834968204E+03  0.41800000000E+01 0.  1.
        -11    1    1    2    0    0  0.16567091886E+02 -0.40199457232E+02  0.20804484942E+03  0.21253970044E+03  0.00000000000E+00 0. -1.
         11    1    1    2    0    0  0.12215836215E+03 -0.18520110195E+03  0.41508165657E+03  0.47065368928E+03  0.00000000000E+00 0.  1.
</event>
<event>
 7    1  0.2842702E-009  0.1050236E+03  0.7561462E-02  0.1270073E+00
         -2   -1    0    0    0  501 -0.00000000000E+00  0.00000000000E+00  0.31380071929E+03  0.31380071929E+03  0.00000000000E+00 0. -1.
          2   -1    0    0  501    0  0.00000000000E+00 -0.00000000000E+00 -0.74928404189E+02  0.74928404189E+02  0.00000000000E+00 0.  1.
         25    2    1    2    0    0 -0.19004110448E+02 -0.61993460731E+02  0.19086783051E+02  0.14217899888E+03  0.12508483940E+03 0.  0.
          5    1    3    3  502    0 -0.62085664522E+02  0.35707853100E+01  0.82925847785E+01  0.62877814920E+02  0.41800000000E+01 0.  1.
         -5    1    3    3    0  502  0.43081554074E+02 -0.65564246041E+02  0.10794198272E+02  0.79301183956E+02  0.41800000000E+01 0.  1.
        -11    1    1    2    0    0 -0.39635261406E+01  0.27055975805E+02  0.50814570951E+01  0.27812885008E+02  0.00000000000E+00 0.  1.
         11    1    1    2    0    0  0.22967636588E+02  0.34937484926E+02  0.21470407495E+03  0.21873723959E+03  0.00000000000E+00 0. -1.
</event>
<event>
 7    1  0.2842702E-009  0.1454529E+03  0.7561462E-02  0.1206174E+00
         -2   -1    0    0    0  501 -0.00000000000E+00  0.00000000000E+00  0.19950682590E+02  0.19950682590E+02  0.00000000000E+00 0.  1.
          2   -1    0    0  501    0  0.00000000000E+00 -0.00000000000E+00 -0.11817111314E+04  0.11817111314E+04  0.00000000000E+00 0. -1.
         25    2    1    2    0    0 -0.98967345777E+02  0.12966015820E+02 -0.79415976229E+03  0.81012521719E+03  0.12510190403E+03 0.  0.
          5    1    3    3  502    0 -0.84812980735E+02  0.63500871597E+02 -0.47870420223E+03  0.49030683049E+03  0.41800000000E+01 0. -1.
         -5    1    3    3    0  502 -0.14154365042E+02 -0.50534855777E+02 -0.31545556006E+03  0.31981838670E+03  0.41800000000E+01 0. -1.
        -11    1    1    2    0    0 -0.32322340551E+01 -0.28648910521E+02 -0.52362477622E+02  0.59774881629E+02  0.00000000000E+00 0.  1.
         11    1    1    2    0    0  0.10219957983E+03  0.15682894701E+02 -0.31523820892E+03  0.33176171519E+03  0.00000000000E+00 0. -1.
</event>
<event>
 6    1  0.2842702E-009  0.2274625E+03  0.7561462E-02  0.1128439E+00
         -1   -1    0    0    0  501 -0.00000000000E+00  0.00000000000E+00  0.43711523400E+03  0.43711523400E+03  0.00000000000E+00 0.  1.
          1   -1    0    0  501    0  0.00000000000E+00 -0.00000000000E+00 -0.16567075783E+03  0.16567075783E+03  0.00000000000E+00 0. -1.
          5    1    1    2  502    0 -0.97665309701E+01  0.30296148356E+02 -0.96807093512E+01  0.33532525493E+02  0.41800000000E+01 0.  1.
         -5    1    1    2    0  502 -0.74525835841E+01  0.18985347257E+03  0.26976194078E+03  0.32998311948E+03  0.41800000000E+01 0.  1.
        -11    1    1    2    0    0  0.45962707645E+02 -0.15238834949E+03  0.32992953730E+02  0.16255249783E+03  0.00000000000E+00 0.  1.
         11    1    1    2    0    0 -0.28743593091E+02 -0.67761271434E+02 -0.21629708992E+02  0.76717849040E+02  0.00000000000E+00 0. -1.
</event>
<event>
 7    1  0.2842702E-009  0.8722454E+02  0.7561462E-02  0.1309716E+00
         -1   -1    0    0    0  501 -0.00000000000E+00  0.00000000000E+00  0.22856317591E+02  0.22856317591E+02  0.00000000000E+00 0.  1.
          1   -1    0    0  501    0  0.00000000000E+00 -0.00000000000E+00 -0.69694885792E+03  0.69694885792E+03  0.00000000000E+00 0. -1.
         25    2    1    2    0    0 -0.22148984299E+02  0.55359300804E+02 -0.30551684117E+03  0.33547543536E+03  0.12509195736E+03 0.  0.
          5    1    3    3  502    0  0.21074239543E+02 -0.87142853280E+00 -0.23287686121E+03  0.23386745786E+03  0.41800000000E+01 0. -1.
         -5    1    3    3    0  502 -0.43223223843E+02  0.56230729337E+02 -0.72639979963E+02  0.10160797749E+03  0.41800000000E+01 0. -1.
        -11    1    1    2    0    0  0.20492632159E+02  0.53409669809E+01 -0.15944479061E+02  0.26508495122E+02  0.00000000000E+00 0.  1.
         11    1    1    2    0    0  0.16563521402E+01 -0.60700267785E+02 -0.35263122009E+03  0.35782124503E+03  0.00000000000E+00 0. -1.
</event>
<event>
 7    1  0.2842702E-009  0.1409728E+03  0.7561462E-02  0.1212026E+00
         -2   -1    0    0    0  501 -0.00000000000E+00  0.00000000000E+00  0.39402608214E+03  0.39402608214E+03  0.00000000000E+00 0.  1.
          2   -1    0    0  501    0  0.00000000000E+00 -0.00000000000E+00 -0.13801089130E+03  0.13801089130E+03  0.00000000000E+00 0. -1.
         25    2    1    2    0    0  0.60052970531E+01  0.10314716687E+03  0.33569420274E+03  0.37284428466E+03  0.12508741433E+03 0.  0.
          5    1    3    3  502    0  0.13943487286E+02 -0.18388656084E+02  0.10749676880E+02  0.25799059349E+02  0.41800000000E+01 0.  1.
         -5    1    3    3    0  502 -0.79381902333E+01  0.12153582295E+03  0.32494452586E+03  0.34704522531E+03  0.41800000000E+01 0.  1.
        -11    1    1    2    0    0  0.41644217447E+02 -0.53718731056E+02 -0.29201420349E+02  0.73977468621E+02  0.00000000000E+00 0. -1.
         11    1    1    2    0    0 -0.47649514500E+02 -0.49428435813E+02 -0.50477591545E+02  0.85215220162E+02  0.00000000000E+00 0.  1.
</event>
<event>
 7    1  0.2842702E-009  0.1233812E+03  0.7561462E-02  0.1237621E+00
         -2   -1    0    0    0  501 -0.00000000000E+00  0.00000000000E+00  0.17733447463E+02  0.17733447463E+02  0.00000000000E+00 0.  1.
          2   -1    0    0  501    0  0.00000000000E+00 -0.00000000000E+00 -0.15789767301E+04  0.15789767301E+04  0.00000000000E+00 0. -1.
         25    2    1    2    0    0  0.65853021336E+02  0.68344878270E+01 -0.13501141119E+04  0.13575118300E+04  0.12508766125E+03 0.  0.
          5    1    3    3  502    0  0.34634124127E+02 -0.54917203978E+02 -0.44289375323E+03  0.44764692660E+03  0.41800000000E+01 0.  1.
         -5    1    3    3    0  502  0.31218897208E+02  0.61751691805E+02 -0.90722035865E+03  0.90986490345E+03  0.41800000000E+01 0.  1.
        -11    1    1    2    0    0 -0.53756929769E+02  0.38072453002E+02 -0.12718858189E+03  0.14323496270E+03  0.00000000000E+00 0.  1.
         11    1    1    2    0    0 -0.12096091566E+02 -0.44906940829E+02 -0.83940588901E+02  0.95963384845E+02  0.00000000000E+00 0. -1.
</event>
<event>
 7    1  0.2842702E-009  0.1384768E+03  0.7561462E-02  0.1215393E+00
          1   -1    0    0  501    0  0.00000000000E+00  0.00000000000E+00  0.19485862708E+02  0.19485862708E+02  0.00000000000E+00 0. -1.
         -1   -1    0    0    0  501 -0.00000000000E+00 -0.00000000000E+00 -0.17838645214E+04  0.17838645214E+04  0.00000000000E+00 0.  1.
         25    2    1    2    0    0 -0.91218563652E+01 -0.10189470258E+03 -0.14650237042E+04  0.14739079896E+04  0.12507825262E+03 0.  0.
          5    1    3    3  502    0  0.44781932529E+02 -0.20804125244E+02 -0.24285124514E+03  0.24785566924E+03  0.41800000000E+01 0.  1.
         -5    1    3    3    0  502 -0.53903788894E+02 -0.81090577340E+02 -0.12221724591E+04  0.12260523204E+04  0.41800000000E+01 0.  1.
        -11    1    1    2    0    0  0.44874665835E+02  0.57122963550E+02 -0.11176251399E+03  0.13329526673E+03  0.00000000000E+00 0.  1.
         11    1    1    2    0    0 -0.35752809469E+02  0.44771739034E+02 -0.18759244050E+03  0.19614712777E+03  0.00000000000E+00 0. -1.
</event>
<event>
 7    1  0.2922861E-009  0.9038386E+02  0.7561462E-02  0.1301925E+00
          2   -1    0    0  501    0  0.00000000000E+00  0.00000000000E+00  0.76387568921E+02  0.76387568921E+02  0.00000000000E+00 0. -1.
         -2   -1    0    0    0  501 -0.00000000000E+00 -0.00000000000E+00 -0.25849880079E+03  0.25849880079E+03  0.00000000000E+00 0.  1.
         25    2    1    2    0    0  0.45403521942E+02  0.76697499304E+02 -0.94174633391E+02  0.18016771203E+03  0.12509019418E+03 0.  0.
          5    1    3    3  502    0  0.40979679077E+02  0.68552179459E+02  0.53217103081E+01  0.80153155935E+02  0.41800000000E+01 0. -1.
         -5    1    3    3    0  502  0.44238428642E+01  0.81453198457E+01 -0.99496343699E+02  0.10001455609E+03  0.41800000000E+01 0. -1.
        -11    1    1    2    0    0 -0.11684249328E+02 -0.35571165739E+02 -0.94009203119E+02  0.10119070998E+03  0.00000000000E+00 0. -1.
         11    1    1    2    0    0 -0.33719272613E+02 -0.41126333565E+02  0.60726046454E+01  0.53527947703E+02  0.00000000000E+00 0.  1.
</event>
<event>
 7    1  0.2842702E-009  0.1172150E+03  0.7561462E-02  0.1247763E+00
         -2   -1    0    0    0  501 -0.00000000000E+00  0.00000000000E+00  0.16904531490E+03  0.16904531490E+03  0.00000000000E+00 0.  1.
          2   -1    0    0  501    0  0.00000000000E+00 -0.00000000000E+00 -0.11290657343E+03  0.11290657343E+03  0.00000000000E+00 0. -1.
         25    2    1    2    0    0 -0.64882083321E+02  0.46579503936E+02  0.59609696277E+02  0.15993817716E+03  0.12509024622E+03 0.  0.
          5    1    3    3  502    0  0.20040695262E+02  0.38804921223E+02 -0.15187876931E+02  0.46428389842E+02  0.41800000000E+01 0.  1.
         -5    1    3    3    0  502 -0.84922778583E+02  0.77745827129E+01  0.74797573208E+02  0.11350978732E+03  0.41800000000E+01 0.  1.
        -11    1    1    2    0    0 -0.11734026650E+02  0.50633650879E+01 -0.24158092858E+02  0.27330175594E+02  0.00000000000E+00 0. -1.
         11    1    1    2    0    0  0.76616109971E+02 -0.51642869024E+02  0.20687138049E+02  0.94683535574E+02  0.00000000000E+00 0.  1.
</event>
<event>
 7    1  0.2842702E-009  0.1877050E+03  0.7561462E-02  0.1160548E+00
          3   -1    0    0  501    0  0.00000000000E+00  0.00000000000E+00  0.20797689630E+03  0.20797689630E+03  0.00000000000E+00 0. -1.
         -3   -1    0    0    0  501 -0.00000000000E+00 -0.00000000000E+00 -0.24286082675E+03  0.24286082675E+03  0.00000000000E+00 0.  1.
         25    2    1    2    0    0 -0.15723501610E+03 -0.99645055265E+02  0.45099540681E+02  0.22876206895E+03  0.12508448463E+03 0.  0.
          5    1    3    3  502    0 -0.11651242865E+03 -0.64633028306E+02  0.88143032310E+02  0.15981001509E+03  0.41800000000E+01 0.  1.
         -5    1    3    3    0  502 -0.40722587448E+02 -0.35012026960E+02 -0.43043491629E+02  0.68952053862E+02  0.41800000000E+01 0.  1.
        -11    1    1    2    0    0  0.62894558635E+02  0.24007469209E+02 -0.75386463438E+02  0.10107028719E+03  0.00000000000E+00 0.  1.
         11    1    1    2    0    0  0.94340457466E+02  0.75637586056E+02 -0.45970077002E+01  0.12100536690E+03  0.00000000000E+00 0. -1.
</event>
<event>
 7    1  0.2842702E-009  0.1195869E+03  0.7561462E-02  0.1243780E+00
         -2   -1    0    0    0  501 -0.00000000000E+00  0.00000000000E+00  0.51131937925E+02  0.51131937925E+02  0.00000000000E+00 0.  1.
          2   -1    0    0  501    0  0.00000000000E+00 -0.00000000000E+00 -0.13203886918E+04  0.13203886918E+04  0.00000000000E+00 0. -1.
         25    2    1    2    0    0 -0.84456621020E+02 -0.41625324617E+02 -0.12084257870E+04  0.12185264868E+04  0.12509327654E+03 0.  0.
          5    1    3    3  502    0 -0.26637541094E+02 -0.34657630195E+02 -0.10269703692E+04  0.10279087126E+04  0.41800000000E+01 0. -1.
         -5    1    3    3    0  502 -0.57819079925E+02 -0.69676944216E+01 -0.18145541781E+03  0.19061777415E+03  0.41800000000E+01 0. -1.
        -11    1    1    2    0    0  0.10574630829E+03  0.22191580663E+02 -0.61176300094E+02  0.12416637090E+03  0.00000000000E+00 0. -1.
         11    1    1    2    0    0 -0.21289687274E+02  0.19433743954E+02  0.34533316816E+00  0.28827772083E+02  0.00000000000E+00 0.  1.
</event>
<event>
 7    1  0.2842702E-009  0.1262610E+03  0.7561462E-02  0.1233112E+00
         -1   -1    0    0    0  501 -0.00000000000E+00  0.00000000000E+00  0.21223846405E+02  0.21223846405E+02  0.00000000000E+00 0.  1.
          1   -1    0    0  501    0  0.00000000000E+00 -0.00000000000E+00 -0.81107160288E+03  0.81107160288E+03  0.00000000000E+00 0. -1.
         25    2    1    2    0    0 -0.56020607300E+02 -0.41655042301E+02 -0.36436913090E+03  0.39151781266E+03  0.12509149887E+03 0.  0.
          5    1    3    3  502    0  0.91009600036E+01 -0.67681435441E+02 -0.13082413116E+03  0.14763478544E+03  0.41800000000E+01 0.  1.
         -5    1    3    3    0  502 -0.65121567303E+02  0.26026393140E+02 -0.23354499974E+03  0.24388302723E+03  0.41800000000E+01 0.  1.
        -11    1    1    2    0    0  0.35617889652E+01 -0.27119002115E+02 -0.13267580588E+03  0.13546584840E+03  0.00000000000E+00 0.  1.
         11    1    1    2    0    0  0.52458818334E+02  0.68774044416E+02 -0.29280281970E+03  0.30531178822E+03  0.00000000000E+00 0. -1.
</event>
<event>
 7    1  0.2842702E-009  0.1172686E+03  0.7561462E-02  0.1247672E+00
         -2   -1    0    0    0  501 -0.00000000000E+00  0.00000000000E+00  0.10798647415E+03  0.10798647415E+03  0.00000000000E+00 0.  1.
          2   -1    0    0  501    0  0.00000000000E+00 -0.00000000000E+00 -0.14318839343E+03  0.14318839343E+03  0.00000000000E+00 0. -1.
         25    2    1    2    0    0  0.17145611135E+02  0.65624302954E+02 -0.31521923259E+02  0.14574715944E+03  0.12509229281E+03 0.  0.
          5    1    3    3  502    0  0.61462160986E+02  0.73993778600E+02 -0.14531450300E+02  0.97372028594E+02  0.41800000000E+01 0.  1.
         -5    1    3    3    0  502 -0.44316549851E+02 -0.83694756457E+01 -0.16990472959E+02  0.48375130849E+02  0.41800000000E+01 0.  1.
        -11    1    1    2    0    0 -0.41436441879E+02 -0.44013906484E+02 -0.26193931446E+02  0.65881140884E+02  0.00000000000E+00 0.  1.
         11    1    1    2    0    0  0.24290830744E+02 -0.21610396471E+02  0.22513935425E+02  0.39546567262E+02  0.00000000000E+00 0. -1.
</event>
<event>
 7    1  0.2842702E-009  0.1121013E+03  0.7561462E-02  0.1256727E+00
         -2   -1    0    0    0  501 -0.00000000000E+00  0.00000000000E+00  0.13067012959E+03  0.13067012959E+03  0.00000000000E+00 0. -1.
          2   -1    0    0  501    0  0.00000000000E+00 -0.00000000000E+00 -0.18898332881E+03  0.18898332881E+03  0.00000000000E+00 0.  1.
         25    2    1    2    0    0 -0.30414349065E+02  0.47626412667E+02 -0.13122723662E+03  0.18989617357E+03  0.12508661517E+03 0.  0.
          5    1    3    3  502    0 -0.21511197651E+02 -0.33290596039E+02 -0.57515180050E+01  0.40268446312E+02  0.41800000000E+01 0.  1.
         -5    1    3    3    0  502 -0.89031514142E+01  0.80917008706E+02 -0.12547571862E+03  0.14962772726E+03  0.41800000000E+01 0.  1.
        -11    1    1    2    0    0 -0.18674533838E+02  0.14508501731E+02  0.24781052370E+01  0.23777633232E+02  0.00000000000E+00 0.  1.
         11    1    1    2    0    0  0.49088882903E+02 -0.62134914398E+02  0.70435932169E+02  0.10597965160E+03  0.00000000000E+00 0. -1.
</event>
<event>
 7    1  0.2842702E-009  0.2097855E+03  0.7561462E-02  0.1141736E+00
         -4   -1    0    0    0  501 -0.00000000000E+00  0.00000000000E+00  0.31995268512E+03  0.31995268512E+03  0.00000000000E+00 0.  1.
          4   -1    0    0  501    0  0.00000000000E+00 -0.00000000000E+00 -0.16352309265E+03  0.16352309265E+03  0.00000000000E+00 0. -1.
         25    2    1    2    0    0 -0.10513162425E+03 -0.16531833043E+03  0.12684468099E+03  0.26480182526E+03  0.12509046637E+03 0.  0.
          5    1    3    3  502    0 -0.13043389222E+02  0.84774916292E+01 -0.15202824623E+02  0.22149405031E+02  0.41800000000E+01 0.  1.
         -5    1    3    3    0  502 -0.92088235023E+02 -0.17379582205E+03  0.14204750561E+03  0.24265242023E+03  0.41800000000E+01 0.  1.
        -11    1    1    2    0    0  0.60962516657E+02  0.14658310920E+03 -0.61127257469E+01  0.15887228127E+03  0.00000000000E+00 0. -1.
         11    1    1    2    0    0  0.44169107589E+02  0.18735221231E+02  0.35697637225E+02  0.59801671241E+02  0.00000000000E+00 0.  1.
</event>
<event>
 7    1  0.2842702E-009  0.1267597E+03  0.7561462E-02  0.1232344E+00
          2   -1    0    0  501    0  0.00000000000E+00  0.00000000000E+00  0.51708483351E+03  0.51708483351E+03  0.00000000000E+00 0. -1.
         -2   -1    0    0    0  501 -0.00000000000E+00 -0.00000000000E+00 -0.73763221014E+02  0.73763221014E+02  0.00000000000E+00 0.  1.
         25    2    1    2    0    0 -0.71371199640E+02  0.72155599566E+02  0.41468382561E+02  0.16633089534E+03  0.12508421686E+03 0.  0.
          5    1    3    3  502    0 -0.40263069860E+02  0.75320568753E+02 -0.28047863266E+02  0.89991432401E+02  0.41800000000E+01 0.  1.
         -5    1    3    3    0  502 -0.31108129780E+02 -0.31649691868E+01  0.69516245827E+02  0.76339462942E+02  0.41800000000E+01 0.  1.
        -11    1    1    2    0    0  0.23496720532E+01 -0.67225213014E+02  0.18209725764E+03  0.19412408780E+03  0.00000000000E+00 0.  1.
         11    1    1    2    0    0  0.69021527586E+02 -0.49303865524E+01  0.21975597229E+03  0.23039307138E+03  0.00000000000E+00 0. -1.
</event>
<event>
 7    1  0.2842702E-009  0.1168960E+03  0.7561462E-02  0.1248307E+00
          1   -1    0    0  501    0  0.00000000000E+00  0.00000000000E+00  0.44404566652E+03  0.44404566652E+03  0.00000000000E+00 0. -1.
         -1   -1    0    0    0  501 -0.00000000000E+00 -0.00000000000E+00 -0.44836004351E+02  0.44836004351E+02  0.00000000000E+00 0.  1.
         25    2    1    2    0    0 -0.61007347478E+02 -0.51367450935E+02  0.17226859826E+03  0.22733666877E+03  0.12507989271E+03 0.  0.
          5    1    3    3  502    0 -0.75231736549E+02 -0.43057833014E+02  0.42810631455E+02  0.96767834189E+02  0.41800000000E+01 0.  1.
         -5    1    3    3    0  502  0.14224389071E+02 -0.83096179217E+01  0.12945796681E+03  0.13056883459E+03  0.41800000000E+01 0.  1.
        -11    1    1    2    0    0  0.26752772486E+02  0.80635756686E+02  0.14811034229E+03  0.17074691677E+03  0.00000000000E+00 0. -1.
         11    1    1    2    0    0  0.34254574992E+02 -0.29268305751E+02  0.78830721614E+02  0.90798085330E+02  0.00000000000E+00 0.  1.
</event>
<event>
 7    1  0.3842607E-009  0.9499403E+02  0.7561462E-02  0.1291190E+00
         -1   -1    0    0    0  501 -0.00000000000E+00  0.00000000000E+00  0.21435873044E+02  0.21435873044E+02  0.00000000000E+00 0.  1.
          1   -1    0    0  501    0  0.00000000000E+00 -0.00000000000E+00 -0.96593583427E+03  0.96593583427E+03  0.00000000000E+00 0. -1.
         25    2    1    2    0    0  0.62966556908E+02 -0.63431493277E+02 -0.61765488749E+03  0.63650192307E+03  0.12509514943E+03 0.  0.
          5    1    3    3  502    0  0.43752104678E+02 -0.58885736603E+02 -0.13732225567E+03  0.15574546844E+03  0.41800000000E+01 0. -1.
         -5    1    3    3    0  502  0.19214452231E+02 -0.45457566746E+01 -0.48033263182E+03  0.48075645463E+03  0.41800000000E+01 0. -1.
        -11    1    1    2    0    0 -0.70481543852E+01  0.30771694402E+02 -0.20237901940E+02  0.37498617728E+02  0.00000000000E+00 0.  1.
         11    1    1    2    0    0 -0.55918402523E+02  0.32659798876E+02 -0.30660717180E+03  0.31337116651E+03  0.00000000000E+00 0. -1.
</event>
<event>
 7    1  0.2842702E-009  0.1050350E+03  0.7561462E-02  0.1270051E+00
          2   -1    0    0  501    0  0.00000000000E+00  0.00000000000E+00  0.68917855766E+03  0.68917855766E+03  0.00000000000E+00 0. -1.
         -2   -1    0    0    0  501 -0.00000000000E+00 -0.00000000000E+00 -0.19545635269E+02  0.19545635269E+02  0.00000000000E+00 0.  1.
         25    2    1    2    0    0  0.57211084149E+01  0.40323291466E+02  0.38854976517E+03  0.41021616462E+03  0.12509069825E+03 0.  0.
          5    1    3    3  502    0 -0.47848750174E+02  0.16359371251E+02  0.29760709502E+03  0.30190161862E+03  0.41800000000E+01 0. -1.
         -5    1    3    3    0  502  0.53569858588E+02  0.23963920215E+02  0.90942670148E+02  0.10831454600E+03  0.41800000000E+01 0. -1.
        -11    1    1    2    0    0  0.43100324057E+02 -0.21563436357E+02  0.13464888324E+03  0.14301378073E+03  0.00000000000E+00 0.  1.
         11    1    1    2    0    0 -0.48821432471E+02 -0.18759855109E+02  0.14643427398E+03  0.15549424757E+03  0.00000000000E+00 0. -1.
</event>
<event>
 7    1  0.2853547E-009  0.1251562E+03  0.7561462E-02  0.1234825E+00
          3   -1    0    0  501    0  0.00000000000E+00  0.00000000000E+00  0.29850848976E+03  0.29850848976E+03  0.00000000000E+00 0. -1.
         -3   -1    0    0    0  501 -0.00000000000E+00 -0.00000000000E+00 -0.61077841867E+02  0.61077841867E+02  0.00000000000E+00 0.  1.
         25    2    1    2    0    0 -0.45606202754E+02  0.64898946136E+02  0.14614600767E+03  0.20808219668E+03  0.12509095122E+03 0.  0.
          5    1    3    3  502    0 -0.66302992539E+02  0.80057246585E+02  0.14922421239E+03  0.18190818430E+03  0.41800000000E+01 0. -1.
         -5    1    3    3    0  502  0.20696789785E+02 -0.15158300450E+02 -0.30782047161E+01  0.26174012382E+02  0.41800000000E+01 0. -1.
        -11    1    1    2    0    0  0.73437489559E+02 -0.46331441300E+02  0.72604129626E+02  0.11318580726E+03  0.00000000000E+00 0.  1.
         11    1    1    2    0    0 -0.27831286804E+02 -0.18567504835E+02  0.18680510590E+02  0.38318327689E+02  0.00000000000E+00 0. -1.
</event>
<event>
 7    1  0.2842702E-009  0.3722701E+03  0.7561462E-02  0.1053828E+00
          2   -1    0    0  501    0  0.00000000000E+00  0.00000000000E+00  0.29316576415E+03  0.29316576415E+03  0.00000000000E+00 0. -1.
         -2   -1    0    0    0  501 -0.00000000000E+00 -0.00000000000E+00 -0.51049892408E+03  0.51049892408E+03  0.00000000000E+00 0.  1.
         25    2    1    2    0    0  0.24526134276E+03  0.26521594991E+03 -0.48069709072E+02  0.38529402579E+03  0.12509261784E+03 0.  0.
          5    1    3    3  502    0  0.76483882604E+02  0.15752822954E+03 -0.58765911147E+02  0.18475884854E+03  0.41800000000E+01 0. -1.
         -5    1    3    3    0  502  0.16877746016E+03  0.10768772037E+03  0.10696202074E+02  0.20053517725E+03  0.41800000000E+01 0. -1.
        -11    1    1    2    0    0 -0.50316799348E+02 -0.10633131824E+03 -0.10761542702E+03  0.15943402921E+03  0.00000000000E+00 0.  1.
         11    1    1    2    0    0 -0.19494454341E+03 -0.15888463166E+03 -0.61648023838E+02  0.25893663323E+03  0.00000000000E+00 0. -1.
</event>
<event>
 7    1  0.2842702E-009  0.1012841E+03  0.7561462E-02  0.1277619E+00
         -1   -1    0    0    0  501 -0.00000000000E+00  0.00000000000E+00  0.11845594684E+03  0.11845594684E+03  0.00000000000E+00 0.  1.
          1   -1    0    0  501    0  0.00000000000E+00 -0.00000000000E+00 -0.21307729503E+03  0.21307729503E+03  0.00000000000E+00 0. -1.
         25    2    1    2    0    0  0.18969754075E+02  0.51760787208E+02 -0.15636498036E+03  0.20768721735E+03  0.12507974458E+03 0.  0.
          5    1    3    3  502    0  0.58757783097E+02  0.44042994460E+02 -0.14916303637E+03  0.16631099258E+03  0.41800000000E+01 0.  1.
         -5    1    3    3    0  502 -0.39788029022E+02  0.77177927474E+01 -0.72019439949E+01  0.41376224763E+02  0.41800000000E+01 0.  1.
        -11    1    1    2    0    0  0.14139216551E+01  0.16741991749E+02 -0.12385986806E+02  0.20873574953E+02  0.00000000000E+00 0.  1.
         11    1    1    2    0    0 -0.20383675731E+02 -0.68502778956E+02  0.74129618978E+02  0.10297244957E+03  0.00000000000E+00 0. -1.
</event>
<event>
 7    1  0.2842702E-009  0.8405014E+02  0.7561462E-02  0.1317935E+00
         -2   -1    0    0    0  501 -0.00000000000E+00  0.00000000000E+00  0.38333781427E+02  0.38333781427E+02  0.00000000000E+00 0.  1.
          2   -1    0    0  501    0  0.00000000000E+00 -0.00000000000E+00 -0.36878326671E+03  0.36878326671E+03  0.00000000000E+00 0. -1.
         25    2    1    2    0    0 -0.49067648827E+00 -0.19686412691E+02 -0.26967974845E+03  0.29793074572E+03  0.12509103452E+03 0.  0.
          5    1    3    3  502    0 -0.10423732889E+02  0.32295137102E+02 -0.22769546254E+03  0.23024840097E+03  0.41800000000E+01 0.  1.
         -5    1    3    3    0  502  0.99330564007E+01 -0.51981549793E+02 -0.41984285902E+02  0.67682344751E+02  0.41800000000E+01 0.  1.
        -11    1    1    2    0    0 -0.26443610236E+02 -0.19791938422E+02 -0.15207009121E+01  0.33065055272E+02  0.00000000000E+00 0.  1.
         11    1    1    2    0    0  0.26934286724E+02  0.39478351114E+02 -0.59249035922E+02  0.76121247137E+02  0.00000000000E+00 0. -1.
</event>
<event>
 7    1  0.2842702E-009  0.1156522E+03  0.7561462E-02  0.1250447E+00
         -1   -1    0    0    0  501 -0.00000000000E+00  0.00000000000E+00  0.45456749150E+02  0.45456749150E+02  0.00000000000E+00 0.  1.
          1   -1    0    0  501    0  0.00000000000E+00 -0.00000000000E+00 -0.36776439267E+03  0.36776439267E+03  0.00000000000E+00 0. -1.
         25    2    1    2    0    0  0.75844751860E+01  0.43475748667E+02 -0.26862791969E+03  0.29959325402E+03  0.12508994218E+03 0.  0.
          5    1    3    3  502    0 -0.53197544133E+02 -0.60443422598E+01 -0.12113819030E+03  0.13250828776E+03  0.41800000000E+01 0.  1.
         -5    1    3    3    0  502  0.60782019319E+02  0.49520090926E+02 -0.14748972938E+03  0.16708496626E+03  0.41800000000E+01 0.  1.
        -11    1    1    2    0    0  0.28868496178E+02  0.13167787171E+02 -0.96892955055E+01  0.33176243578E+02  0.00000000000E+00 0. -1.
         11    1    1    2    0    0 -0.36452971364E+02 -0.56643535837E+02 -0.43990428332E+02  0.80451644224E+02  0.00000000000E+00 0.  1.
</event>
<event>
 7    1  0.3793867E-009  0.1183288E+03  0.7561462E-02  0.1245880E+00
         -1   -1    0    0    0  501 -0.00000000000E+00  0.00000000000E+00  0.84482590103E+02  0.84482590103E+02  0.00000000000E+00 0.  1.
          1   -1    0    0  501    0  0.00000000000E+00 -0.00000000000E+00 -0.26236382249E+03  0.26236382249E+03  0.00000000000E+00 0. -1.
         25    2    1    2    0    0  0.90258182736E+02 -0.10536159922E+01 -0.41554774260E+02  0.15971728949E+03  0.12504064795E+03 0.  0.
          5    1    3    3  502    0 -0.35538097925E+01 -0.13555005970E+02  0.34990908640E+02  0.37923658029E+02  0.41800000000E+01 0.  1.
         -5    1    3    3    0  502  0.93811992529E+02  0.12501389978E+02 -0.76545682900E+02  0.12179363146E+03  0.41800000000E+01 0.  1.
        -11    1    1    2    0    0 -0.55160785962E+02 -0.43737587433E+02 -0.64354118529E+02  0.95378936008E+02  0.00000000000E+00 0. -1.
         11    1    1    2    0    0 -0.35097396775E+02  0.44791203426E+02 -0.71972339593E+02  0.91750187091E+02  0.00000000000E+00 0.  1.
</event>
<event>
 7    1  0.2842702E-009  0.1355849E+03  0.7561462E-02  0.1219396E+00
          2   -1    0    0  501    0  0.00000000000E+00  0.00000000000E+00  0.15689014439E+04  0.15689014439E+04  0.00000000000E+00 0. -1.
         -2   -1    0    0    0  501 -0.00000000000E+00 -0.00000000000E+00 -0.30216649620E+02  0.30216649620E+02  0.00000000000E+00 0.  1.
         25    2    1    2    0    0  0.12563726155E+03 -0.70160911975E+01  0.13485479709E+04  0.13601706911E+04  0.12509489271E+03 0.  0.
          5    1    3    3  502    0  0.66474460973E+02  0.95538697141E+00  0.21589252658E+03  0.22593543803E+03  0.41800000000E+01 0.  1.
         -5    1    3    3    0  502  0.59162800578E+02 -0.79714781689E+01  0.11326554443E+04  0.11342352531E+04  0.41800000000E+01 0.  1.
        -11    1    1    2    0    0 -0.29486231112E+02 -0.29643338385E+02  0.55947718001E+02  0.69844917390E+02  0.00000000000E+00 0.  1.
         11    1    1    2    0    0 -0.96151030439E+02  0.36659429582E+02  0.13418910543E+03  0.16910248504E+03  0.00000000000E+00 0. -1.
</event>
<event>
 7    1  0.2842702E-009  0.1120298E+03  0.7561462E-02  0.1256857E+00
         -2   -1    0    0    0  501 -0.00000000000E+00  0.00000000000E+00  0.84760644032E+03  0.84760644032E+03  0.00000000000E+00 0.  1.
          2   -1    0    0  501    0  0.00000000000E+00 -0.00000000000E+00 -0.19037031461E+02  0.19037031461E+02  0.00000000000E+00 0. -1.
         25    2    1    2    0    0  0.40501324548E+02  0.53045104540E+02  0.46262316631E+03  0.48386065063E+03  0.12508714889E+03 0.  0.
          5    1    3    3  502    0  0.81499794813E+02  0.29928049480E+02  0.36760673255E+03  0.37774341413E+03  0.41800000000E+01 0. -1.
         -5    1    3    3    0  502 -0.40998470265E+02  0.23117055060E+02  0.95016433756E+02  0.10611723650E+03  0.41800000000E+01 0. -1.
        -11    1    1    2    0    0  0.75329763107E+01  0.87962843758E+01  0.36820431940E+01  0.12152275219E+02  0.00000000000E+00 0. -1.
         11    1    1    2    0    0 -0.48034300858E+02 -0.61841388916E+02  0.36226419936E+03  0.37063054593E+03  0.00000000000E+00 0.  1.
</event>
<event>
 7    1  0.2842702E-009  0.2321998E+03  0.7561462E-02  0.1125101E+00
         -3   -1    0    0    0  501 -0.00000000000E+00  0.00000000000E+00  0.11550989503E+04  0.11550989503E+04  0.00000000000E+00 0.  1.
          3   -1    0    0  501    0  0.00000000000E+00 -0.00000000000E+00 -0.48305937375E+02  0.48305937375E+02  0.00000000000E+00 0. -1.
         25    2    1    2    0    0  0.93120923073E+02 -0.18742555251E+03  0.59728693735E+03  0.64513546749E+03  0.12509293280E+03 0.  0.
          5    1    3    3  502    0 -0.12795779324E+00 -0.12881335191E+03  0.38403437087E+03  0.40508365360E+03  0.41800000000E+01 0.  1.
         -5    1    3    3    0  502  0.93248880866E+02 -0.58612200596E+02  0.21325256648E+03  0.24005181389E+03  0.41800000000E+01 0.  1.
        -11    1    1    2    0    0 -0.10705952127E+03  0.14233646721E+03  0.43530103342E+03  0.47032797141E+03  0.00000000000E+00 0. -1.
         11    1    1    2    0    0  0.13938598197E+02  0.45089085297E+02  0.74205042178E+02  0.87941448801E+02  0.00000000000E+00 0.  1.
</event>
<event>
 7    1  0.2842702E-009  0.9834361E+02  0.7561462E-02  0.1283818E+00
          1   -1    0    0  501    0  0.00000000000E+00  0.00000000000E+00  0.87080649054E+03  0.87080649054E+03  0.00000000000E+00 0. -1.
         -1   -1    0    0    0  501 -0.00000000000E+00 -0.00000000000E+00 -0.19269171926E+02  0.19269171926E+02  0.00000000000E+00 0.  1.
         25    2    1    2    0    0 -0.40139172556E+01  0.26021025812E+02  0.66845884802E+03  0.68057346890E+03  0.12509919966E+03 0.  0.
          5    1    3    3  502    0  0.60867150857E+00 -0.34689776763E+02  0.50309191639E+03  0.50430417391E+03  0.41800000000E+01 0. -1.
         -5    1    3    3    0  502 -0.46225887642E+01  0.60710802576E+02  0.16536693163E+03  0.17626929498E+03  0.41800000000E+01 0. -1.
        -11    1    1    2    0    0  0.17456842622E+02  0.34526878844E+02  0.86007465460E+02  0.94308699662E+02  0.00000000000E+00 0. -1.
         11    1    1    2    0    0 -0.13442925367E+02 -0.60547904656E+02  0.97071005138E+02  0.11519349391E+03  0.00000000000E+00 0.  1.
</event>
<event>
 7    1  0.2842702E-009  0.1042678E+03  0.7561462E-02  0.1271569E+00
          1   -1    0    0  501    0  0.00000000000E+00  0.00000000000E+00  0.39905809882E+03  0.39905809882E+03  0.00000000000E+00 0. -1.
         -1   -1    0    0    0  501 -0.00000000000E+00 -0.00000000000E+00 -0.35004596626E+02  0.35004596626E+02  0.00000000000E+00 0.  1.
         25    2    1    2    0    0 -0.36685891200E+02 -0.47214003375E+02  0.25495014639E+03  0.29021004479E+03  0.12508907318E+03 0.  0.
          5    1    3    3  502    0  0.46679499380E+02 -0.18050681007E+02  0.91280969224E+02  0.10418488609E+03  0.41800000000E+01 0. -1.
         -5    1    3    3    0  502 -0.83365390580E+02 -0.29163322368E+02  0.16366917716E+03  0.18602515870E+03  0.41800000000E+01 0. -1.
        -11    1    1    2    0    0  0.29652564621E+02  0.89263319587E+01  0.33327586539E+01  0.31145806638E+02  0.00000000000E+00 0.  1.
         11    1    1    2    0    0  0.70333265785E+01  0.38287671416E+02  0.10577059716E+03  0.11270684402E+03  0.00000000000E+00 0. -1.
</event>
<event>
 7    1  0.2842702E-009  0.1607535E+03  0.7561462E-02  0.1187849E+00
          1   -1    0    0  501    0  0.00000000000E+00  0.00000000000E+00  0.44380344704E+03  0.44380344704E+03  0.00000000000E+00 0. -1.
         -1   -1    0    0    0  501 -0.00000000000E+00 -0.00000000000E+00 -0.67902849375E+02  0.67902849375E+02  0.00000000000E+00 0.  1.
         25    2    1    2    0    0 -0.22217689231E+02 -0.13443699489E+03  0.18493713216E+03  0.26156610603E+03  0.12509258035E+03 0.  0.
          5    1    3    3  502    0  0.45892644814E+02 -0.96202373558E+02  0.10281172491E+03  0.14815112118E+03  0.41800000000E+01 0. -1.
         -5    1    3    3    0  502 -0.68110334045E+02 -0.38234621335E+02  0.82125407248E+02  0.11341498485E+03  0.41800000000E+01 0. -1.
        -11    1    1    2    0    0  0.12338051070E+02  0.10100355116E+03  0.68133738407E+02  0.12245877331E+03  0.00000000000E+00 0.  1.
         11    1    1    2    0    0  0.98796381609E+01  0.33433443737E+02  0.12282972710E+03  0.12768141709E+03  0.00000000000E+00 0. -1.
</event>
<event>
 7    1  0.2842702E-009  0.8829680E+02  0.7561462E-02  0.1307029E+00
          4   -1    0    0  501    0  0.00000000000E+00  0.00000000000E+00  0.11008465372E+03  0.11008465372E+03  0.00000000000E+00 0.  1.
         -4   -1    0    0    0  501 -0.00000000000E+00 -0.00000000000E+00 -0.15338619102E+03  0.15338619102E+03  0.00000000000E+00 0. -1.
         25    2    1    2    0    0  0.58160160602E+01 -0.47325027864E+01 -0.96382441518E+02  0.15809325099E+03  0.12509068052E+03 0.  0.
          5    1    3    3  502    0  0.16924491349E+02 -0.45587100053E+02 -0.10399072728E+03  0.11487456576E+03  0.41800000000E+01 0. -1.
         -5    1    3    3    0  502 -0.11108475288E+02  0.40854597267E+02  0.76082857625E+01  0.43218685233E+02  0.41800000000E+01 0. -1.
        -11    1    1    2    0    0  0.35882693250E+02  0.19705833787E+02  0.71443133017E+01  0.41556332522E+02  0.00000000000E+00 0.  1.
         11    1    1    2    0    0 -0.41698709310E+02 -0.14973331001E+02  0.45936590918E+02  0.63821261227E+02  0.00000000000E+00 0. -1.
</event>
<event>
 7    1  0.2842702E-009  0.1235957E+03  0.7561462E-02  0.1237280E+00
          1   -1    0    0  501    0  0.00000000000E+00  0.00000000000E+00  0.44283883602E+03  0.44283883602E+03  0.00000000000E+00 0. -1.
         -1   -1    0    0    0  501 -0.00000000000E+00 -0.00000000000E+00 -0.45296768925E+02  0.45296768925E+02  0.00000000000E+00 0.  1.
         25    2    1    2    0    0 -0.59427820928E+02  0.59144224582E+02  0.27889070653E+03  0.31695025060E+03  0.12509088681E+03 0.  0.
          5    1    3    3  502    0 -0.49146928667E+02 -0.20085613719E+02  0.44893817537E+02  0.69654717923E+02  0.41800000000E+01 0.  1.
         -5    1    3    3    0  502 -0.10280892260E+02  0.79229838300E+02  0.23399688899E+03  0.24729553267E+03  0.41800000000E+01 0.  1.
        -11    1    1    2    0    0  0.63346463852E+02 -0.94089020568E+01  0.32951047965E+02  0.72021340466E+02  0.00000000000E+00 0.  1.
         11    1    1    2    0    0 -0.39186429245E+01 -0.49735322525E+02  0.85700312600E+02  0.99164013880E+02  0.00000000000E+00 0. -1.
</event>
<event>
 7    1  0.2842702E-009  0.9758505E+02  0.7561462E-02  0.1285458E+00
         -1   -1    0    0    0  501 -0.00000000000E+00  0.00000000000E+00  0.67631588347E+02  0.67631588347E+02  0.00000000000E+00 0.  1.
          1   -1    0    0  501    0  0.00000000000E+00 -0.00000000000E+00 -0.29241494719E+03  0.29241494719E+03  0.00000000000E+00 0. -1.
         25    2    1    2    0    0  0.17187340732E+01 -0.38556944158E+02 -0.20154255408E+02  0.13245085917E+03  0.12508974416E+03 0.  0.
          5    1    3    3  502    0 -0.10447137426E+02  0.27677003470E+02 -0.50337077738E+02  0.58535912026E+02  0.41800000000E+01 0.  1.
         -5    1    3    3    0  502  0.12165871499E+02 -0.66233947628E+02  0.30182822330E+02  0.73914947146E+02  0.41800000000E+01 0.  1.
        -11    1    1    2    0    0  0.10541458285E+02  0.66487846345E+02 -0.15950520786E+03  0.17312904836E+03  0.00000000000E+00 0.  1.
         11    1    1    2    0    0 -0.12260192358E+02 -0.27930902187E+02 -0.45123895583E+02  0.54466628005E+02  0.00000000000E+00 0. -1.
</event>
<event>
 7    1  0.2842702E-009  0.1993830E+03  0.7561462E-02  0.1150261E+00
          2   -1    0    0  501    0  0.00000000000E+00  0.00000000000E+00  0.48212851624E+02  0.48212851624E+02  0.00000000000E+00 0. -1.
         -2   -1    0    0    0  501 -0.00000000000E+00 -0.00000000000E+00 -0.89402306692E+03  0.89402306692E+03  0.00000000000E+00 0.  1.
         25    2    1    2    0    0 -0.77767300141E+02 -0.15791679248E+03 -0.40080486437E+03  0.45527691646E+03  0.12508822901E+03 0.  0.
          5    1    3    3  502    0 -0.84171069018E+02 -0.56596351767E+02 -0.27759185613E+03  0.29557169499E+03  0.41800000000E+01 0.  1.
         -5    1    3    3    0  502  0.64037688770E+01 -0.10132044071E+03 -0.12321300824E+03  0.15970522146E+03  0.41800000000E+01 0.  1.
        -11    1    1    2    0    0  0.80355367539E+02  0.66818810671E+02 -0.27264666937E+03  0.29198963145E+03  0.00000000000E+00 0.  1.
         11    1    1    2    0    0 -0.25880673976E+01  0.91097981808E+02 -0.17235868155E+03  0.19496937064E+03  0.00000000000E+00 0. -1.
</event>
<event>
 7    1  0.2842702E-009  0.1239395E+03  0.7561462E-02  0.1236736E+00
         -2   -1    0    0    0  501 -0.00000000000E+00  0.00000000000E+00  0.24562197459E+03  0.24562197459E+03  0.00000000000E+00 0.  1.
          2   -1    0    0  501    0  0.00000000000E+00 -0.00000000000E+00 -0.13569660490E+03  0.13569660490E+03  0.00000000000E+00 0. -1.
         25    2    1    2    0    0  0.59491716524E+02  0.49895528674E+02 -0.70722969453E+02  0.16333205918E+03  0.12508714974E+03 0.  0.
          5    1    3    3  502    0  0.21580457724E+02  0.80784878268E+02 -0.86032360877E+01  0.84162941866E+02  0.41800000000E+01 0. -1.
         -5    1    3    3    0  502  0.37911258800E+02 -0.30889349594E+02 -0.62119733365E+02  0.79169117309E+02  0.41800000000E+01 0. -1.
        -11    1    1    2    0    0 -0.45409102639E+02  0.15653802748E+02  0.11280181120E+03  0.12260210745E+03  0.00000000000E+00 0.  1.
         11    1    1    2    0    0 -0.14082613884E+02 -0.65549331422E+02  0.67846527941E+02  0.95384412864E+02  0.00000000000E+00 0. -1.
</event>
<event>
 7    1  0.2842702E-009  0.1773582E+03  0.7561462E-02  0.1170385E+00
         -2   -1    0    0    0  501 -0.00000000000E+00  0.00000000000E+00  0.70150440022E+02  0.70150440022E+02  0.00000000000E+00 0.  1.
          2   -1    0    0  501    0  0.00000000000E+00 -0.00000000000E+00 -0.50000643573E+03  0.50000643573E+03  0.00000000000E+00 0. -1.
         25    2    1    2    0    0  0.12866441897E+03  0.79652083997E+02 -0.20351949886E+03  0.28278322854E+03  0.12508869147E+03 0.  0.
          5    1    3    3  502    0  0.13682559681E+03  0.22839959963E+02 -0.14319041950E+03  0.19940881714E+03  0.41800000000E+01 0. -1.
         -5    1    3    3    0  502 -0.81611778398E+01  0.56812124033E+02 -0.60329079358E+02  0.83374411405E+02  0.41800000000E+01 0. -1.
        -11    1    1    2    0    0 -0.12640545685E+02  0.61756670123E+01  0.48141736127E+01  0.14869382160E+02  0.00000000000E+00 0.  1.
         11    1    1    2    0    0 -0.11602387329E+03 -0.85827751009E+02 -0.23115067046E+03  0.27250426505E+03  0.00000000000E+00 0. -1.
</event>
<event>
 7    1  0.2842702E-009  0.1500863E+03  0.7561462E-02  0.1200367E+00
          1   -1    0    0  501    0  0.00000000000E+00  0.00000000000E+00  0.31041018699E+03  0.31041018699E+03  0.00000000000E+00 0. -1.
         -1   -1    0    0    0  501 -0.00000000000E+00 -0.00000000000E+00 -0.74693226136E+02  0.74693226136E+02  0.00000000000E+00 0.  1.
         25    2    1    2    0    0  0.98461216953E+02  0.35087169450E+02  0.14064563970E+03  0.21529836957E+03  0.12508585558E+03 0.  0.
          5    1    3    3  502    0  0.11927039956E+03 -0.27844562954E+01  0.98102973311E+02  0.15451487689E+03  0.41800000000E+01 0. -1.
         -5    1    3    3    0  502 -0.20809182612E+02  0.37871625745E+02  0.42542666392E+02  0.60783492671E+02  0.41800000000E+01 0. -1.
        -11    1    1    2    0    0 -0.66344903147E+02 -0.65443369275E+02  0.46532101350E+02  0.10416197584E+03  0.00000000000E+00 0.  1.
         11    1    1    2    0    0 -0.32116313805E+02  0.30356199825E+02  0.48539219797E+02  0.65643067713E+02  0.00000000000E+00 0. -1.
</event>
<event>
 7    1  0.2842702E-009  0.1415890E+03  0.7561462E-02  0.1211207E+00
          2   -1    0    0  501    0  0.00000000000E+00  0.00000000000E+00  0.48370786619E+03  0.48370786619E+03  0.00000000000E+00 0. -1.
         -2   -1    0    0    0  501 -0.00000000000E+00 -0.00000000000E+00 -0.72623749337E+02  0.72623749337E+02  0.00000000000E+00 0.  1.
         25    2    1    2    0    0  0.11178719537E+03  0.32803603857E+02  0.36598786801E+03  0.40393805054E+03  0.12508547344E+03 0.  0.
          5    1    3    3  502    0  0.12920468233E+03  0.42017326219E+01  0.33078024413E+03  0.35516833586E+03  0.41800000000E+01 0.  1.
         -5    1    3    3    0  502 -0.17417486959E+02  0.28601871235E+02  0.35207623879E+02  0.48769714673E+02  0.41800000000E+01 0.  1.
        -11    1    1    2    0    0 -0.34530090983E+02 -0.24603288537E+02  0.59817824024E+02  0.73319990869E+02  0.00000000000E+00 0. -1.
         11    1    1    2    0    0 -0.77257104385E+02 -0.82003153207E+01 -0.14721575177E+02  0.79073574126E+02  0.00000000000E+00 0.  1.
</event>
<event>
 7    1  0.2842702E-009  0.1679652E+03  0.7561462E-02  0.1179987E+00
          3   -1    0    0  501    0  0.00000000000E+00  0.00000000000E+00  0.98118434193E+02  0.98118434193E+02  0.00000000000E+00 0. -1.
         -3   -1    0    0    0  501 -0.00000000000E+00 -0.00000000000E+00 -0.39288782989E+03  0.39288782989E+03  0.00000000000E+00 0.  1.
         25    2    1    2    0    0 -0.10757301125E+03  0.11239342434E+03 -0.21575071527E+03  0.29394252177E+03  0.12509836283E+03 0.  0.
          5    1    3    3  502    0 -0.56615032700E+01 -0.40902368597E+01  0.14410820553E+02  0.16550734300E+02  0.41800000000E+01 0. -1.
         -5    1    3    3    0  502 -0.10191150798E+03  0.11648366120E+03 -0.23016153582E+03  0.27739178747E+03  0.41800000000E+01 0. -1.
        -11    1    1    2    0    0  0.43194665393E+02  0.27772966214E+00 -0.46124890853E+02  0.63193051900E+02  0.00000000000E+00 0. -1.
         11    1    1    2    0    0  0.64378345852E+02 -0.11267115400E+03 -0.32893789571E+02  0.13387069041E+03  0.00000000000E+00 0.  1.
</event>
<event>
 7    1  0.2842702E-009  0.1209516E+03  0.7561462E-02  0.1241535E+00
         -1   -1    0    0    0  501 -0.00000000000E+00  0.00000000000E+00  0.19923804162E+02  0.19923804162E+02  0.00000000000E+00 0.  1.
          1   -1    0    0  501    0  0.00000000000E+00 -0.00000000000E+00 -0.10470171425E+04  0.10470171425E+04  0.00000000000E+00 0. -1.
         25    2    1    2    0    0 -0.65589819105E+02 -0.53349626599E+02 -0.73644949637E+03  0.75176680072E+03  0.12508898804E+03 0.  0.
          5    1    3    3  502    0 -0.98105105408E+02 -0.27656323251E+02 -0.61425436011E+03  0.62266794943E+03  0.41800000000E+01 0.  1.
         -5    1    3    3    0  502  0.32515286303E+02 -0.25693303349E+02 -0.12219513626E+03  0.12909885129E+03  0.41800000000E+01 0.  1.
        -11    1    1    2    0    0  0.71072910385E+02  0.35267927851E+02 -0.28442203816E+03  0.29528135924E+03  0.00000000000E+00 0. -1.
         11    1    1    2    0    0 -0.54830912807E+01  0.18081698748E+02 -0.62218037909E+01  0.19892786683E+02  0.00000000000E+00 0.  1.
</event>
<event>
 7    1  0.2842702E-009  0.1091979E+03  0.7561462E-02  0.1262062E+00
          1   -1    0    0  501    0  0.00000000000E+00  0.00000000000E+00  0.10359148670E+04  0.10359148670E+04  0.00000000000E+00 0. -1.
         -1   -1    0    0    0  501 -0.00000000000E+00 -0.00000000000E+00 -0.21140626918E+02  0.21140626918E+02  0.00000000000E+00 0.  1.
         25    2    1    2    0    0  0.65291164249E+01 -0.23882154540E+02  0.89660501438E+03  0.90562719790E+03  0.12508830121E+03 0.  0.
          5    1    3    3  502    0  0.64752734864E+02 -0.20585652785E+02  0.42612675096E+03  0.43153002915E+03  0.41800000000E+01 0.  1.
         -5    1    3    3    0  502 -0.58223618439E+02 -0.32965017543E+01  0.47047826342E+03  0.47409716875E+03  0.41800000000E+01 0.  1.
        -11    1    1    2    0    0  0.34734043548E+02 -0.12427952850E+02  0.30088211311E+02  0.47604708308E+02  0.00000000000E+00 0.  1.
         11    1    1    2    0    0 -0.41263159972E+02  0.36310107389E+02  0.88081014409E+02  0.10382358773E+03  0.00000000000E+00 0. -1.
</event>
<event>
 7    1  0.2842702E-009  0.9069321E+02  0.7561462E-02  0.1301182E+00
         -3   -1    0    0    0  501 -0.00000000000E+00  0.00000000000E+00  0.25019059564E+02  0.25019059564E+02  0.00000000000E+00 0.  1.
          3   -1    0    0  501    0  0.00000000000E+00 -0.00000000000E+00 -0.71045710896E+03  0.71045710896E+03  0.00000000000E+00 0. -1.
         25    2    1    2    0    0 -0.29135532759E+02 -0.23021723583E+02 -0.56576519909E+03  0.58061767030E+03  0.12509092504E+03 0.  0.
          5    1    3    3  502    0  0.28341252577E+02 -0.98342576589E+01 -0.44628553167E+03  0.44731218115E+03  0.41800000000E+01 0.  1.
         -5    1    3    3    0  502 -0.57476785336E+02 -0.13187465924E+02 -0.11947966742E+03  0.13330548915E+03  0.41800000000E+01 0.  1.
        -11    1    1    2    0    0  0.50058725875E+02 -0.11730397714E+02 -0.93135197503E+02  0.10638441277E+03  0.00000000000E+00 0.  1.
         11    1    1    2    0    0 -0.20923193116E+02  0.34752121297E+02 -0.26537652795E+02  0.48474085455E+02  0.00000000000E+00 0. -1.
</event>
<event>
 7    1  0.2842702E-009  0.1142755E+03  0.7561462E-02  0.1252851E+00
         -2   -1    0    0    0  501 -0.00000000000E+00  0.00000000000E+00  0.43869452176E+02  0.43869452176E+02  0.00000000000E+00 0.  1.
          2   -1    0    0  501    0  0.00000000000E+00 -0.00000000000E+00 -0.52342511315E+03  0.52342511315E+03  0.00000000000E+00 0. -1.
         25    2    1    2    0    0  0.75738090630E+02 -0.59680055026E+02 -0.33316946420E+03  0.36870700765E+03  0.12507996752E+03 0.  0.
          5    1    3    3  502    0  0.59398605138E+02 -0.65617862926E+02 -0.33861448457E+03  0.35001591363E+03  0.41800000000E+01 0.  1.
         -5    1    3    3    0  502  0.16339485491E+02  0.59378079003E+01  0.54450203791E+01  0.18691094021E+02  0.41800000000E+01 0.  1.
        -11    1    1    2    0    0 -0.34240478514E+02  0.71191793120E+02 -0.13076938302E+03  0.15277864155E+03  0.00000000000E+00 0. -1.
         11    1    1    2    0    0 -0.41497612116E+02 -0.11511738094E+02 -0.15616813753E+02  0.45808916131E+02  0.00000000000E+00 0.  1.
</event>
<event>
 7    1  0.2842702E-009  0.2500212E+03  0.7561462E-02  0.1113291E+00
         -1   -1    0    0    0  501 -0.00000000000E+00  0.00000000000E+00  0.56823586256E+02  0.56823586256E+02  0.00000000000E+00 0.  1.
          1   -1    0    0  501    0  0.00000000000E+00 -0.00000000000E+00 -0.11858984360E+04  0.11858984360E+04  0.00000000000E+00 0. -1.
         25    2    1    2    0    0  0.22495373369E+03 -0.34000901365E+02 -0.71653653166E+03  0.76212336568E+03  0.12508868738E+03 0.  0.
          5    1    3    3  502    0 -0.11501311930E+02  0.13589843004E+02 -0.56403871816E+02  0.59294461502E+02  0.41800000000E+01 0. -1.
         -5    1    3    3    0  502  0.23645504562E+03 -0.47590744369E+02 -0.66013265985E+03  0.70282890418E+03  0.41800000000E+01 0. -1.
        -11    1    1    2    0    0 -0.11993068504E+03  0.57345527245E+02 -0.17442351878E+03  0.21930673180E+03  0.00000000000E+00 0.  1.
         11    1    1    2    0    0 -0.10502304865E+03 -0.23344625880E+02 -0.23811479927E+03  0.26129192474E+03  0.00000000000E+00 0. -1.
</event>
<event>
 7    1  0.2842702E-009  0.3390108E+03  0.7561462E-02  0.1067218E+00
         -1   -1    0    0    0  501 -0.00000000000E+00  0.00000000000E+00  0.80133790281E+02  0.80133790281E+02  0.00000000000E+00 0.  1.
          1   -1    0    0  501    0  0.00000000000E+00 -0.00000000000E+00 -0.18182196404E+04  0.18182196404E+04  0.00000000000E+00 0. -1.
         25    2    1    2    0    0 -0.24029254080E+03 -0.22044911012E+03 -0.46821689231E+03  0.58413432972E+03  0.12509013387E+03 0.  0.
          5    1    3    3  502    0 -0.11938737976E+03 -0.18260575988E+03 -0.25057723073E+03  0.33227192320E+03  0.41800000000E+01 0.  1.
         -5    1    3    3    0  502 -0.12090516104E+03 -0.37843350242E+02 -0.21763966158E+03  0.25186240652E+03  0.41800000000E+01 0.  1.
        -11    1    1    2    0    0  0.13381300210E+02  0.42888176602E+02 -0.10427329645E+03  0.11354019218E+03  0.00000000000E+00 0.  1.
         11    1    1    2    0    0  0.22691124059E+03  0.17756093352E+03 -0.11655956614E+04  0.12006789088E+04  0.00000000000E+00 0. -1.
</event>
<event>
 7    1  0.2842702E-009  0.1151384E+03  0.7561462E-02  0.1251340E+00
         -1   -1    0    0    0  501 -0.00000000000E+00  0.00000000000E+00  0.38318484884E+03  0.38318484884E+03  0.00000000000E+00 0.  1.
          1   -1    0    0  501    0  0.00000000000E+00 -0.00000000000E+00 -0.43372078455E+02  0.43372078455E+02  0.00000000000E+00 0. -1.
         25    2    1    2    0    0 -0.61752885683E+02 -0.81644564922E+01  0.23738339594E+03  0.27545703754E+03  0.12508247527E+03 0.  0.
          5    1    3    3  502    0 -0.35342481112E+02 -0.56398318082E+02  0.19444431310E+03  0.20556245900E+03  0.41800000000E+01 0.  1.
         -5    1    3    3    0  502 -0.26410404571E+02  0.48233861590E+02  0.42939082840E+02  0.69894578535E+02  0.41800000000E+01 0.  1.
        -11    1    1    2    0    0 -0.12590786876E+02 -0.24259410511E+02  0.41349702537E+02  0.49566569503E+02  0.00000000000E+00 0. -1.
         11    1    1    2    0    0  0.74343672559E+02  0.32423867003E+02  0.61079671901E+02  0.10153332025E+03  0.00000000000E+00 0.  1.
</event>
<event>
 7    1  0.2842702E-009  0.1031642E+03  0.7561462E-02  0.1273779E+00
          2   -1    0    0  501    0  0.00000000000E+00  0.00000000000E+00  0.33474700928E+03  0.33474700928E+03  0.00000000000E+00 0.  1.
         -2   -1    0    0    0  501 -0.00000000000E+00 -0.00000000000E+00 -0.71185768237E+02  0.71185768237E+02  0.00000000000E+00 0. -1.
         25    2    1    2    0    0 -0.69556691074E+02 -0.46050231403E+02  0.23493141236E+03  0.27892175534E+03  0.12508325229E+03 0.  0.
          5    1    3    3  502    0 -0.86068872662E+02 -0.52404475842E+02  0.23976279506E+03  0.26011103441E+03  0.41800000000E+01 0.  1.
         -5    1    3    3    0  502  0.16512181587E+02  0.63542444392E+01 -0.48313826967E+01  0.18810720931E+02  0.41800000000E+01 0.  1.
        -11    1    1    2    0    0  0.46437635037E+02  0.15444953456E+02 -0.29666309508E+02  0.57228406014E+02  0.00000000000E+00 0. -1.
         11    1    1    2    0    0  0.23119056037E+02  0.30605277947E+02  0.58296138187E+02  0.69782616157E+02  0.00000000000E+00 0.  1.
</event>
<event>
 6    1  0.2842702E-009  0.1972811E+03  0.7561462E-02  0.1152053E+00
          1   -1    0    0  501    0  0.00000000000E+00  0.00000000000E+00  0.22776676484E+03  0.22776676484E+03  0.00000000000E+00 0. -1.
         -1   -1    0    0    0  501 -0.00000000000E+00 -0.00000000000E+00 -0.20910692194E+03  0.20910692194E+03  0.00000000000E+00 0.  1.
          5    1    1    2  502    0 -0.15702776715E+03 -0.90718223574E+02 -0.53092147771E+00  0.18139809818E+03  0.41800000000E+01 0. -1.
         -5    1    1    2    0  502 -0.99228911395E+00 -0.52770769775E+01  0.46782881711E+02  0.47275179537E+02  0.41800000000E+01 0. -1.
        -11    1    1    2    0    0  0.11302515157E+03  0.11150185514E+03 -0.21759235343E+02  0.16025234136E+03  0.00000000000E+00 0. -1.
         11    1    1    2    0    0  0.44994904697E+02 -0.15506554592E+02 -0.58328819915E+01  0.47948067702E+02  0.00000000000E+00 0.  1.
</event>
<event>
 7    1  0.2842702E-009  0.1394870E+03  0.7561462E-02  0.1214021E+00
          2   -1    0    0  501    0  0.00000000000E+00  0.00000000000E+00  0.17242236559E+03  0.17242236559E+03  0.00000000000E+00 0.  1.
         -2   -1    0    0    0  501 -0.00000000000E+00 -0.00000000000E+00 -0.12539575065E+03  0.12539575065E+03  0.00000000000E+00 0. -1.
         25    2    1    2    0    0  0.10695387898E+02  0.98089483094E+02  0.16622102491E+02  0.16018802466E+03  0.12509185000E+03 0.  0.
          5    1    3    3  502    0  0.31797123346E+02 -0.11595215583E+02 -0.23517129735E+02  0.41425039149E+02  0.41800000000E+01 0.  1.
         -5    1    3    3    0  502 -0.21101735447E+02  0.10968469868E+03  0.40139232226E+02  0.11876298551E+03  0.41800000000E+01 0.  1.
        -11    1    1    2    0    0  0.36176476731E+02 -0.18257850899E+02  0.11349993769E+01  0.40538559566E+02  0.00000000000E+00 0.  1.
         11    1    1    2    0    0 -0.46871864629E+02 -0.79831632196E+02  0.29269513072E+02  0.97091532011E+02  0.00000000000E+00 0. -1.
</event>
<event>
 7    1  0.2842702E-009  0.1074079E+03  0.7561462E-02  0.1265447E+00
         -2   -1    0    0    0  501 -0.00000000000E+00  0.00000000000E+00  0.16626190214E+03  0.16626190214E+03  0.00000000000E+00 0.  1.
          2   -1    0    0  501    0  0.00000000000E+00 -0.00000000000E+00 -0.94483393752E+02  0.94483393752E+02  0.00000000000E+00 0. -1.
         25    2    1    2    0    0 -0.48415805606E+02  0.43548111105E+02 -0.90677183694E+01  0.14131717697E+03  0.12509113788E+03 0.  0.
          5    1    3    3  502    0 -0.69276484781E+02  0.75458318949E+02 -0.36730912811E+01  0.10258729571E+03  0.41800000000E+01 0. -1.
         -5    1    3    3    0  502  0.20860679175E+02 -0.31910207844E+02 -0.53946270883E+01  0.38729881251E+02  0.41800000000E+01 0. -1.
        -11    1    1    2    0    0  0.17647040291E+02 -0.39041830696E+02  0.76968988785E+02  0.88090338912E+02  0.00000000000E+00 0.  1.
         11    1    1    2    0    0  0.30768765315E+02 -0.45062804087E+01  0.38772379769E+01  0.31337780018E+02  0.00000000000E+00 0. -1.
</event>
<event>
 7    1  0.2842702E-009  0.7798223E+02  0.7561462E-02  0.1334877E+00
         -2   -1    0    0    0  501 -0.00000000000E+00  0.00000000000E+00  0.81228374265E+02  0.81228374265E+02  0.00000000000E+00 0.  1.
          2   -1    0    0  501    0  0.00000000000E+00 -0.00000000000E+00 -0.16801780585E+03  0.16801780585E+03  0.00000000000E+00 0. -1.
         25    2    1    2    0    0 -0.10029660881E+02 -0.22254995289E+02 -0.87808003398E+02  0.15477188934E+03  0.12509281897E+03 0.  0.
          5    1    3    3  502    0 -0.36054559016E+02  0.97492382468E+01  0.17602413653E+02  0.41500557089E+02  0.41800000000E+01 0. -1.
         -5    1    3    3    0  502  0.26024898136E+02 -0.32004233535E+02 -0.10541041705E+03  0.11327133225E+03  0.41800000000E+01 0. -1.
        -11    1    1    2    0    0  0.41298254194E+02  0.61676227257E+01  0.27893678230E+02  0.50215960159E+02  0.00000000000E+00 0.  1.
         11    1    1    2    0    0 -0.31268593313E+02  0.16087372563E+02 -0.26875106412E+02  0.44258330610E+02  0.00000000000E+00 0. -1.
</event>
<event>
 7    1  0.2842702E-009  0.1556565E+03  0.7561462E-02  0.1193690E+00
          1   -1    0    0  501    0  0.00000000000E+00  0.00000000000E+00  0.17654671672E+03  0.17654671672E+03  0.00000000000E+00 0. -1.
         -1   -1    0    0    0  501 -0.00000000000E+00 -0.00000000000E+00 -0.19355196533E+03  0.19355196533E+03  0.00000000000E+00 0.  1.
         25    2    1    2    0    0 -0.10572129173E+03 -0.10259869376E+03 -0.14643537941E+01  0.19326947944E+03  0.12508982318E+03 0.  0.
          5    1    3    3  502    0 -0.15824732753E+02 -0.63102381538E+02 -0.51413932893E+02  0.83025283005E+02  0.41800000000E+01 0. -1.
         -5    1    3    3    0  502 -0.89896558980E+02 -0.39496312222E+02  0.49949579099E+02  0.11024419644E+03  0.41800000000E+01 0. -1.
        -11    1    1    2    0    0  0.42319480786E+02  0.32758726415E+02 -0.53016360023E+02  0.75331315138E+02  0.00000000000E+00 0.  1.
         11    1    1    2    0    0  0.63401810947E+02  0.69839967345E+02  0.37475465205E+02  0.10149788748E+03  0.00000000000E+00 0. -1.
</event>
<event>
 7    1  0.2842702E-009  0.1038312E+03  0.7561462E-02  0.1272440E+00
         -1   -1    0    0    0  501 -0.00000000000E+00  0.00000000000E+00  0.95631896551E+02  0.95631896551E+02  0.00000000000E+00 0.  1.
          1   -1    0    0  501    0  0.00000000000E+00 -0.00000000000E+00 -0.22214334059E+03  0.22214334059E+03  0.00000000000E+00 0. -1.
         25    2    1    2    0    0  0.26758924953E+02  0.67081666620E+02 -0.13655260509E+03  0.19877215379E+03  0.12509102728E+03 0.  0.
          5    1    3    3  502    0  0.65092643678E+02  0.41114315663E+02 -0.13092753056E+03  0.15194383789E+03  0.41800000000E+01 0.  1.
         -5    1    3    3    0  502 -0.38333718726E+02  0.25967350957E+02 -0.56250745261E+01  0.46828315905E+02  0.41800000000E+01 0.  1.
        -11    1    1    2    0    0 -0.22049990729E+02 -0.60611053282E+01 -0.35839129621E+02  0.42513319101E+02  0.00000000000E+00 0. -1.
         11    1    1    2    0    0 -0.47089342235E+01 -0.61020561292E+02  0.45880290673E+02  0.76489764244E+02  0.00000000000E+00 0.  1.
</event>
<event>
 7    1  0.2842702E-009  0.5942248E+02  0.7561462E-02  0.1400271E+00
         -1   -1    0    0    0  501 -0.00000000000E+00  0.00000000000E+00  0.16341921631E+03  0.16341921631E+03  0.00000000000E+00 0.  1.
          1   -1    0    0  501    0  0.00000000000E+00 -0.00000000000E+00 -0.75598995114E+02  0.75598995114E+02  0.00000000000E+00 0. -1.
         25    2    1    2    0    0 -0.25828315569E+02  0.44600803693E+01  0.56428039646E+02  0.13969580990E+03  0.12507518316E+03 0.  0.
          5    1    3    3  502    0  0.15778770766E+02  0.27465642316E+02  0.80233682235E+02  0.86361144503E+02  0.41800000000E+01 0. -1.
         -5    1    3    3    0  502 -0.41607086335E+02 -0.23005561947E+02 -0.23805642589E+02  0.53334665396E+02  0.41800000000E+01 0. -1.
        -11    1    1    2    0    0  0.22670612596E+02  0.97009662931E+01  0.61303961459E+02  0.66077538643E+02  0.00000000000E+00 0.  1.
         11    1    1    2    0    0  0.31577029726E+01 -0.14161046662E+02 -0.29911779911E+02  0.33244862882E+02  0.00000000000E+00 0. -1.
</event>
<event>
 7    1  0.2842702E-009  0.2173343E+03  0.7561462E-02  0.1135886E+00
          1   -1    0    0  501    0  0.00000000000E+00  0.00000000000E+00  0.43377481366E+03  0.43377481366E+03  0.00000000000E+00 0. -1.
         -1   -1    0    0    0  501 -0.00000000000E+00 -0.00000000000E+00 -0.13134433497E+03  0.13134433497E+03  0.00000000000E+00 0.  1.
         25    2    1    2    0    0  0.17639952333E+03  0.94848673693E+02  0.23879342344E+03  0.33583151550E+03  0.12508974774E+03 0.  0.
          5    1    3    3  502    0 -0.17365252199E+02  0.19460149205E+02  0.15182275466E+02  0.30466756955E+02  0.41800000000E+01 0. -1.
         -5    1    3    3    0  502  0.19376477553E+03  0.75388524487E+02  0.22361114798E+03  0.30536475854E+03  0.41800000000E+01 0. -1.
        -11    1    1    2    0    0 -0.64215253215E+02 -0.33155410527E+02  0.70651446456E+02  0.10106684362E+03  0.00000000000E+00 0. -1.
         11    1    1    2    0    0 -0.11218427011E+03 -0.61693263166E+02 -0.70143912040E+01  0.12822078952E+03  0.00000000000E+00 0.  1.
</event>
<event>
 7    1  0.2842702E-009  0.1490248E+03  0.7561462E-02  0.1201676E+00
          1   -1    0    0  501    0  0.00000000000E+00  0.00000000000E+00  0.19221284017E+03  0.19221284017E+03  0.00000000000E+00 0. -1.
         -1   -1    0    0    0  501 -0.00000000000E+00 -0.00000000000E+00 -0.15632692441E+03  0.15632692441E+03  0.00000000000E+00 0.  1.
         25    2    1    2    0    0 -0.11938446108E+03  0.38773804895E+02 -0.34851618847E+02  0.18060752763E+03  0.12509350985E+03 0.  0.
          5    1    3    3  502    0 -0.11889829596E+03  0.12358657869E+02 -0.68331867827E+02  0.13775433847E+03  0.41800000000E+01 0. -1.
         -5    1    3    3    0  502 -0.48616511352E+00  0.26415147027E+02  0.33480248981E+02  0.42853189155E+02  0.41800000000E+01 0. -1.
        -11    1    1    2    0    0  0.20412171113E+01  0.20239709422E+02  0.45232691195E+01  0.20839202679E+02  0.00000000000E+00 0. -1.
         11    1    1    2    0    0  0.11734324396E+03 -0.59013514317E+02  0.66214265488E+02  0.14709303427E+03  0.00000000000E+00 0.  1.
</event>
<event>
 7    1  0.2842702E-009  0.9239608E+02  0.7561462E-02  0.1297151E+00
          2   -1    0    0  501    0  0.00000000000E+00  0.00000000000E+00  0.47397556541E+02  0.47397556541E+02  0.00000000000E+00 0. -1.
         -2   -1    0    0    0  501 -0.00000000000E+00 -0.00000000000E+00 -0.25992061285E+03  0.25992061285E+03  0.00000000000E+00 0.  1.
         25    2    1    2    0    0  0.12817216775E+02 -0.20885047980E+02 -0.12111914863E+03  0.17583106984E+03  0.12508497384E+03 0.  0.
          5    1    3    3  502    0 -0.20440848742E+02  0.35321669461E+02 -0.98312145121E+02  0.10652792549E+03  0.41800000000E+01 0. -1.
         -5    1    3    3    0  502  0.33258065517E+02 -0.56206717440E+02 -0.22807003513E+02  0.69303144349E+02  0.41800000000E+01 0. -1.
        -11    1    1    2    0    0 -0.35136812352E+02  0.36825075845E+02 -0.19459130814E+02  0.54491646748E+02  0.00000000000E+00 0. -1.
         11    1    1    2    0    0  0.22319595577E+02 -0.15940027866E+02 -0.71944776864E+02  0.76995452808E+02  0.00000000000E+00 0.  1.
</event>
<event>
 7    1  0.2842702E-009  0.9855802E+02  0.7561462E-02  0.1283358E+00
         -2   -1    0    0    0  501 -0.00000000000E+00  0.00000000000E+00  0.54400824534E+02  0.54400824534E+02  0.00000000000E+00 0.  1.
          2   -1    0    0  501    0  0.00000000000E+00 -0.00000000000E+00 -0.25449175073E+03  0.25449175073E+03  0.00000000000E+00 0. -1.
         25    2    1    2    0    0  0.20921026571E+02 -0.13606232748E+02 -0.63934942024E+02  0.14268530740E+03  0.12509436923E+03 0.  0.
          5    1    3    3  502    0 -0.13513968750E+02 -0.54661583445E+02 -0.68469249709E+02  0.88746980860E+02  0.41800000000E+01 0.  1.
         -5    1    3    3    0  502  0.34434995321E+02  0.41055350697E+02  0.45343076849E+01  0.53938326539E+02  0.41800000000E+01 0.  1.
        -11    1    1    2    0    0 -0.51912872100E+02  0.19321506389E+02 -0.11667909099E+03  0.12915988995E+03  0.00000000000E+00 0. -1.
         11    1    1    2    0    0  0.30991845529E+02 -0.57152736408E+01 -0.19476893184E+02  0.37047377912E+02  0.00000000000E+00 0.  1.
</event>
<event>
 7    1  0.2842702E-009  0.1614083E+03  0.7561462E-02  0.1187116E+00
          2   -1    0    0  501    0  0.00000000000E+00  0.00000000000E+00  0.20132664600E+03  0.20132664600E+03  0.00000000000E+00 0. -1.
         -2   -1    0    0    0  501 -0.00000000000E+00 -0.00000000000E+00 -0.19230109193E+03  0.19230109193E+03  0.00000000000E+00 0.  1.
         25    2    1    2    0    0 -0.13196431799E+03  0.25621334725E+02 -0.88808139025E+02  0.20397416176E+03  0.12509012387E+03 0.  0.
          5    1    3    3  502    0  0.14968496564E+02 -0.23332576414E+02 -0.20082669953E+02  0.34485519338E+02  0.41800000000E+01 0.  1.
         -5    1    3    3    0  502 -0.14693281456E+03  0.48953911139E+02 -0.68725469072E+02  0.16948864242E+03  0.41800000000E+01 0.  1.
        -11    1    1    2    0    0  0.13346867619E+02 -0.16013676541E+02  0.61937743463E+02  0.65351823057E+02  0.00000000000E+00 0. -1.
         11    1    1    2    0    0  0.11861745037E+03 -0.96076581842E+01  0.35895949631E+02  0.12430175312E+03  0.00000000000E+00 0.  1.
</event>
<event>
 7    1  0.2842702E-009  0.1237697E+03  0.7561462E-02  0.1237005E+00
          2   -1    0    0  501    0  0.00000000000E+00  0.00000000000E+00  0.20366774279E+03  0.20366774279E+03  0.00000000000E+00 0. -1.
         -2   -1    0    0    0  501 -0.00000000000E+00 -0.00000000000E+00 -0.12955032110E+03  0.12955032110E+03  0.00000000000E+00 0.  1.
         25    2    1    2    0    0 -0.10281106891E+02  0.95623759316E+02  0.11621315088E+03  0.19596648957E+03  0.12509102323E+03 0.  0.
          5    1    3    3  502    0 -0.92172390963E+01  0.12042234976E+03  0.12024092130E+03  0.17047536882E+03  0.41800000000E+01 0. -1.
         -5    1    3    3    0  502 -0.10638677942E+01 -0.24798590446E+02 -0.40277704187E+01  0.25491120755E+02  0.41800000000E+01 0. -1.
        -11    1    1    2    0    0  0.21372046595E+02 -0.76346175399E+02  0.10664621737E+02  0.79995231298E+02  0.00000000000E+00 0. -1.
         11    1    1    2    0    0 -0.11090939704E+02 -0.19277583918E+02 -0.52760350931E+02  0.57256343016E+02  0.00000000000E+00 0.  1.
</event>
<event>
 7    1  0.2842702E-009  0.1175641E+03  0.7561462E-02  0.1247170E+00
          1   -1    0    0  501    0  0.00000000000E+00  0.00000000000E+00  0.15491395806E+03  0.15491395806E+03  0.00000000000E+00 0. -1.
         -1   -1    0    0    0  501 -0.00000000000E+00 -0.00000000000E+00 -0.12774515872E+03  0.12774515872E+03  0.00000000000E+00 0.  1.
         25    2    1    2    0    0  0.10418407618E+02 -0.83402865527E+02  0.51898941742E+02  0.15939036276E+03  0.12508879403E+03 0.  0.
          5    1    3    3  502    0 -0.35965524875E+02 -0.84786538708E+02  0.35752856376E+01  0.92263379480E+02  0.41800000000E+01 0.  1.
         -5    1    3    3    0  502  0.46383932493E+02  0.13836731812E+01  0.48323656105E+02  0.67126983280E+02  0.41800000000E+01 0.  1.
        -11    1    1    2    0    0 -0.23768789938E+02  0.18609285029E+02 -0.44902987051E+02  0.54106738125E+02  0.00000000000E+00 0.  1.
         11    1    1    2    0    0  0.13350382320E+02  0.64793580499E+02  0.20172844640E+02  0.69162015896E+02  0.00000000000E+00 0. -1.
</event>
<event>
 7    1  0.2842702E-009  0.1203125E+03  0.7561462E-02  0.1242582E+00
          2   -1    0    0  501    0  0.00000000000E+00  0.00000000000E+00  0.18864275294E+03  0.18864275294E+03  0.00000000000E+00 0.  1.
         -2   -1    0    0    0  501 -0.00000000000E+00 -0.00000000000E+00 -0.13324537280E+03  0.13324537280E+03  0.00000000000E+00 0. -1.
         25    2    1    2    0    0 -0.97124759383E+02  0.21189950668E+02  0.86675027485E+02  0.18178311169E+03  0.12510118470E+03 0.  0.
          5    1    3    3  502    0 -0.85317220568E+02 -0.24623619348E+02  0.71886748956E+01  0.89188004810E+02  0.41800000000E+01 0. -1.
         -5    1    3    3    0  502 -0.11807538815E+02  0.45813570015E+02  0.79486352590E+02  0.92595106882E+02  0.41800000000E+01 0. -1.
        -11    1    1    2    0    0  0.22323989914E+02 -0.19136208132E+02  0.31017653954E+02  0.42739324330E+02  0.00000000000E+00 0.  1.
         11    1    1    2    0    0  0.74800769469E+02 -0.20537425352E+01 -0.62295301299E+02  0.97365689724E+02  0.00000000000E+00 0. -1.
</event>
<event>
 7    1  0.2842702E-009  0.1109739E+03  0.7561462E-02  0.1258777E+00
          2   -1    0    0  501    0  0.00000000000E+00  0.00000000000E+00  0.47231836857E+02  0.47231836857E+02  0.00000000000E+00 0. -1.
         -2   -1    0    0    0  501 -0.00000000000E+00 -0.00000000000E+00 -0.26746306338E+03  0.26746306338E+03  0.00000000000E+00 0.  1.
         25    2    1    2    0    0 -0.28103313570E+02 -0.13917544315E+02 -0.13831409005E+03  0.18910793151E+03  0.12509007946E+03 0.  0.
          5    1    3    3  502    0  0.23794022752E+02 -0.56391248504E+02 -0.58409746600E+02  0.84707138568E+02  0.41800000000E+01 0.  1.
         -5    1    3    3    0  502 -0.51897336322E+02  0.42473704189E+02 -0.79904343447E+02  0.10440079294E+03  0.41800000000E+01 0.  1.
        -11    1    1    2    0    0 -0.12215465459E+02  0.42346681367E+02 -0.50824724583E+02  0.67272666426E+02  0.00000000000E+00 0. -1.
         11    1    1    2    0    0  0.40318779030E+02 -0.28429137051E+02 -0.31092411895E+02  0.58314302306E+02  0.00000000000E+00 0.  1.
</event>
<event>
 7    1  0.2842702E-009  0.1226798E+03  0.7561462E-02  0.1238741E+00
         -3   -1    0    0    0  501 -0.00000000000E+00  0.00000000000E+00  0.10601453952E+04  0.10601453952E+04  0.00000000000E+00 0.  1.
          3   -1    0    0  501    0  0.00000000000E+00 -0.00000000000E+00 -0.14642485650E+02  0.14642485650E+02  0.00000000000E+00 0. -1.
         25    2    1    2    0    0 -0.50842789034E+02 -0.28974527298E+02  0.50540647999E+03  0.52393492808E+03  0.12509031301E+03 0.  0.
          5    1    3    3  502    0  0.14441904509E+02 -0.62262302841E+02  0.21035999335E+03  0.21989534366E+03  0.41800000000E+01 0.  1.
         -5    1    3    3    0  502 -0.65284693543E+02  0.33287775542E+02  0.29504648664E+03  0.30403958442E+03  0.41800000000E+01 0.  1.
        -11    1    1    2    0    0  0.56761558995E+02  0.56300458907E+02  0.42040868222E+03  0.42794284237E+03  0.00000000000E+00 0.  1.
         11    1    1    2    0    0 -0.59187699610E+01 -0.27325931609E+02  0.11968774731E+03  0.12291011038E+03  0.00000000000E+00 0. -1.
</event>
<event>
 7    1  0.2842702E-009  0.1094951E+03  0.7561462E-02  0.1261508E+00
         -1   -1    0    0    0  501 -0.00000000000E+00  0.00000000000E+00  0.39733989611E+02  0.39733989611E+02  0.00000000000E+00 0.  1.
          1   -1    0    0  501    0  0.00000000000E+00 -0.00000000000E+00 -0.38980110860E+03  0.38980110860E+03  0.00000000000E+00 0. -1.
         25    2    1    2    0    0  0.33335517551E+02 -0.48703283346E+02 -0.23370253533E+03  0.27156100099E+03  0.12508091661E+03 0.  0.
          5    1    3    3  502    0  0.68543585426E+02 -0.33594536325E+02 -0.21603823140E+03  0.22916545507E+03  0.41800000000E+01 0.  1.
         -5    1    3    3    0  502 -0.35208067876E+02 -0.15108747021E+02 -0.17664303936E+02  0.42395545917E+02  0.41800000000E+01 0.  1.
        -11    1    1    2    0    0 -0.61789041011E+02  0.42170942904E+02 -0.66004680444E+02  0.99764181222E+02  0.00000000000E+00 0.  1.
         11    1    1    2    0    0  0.28453523460E+02  0.65323404424E+01 -0.50359903214E+02  0.58209915999E+02  0.00000000000E+00 0. -1.
</event>
<event>
 7    1  0.2842702E-009  0.6496704E+02  0.7561462E-02  0.1378096E+00
          4   -1    0    0  501    0  0.00000000000E+00  0.00000000000E+00  0.55374840186E+02  0.55374840186E+02  0.00000000000E+00 0. -1.
         -4   -1    0    0    0  501 -0.00000000000E+00 -0.00000000000E+00 -0.20831279424E+03  0.20831279424E+03  0.00000000000E+00 0.  1.
         25    2    1    2    0    0 -0.20819649446E+02  0.29077955051E+02 -0.92811306395E+02  0.15981543684E+03  0.12509216596E+03 0.  0.
          5    1    3    3  502    0 -0.27913283573E+02  0.35772993344E+01  0.25683539133E+02  0.38328384426E+02  0.41800000000E+01 0.  1.
         -5    1    3    3    0  502  0.70936341275E+01  0.25500655717E+02 -0.11849484553E+03  0.12148705241E+03  0.41800000000E+01 0.  1.
        -11    1    1    2    0    0 -0.12828031976E+02  0.14675289952E+02  0.33251437532E+01  0.19773191966E+02  0.00000000000E+00 0. -1.
         11    1    1    2    0    0  0.33647681421E+02 -0.43753245004E+02 -0.63451791415E+02  0.84099005625E+02  0.00000000000E+00 0.  1.
</event>
<event>
 7    1  0.2842702E-009  0.1315705E+03  0.7561462E-02  0.1225144E+00
          2   -1    0    0  501    0  0.00000000000E+00  0.00000000000E+00  0.22674353689E+03  0.22674353689E+03  0.00000000000E+00 0. -1.
         -2   -1    0    0    0  501 -0.00000000000E+00 -0.00000000000E+00 -0.10832317379E+03  0.10832317379E+03  0.00000000000E+00 0.  1.
         25    2    1    2    0    0  0.59053777166E+02  0.91873668792E+02  0.38160208153E+02  0.17038776974E+03  0.12509065104E+03 0.  0.
          5    1    3    3  502    0  0.76175265262E+00 -0.22827728176E+02  0.34522368515E+02  0.41604708492E+02  0.41800000000E+01 0. -1.
         -5    1    3    3    0  502  0.58292024513E+02  0.11470139697E+03  0.36378396377E+01  0.12878306125E+03  0.41800000000E+01 0. -1.
        -11    1    1    2    0    0 -0.53952394929E+02 -0.68137596313E+02  0.10064517767E+03  0.13297760991E+03  0.00000000000E+00 0. -1.
         11    1    1    2    0    0 -0.51013822365E+01 -0.23736072479E+02 -0.20385022720E+02  0.31701331025E+02  0.00000000000E+00 0.  1.
</event>
<event>
 7    1  0.2842702E-009  0.2254539E+03  0.7561462E-02  0.1129881E+00
         -1   -1    0    0    0  501 -0.00000000000E+00  0.00000000000E+00  0.21654012074E+03  0.21654012074E+03  0.00000000000E+00 0.  1.
          1   -1    0    0  501    0  0.00000000000E+00 -0.00000000000E+00 -0.25344508684E+03  0.25344508684E+03  0.00000000000E+00 0. -1.
         25    2    1    2    0    0  0.13663548838E+03 -0.14748117685E+03 -0.71656954691E+02  0.24739092489E+03  0.12509035276E+03 0.  0.
          5    1    3    3  502    0 -0.14472583771E+02 -0.49397148571E+02 -0.37899078840E+02  0.64057369169E+02  0.41800000000E+01 0.  1.
         -5    1    3    3    0  502  0.15110807215E+03 -0.98084028276E+02 -0.33757875851E+02  0.18333355573E+03  0.41800000000E+01 0.  1.
        -11    1    1    2    0    0  0.64546211343E+01  0.38927295163E+02  0.13643753708E+02  0.41751029424E+02  0.00000000000E+00 0. -1.
         11    1    1    2    0    0 -0.14309010952E+03  0.10855388168E+03  0.21108234880E+02  0.18084325326E+03  0.00000000000E+00 0.  1.
</event>
<event>
 7    1  0.2842702E-009  0.9311814E+02  0.7561462E-02  0.1295472E+00
         -1   -1    0    0    0  501 -0.00000000000E+00  0.00000000000E+00  0.71442166157E+03  0.71442166157E+03  0.00000000000E+00 0.  1.
          1   -1    0    0  501    0  0.00000000000E+00 -0.00000000000E+00 -0.18637141904E+02  0.18637141904E+02  0.00000000000E+00 0. -1.
         25    2    1    2    0    0  0.57543405068E+01  0.33109036488E+02  0.44883617254E+03  0.46715012049E+03  0.12508399002E+03 0.  0.
          5    1    3    3  502    0  0.20558271083E+02  0.56143645728E+02  0.95631397432E+02  0.11286092344E+03  0.41800000000E+01 0. -1.
         -5    1    3    3    0  502 -0.14803930576E+02 -0.23034609240E+02  0.35320477511E+03  0.35428919705E+03  0.41800000000E+01 0. -1.
        -11    1    1    2    0    0  0.94906536842E+00  0.32569136040E+02  0.83174332243E+02  0.89328712582E+02  0.00000000000E+00 0.  1.
         11    1    1    2    0    0 -0.67034058752E+01 -0.65678172528E+02  0.16377401488E+03  0.17657997040E+03  0.00000000000E+00 0. -1.
</event>
<event>
 7    1  0.2842702E-009  0.1030719E+03  0.7561462E-02  0.1273966E+00
         -2   -1    0    0    0  501 -0.00000000000E+00  0.00000000000E+00  0.15523298533E+03  0.15523298533E+03  0.00000000000E+00 0.  1.
          2   -1    0    0  501    0  0.00000000000E+00 -0.00000000000E+00 -0.11167568549E+03  0.11167568549E+03  0.00000000000E+00 0. -1.
         25    2    1    2    0    0 -0.21420953296E+01  0.60327618013E+02 -0.21973341853E+02  0.14061007488E+03  0.12507739739E+03 0.  0.
          5    1    3    3  502    0  0.32906653940E+02 -0.17914180818E+02 -0.37734670290E+02  0.53339886481E+02  0.41800000000E+01 0.  1.
         -5    1    3    3    0  502 -0.35048749270E+02  0.78241798832E+02  0.15761328437E+02  0.87270188403E+02  0.41800000000E+01 0.  1.
        -11    1    1    2    0    0 -0.25015556874E+02 -0.44839779127E+02  0.77379199090E+02  0.92865086711E+02  0.00000000000E+00 0.  1.
         11    1    1    2    0    0  0.27157652204E+02 -0.15487838886E+02 -0.11848557393E+02  0.33433509222E+02  0.00000000000E+00 0. -1.
</event>
<event>
 7    1  0.2842702E-009  0.1053745E+03  0.7561462E-02  0.1269383E+00
          2   -1    0    0  501    0  0.00000000000E+00  0.00000000000E+00  0.38575207861E+03  0.38575207861E+03  0.00000000000E+00 0.  1.
         -2   -1    0    0    0  501 -0.00000000000E+00 -0.00000000000E+00 -0.45411384064E+02  0.45411384064E+02  0.00000000000E+00 0. -1.
         25    2    1    2    0    0  0.29210236816E+02 -0.55600823870E+02  0.11707645775E+03  0.18247990416E+03  0.12508928377E+03 0.  0.
          5    1    3    3  502    0 -0.85363137772E-01  0.22331222893E+02 -0.14331130351E+02  0.26861580369E+02  0.41800000000E+01 0.  1.
         -5    1    3    3    0  502  0.29295599954E+02 -0.77932046763E+02  0.13140758810E+03  0.15561832379E+03  0.41800000000E+01 0.  1.
        -11    1    1    2    0    0 -0.49674621282E+02  0.48063718204E+01  0.70309508413E+02  0.86221204949E+02  0.00000000000E+00 0. -1.
         11    1    1    2    0    0  0.20464384466E+02  0.50794452049E+02  0.15295472839E+03  0.16246235357E+03  0.00000000000E+00 0.  1.
</event>
<event>
 7    1  0.2842702E-009  0.1013109E+03  0.7561462E-02  0.1277563E+00
          3   -1    0    0  501    0  0.00000000000E+00  0.00000000000E+00  0.20155131816E+03  0.20155131816E+03  0.00000000000E+00 0. -1.
         -3   -1    0    0    0  501 -0.00000000000E+00 -0.00000000000E+00 -0.70755899184E+02  0.70755899184E+02  0.00000000000E+00 0.  1.
         25    2    1    2    0    0 -0.11558892657E+02 -0.34831778128E+02  0.32008445684E+02  0.13423792971E+03  0.12509364656E+03 0.  0.
          5    1    3    3  502    0 -0.44244527088E+02 -0.53160718536E+02 -0.18016411278E+02  0.71594019638E+02  0.41800000000E+01 0.  1.
         -5    1    3    3    0  502  0.32685634431E+02  0.18328940409E+02  0.50024856962E+02  0.62643910069E+02  0.41800000000E+01 0.  1.
        -11    1    1    2    0    0 -0.36509962027E+02  0.30111602923E+02  0.39844833928E+02  0.61865149709E+02  0.00000000000E+00 0.  1.
         11    1    1    2    0    0  0.48068854684E+02  0.47201752051E+01  0.58942139368E+02  0.76204137931E+02  0.00000000000E+00 0. -1.
</event>
<event>
 7    1  0.2842702E-009  0.6690790E+02  0.7561462E-02  0.1370935E+00
         -1   -1    0    0    0  501 -0.00000000000E+00  0.00000000000E+00  0.82988390863E+02  0.82988390863E+02  0.00000000000E+00 0.  1.
          1   -1    0    0  501    0  0.00000000000E+00 -0.00000000000E+00 -0.21217755096E+03  0.21217755096E+03  0.00000000000E+00 0. -1.
         25    2    1    2    0    0  0.42421845121E+02 -0.26155182363E+02 -0.13485147316E+03  0.19056659163E+03  0.12508796714E+03 0.  0.
          5    1    3    3  502    0  0.48265160977E+02 -0.39655840159E+02 -0.15389508315E+03  0.16614234993E+03  0.41800000000E+01 0. -1.
         -5    1    3    3    0  502 -0.58433158562E+01  0.13500657796E+02  0.19043609989E+02  0.24424241698E+02  0.41800000000E+01 0. -1.
        -11    1    1    2    0    0 -0.67720259705E+01  0.18158606672E+02  0.46155900856E+02  0.50059589649E+02  0.00000000000E+00 0.  1.
         11    1    1    2    0    0 -0.35649819150E+02  0.79965756916E+01 -0.40493587793E+02  0.54539760548E+02  0.00000000000E+00 0. -1.
</event>
<event>
 7    1  0.2842702E-009  0.1729704E+03  0.7561462E-02  0.1174785E+00
         -1   -1    0    0    0  501 -0.00000000000E+00  0.00000000000E+00  0.21945110120E+03  0.21945110120E+03  0.00000000000E+00 0.  1.
          1   -1    0    0  501    0  0.00000000000E+00 -0.00000000000E+00 -0.16866626213E+03  0.16866626213E+03  0.00000000000E+00 0. -1.
         25    2    1    2    0    0 -0.12374143350E+03 -0.57525621886E+02 -0.54888675940E+02  0.19308245909E+03  0.12508768814E+03 0.  0.
          5    1    3    3  502    0 -0.10470717107E+03 -0.95064086478E+02 -0.32271974864E+02  0.14511969188E+03  0.41800000000E+01 0.  1.
         -5    1    3    3    0  502 -0.19034262429E+02  0.37538464592E+02 -0.22616701076E+02  0.47962767202E+02  0.41800000000E+01 0.  1.
        -11    1    1    2    0    0  0.12435357049E+03  0.21584406417E+02  0.93536463728E+02  0.15709477121E+03  0.00000000000E+00 0. -1.
         11    1    1    2    0    0 -0.61213699662E+00  0.35941215469E+02  0.12137051286E+02  0.37940133039E+02  0.00000000000E+00 0.  1.
</event>
<event>
 7    1  0.2842702E-009  0.9309859E+02  0.7561462E-02  0.1295517E+00
         -2   -1    0    0    0  501 -0.00000000000E+00  0.00000000000E+00  0.88087518820E+02  0.88087518820E+02  0.00000000000E+00 0.  1.
          2   -1    0    0  501    0  0.00000000000E+00 -0.00000000000E+00 -0.14085196320E+03  0.14085196320E+03  0.00000000000E+00 0. -1.
         25    2    1    2    0    0  0.10371421402E+01 -0.93208296727E+01 -0.32831589252E+01  0.12548269615E+03  0.12508866603E+03 0.  0.
          5    1    3    3  502    0 -0.27934683612E+02  0.45370381377E+02  0.22909510449E+02  0.58147537556E+02  0.41800000000E+01 0. -1.
         -5    1    3    3    0  502  0.28971825752E+02 -0.54691211050E+02 -0.26192669374E+02  0.67335158591E+02  0.41800000000E+01 0. -1.
        -11    1    1    2    0    0 -0.35444610707E+02  0.17344487998E+01  0.76803176183E+01  0.36308621834E+02  0.00000000000E+00 0.  1.
         11    1    1    2    0    0  0.34407468566E+02  0.75863808729E+01 -0.57161603073E+02  0.67148164039E+02  0.00000000000E+00 0. -1.
</event>
<event>
 7    1  0.2842702E-009  0.2143618E+03  0.7561462E-02  0.1138158E+00
          2   -1    0    0  501    0  0.00000000000E+00  0.00000000000E+00  0.16301659591E+04  0.16301659591E+04  0.00000000000E+00 0. -1.
         -2   -1    0    0    0  501 -0.00000000000E+00 -0.00000000000E+00 -0.33268420871E+02  0.33268420871E+02  0.00000000000E+00 0.  1.
         25    2    1    2    0    0 -0.10478104019E+03 -0.17234936907E+03  0.68457584211E+03  0.72455267898E+03  0.12509648124E+03 0.  0.
          5    1    3    3  502    0  0.44528551430E+01 -0.16634992691E+02  0.43849071296E+01  0.18255155746E+02  0.41800000000E+01 0. -1.
         -5    1    3    3    0  502 -0.10923389534E+03 -0.15571437638E+03  0.68019093498E+03  0.70629752323E+03  0.41800000000E+01 0. -1.
        -11    1    1    2    0    0 -0.10702170991E+02  0.55277586330E+02  0.27335780666E+03  0.27909610975E+03  0.00000000000E+00 0.  1.
         11    1    1    2    0    0  0.11548321119E+03  0.11707178274E+03  0.63896388950E+03  0.65978559128E+03  0.00000000000E+00 0. -1.
</event>
<event>
 7    1  0.2842702E-009  0.1267251E+03  0.7561462E-02  0.1232398E+00
         -1   -1    0    0    0  501 -0.00000000000E+00  0.00000000000E+00  0.48699372388E+02  0.48699372388E+02  0.00000000000E+00 0.  1.
          1   -1    0    0  501    0  0.00000000000E+00 -0.00000000000E+00 -0.36720205213E+03  0.36720205213E+03  0.00000000000E+00 0. -1.
         25    2    1    2    0    0 -0.42853242745E+02 -0.55624420821E+02 -0.14151152102E+03  0.20149744280E+03  0.12508090289E+03 0.  0.
          5    1    3    3  502    0 -0.10922799031E+02 -0.90168981720E+02 -0.11733867965E+03  0.14844389830E+03  0.41800000000E+01 0.  1.
         -5    1    3    3    0  502 -0.31930443714E+02  0.34544560899E+02 -0.24172841373E+02  0.53053544495E+02  0.41800000000E+01 0.  1.
        -11    1    1    2    0    0  0.26622031149E+02 -0.22899200583E+02 -0.87292293423E+02  0.94090650018E+02  0.00000000000E+00 0. -1.
         11    1    1    2    0    0  0.16231211595E+02  0.78523621404E+02 -0.89698865297E+02  0.12031333170E+03  0.00000000000E+00 0.  1.
</event>
<event>
 7    1  0.2842702E-009  0.2846916E+03  0.7561462E-02  0.1093154E+00
          1   -1    0    0  501    0  0.00000000000E+00  0.00000000000E+00  0.12488399265E+04  0.12488399265E+04  0.00000000000E+00 0. -1.
         -1   -1    0    0    0  501 -0.00000000000E+00 -0.00000000000E+00 -0.92118115899E+02  0.92118115899E+02  0.00000000000E+00 0.  1.
         25    2    1    2    0    0 -0.85117478121E+02  0.16137810673E+02  0.71791281582E+03  0.73386073282E+03  0.12508936820E+03 0.  0.
          5    1    3    3  502    0 -0.48350742527E+02  0.70612782347E+02  0.37262952570E+03  0.38235349502E+03  0.41800000000E+01 0. -1.
         -5    1    3    3    0  502 -0.36766735595E+02 -0.54474971674E+02  0.34528329012E+03  0.35150723780E+03  0.41800000000E+01 0. -1.
        -11    1    1    2    0    0 -0.16558196357E+03  0.94086764867E+01  0.20119761799E+03  0.26074200148E+03  0.00000000000E+00 0. -1.
         11    1    1    2    0    0  0.25069944169E+03 -0.25546487160E+02  0.23761137680E+03  0.34635530811E+03  0.00000000000E+00 0.  1.
</event>
<event>
 7    1  0.2842702E-009  0.8398471E+02  0.7561462E-02  0.1318109E+00
         -1   -1    0    0    0  501 -0.00000000000E+00  0.00000000000E+00  0.49238547827E+03  0.49238547827E+03  0.00000000000E+00 0.  1.
          1   -1    0    0  501    0  0.00000000000E+00 -0.00000000000E+00 -0.28055440916E+02  0.28055440916E+02  0.00000000000E+00 0. -1.
         25    2    1    2    0    0 -0.19038335243E+02 -0.13363833568E+02  0.35345857897E+03  0.37566064664E+03  0.12508758585E+03 0.  0.
          5    1    3    3  502    0  0.14823527388E+02 -0.33802924200E+02  0.32411062065E+03  0.32623234276E+03  0.41800000000E+01 0.  1.
         -5    1    3    3    0  502 -0.33861862631E+02  0.20439090632E+02  0.29347958319E+02  0.49428303878E+02  0.41800000000E+01 0.  1.
        -11    1    1    2    0    0  0.45794599064E+02 -0.18546146285E+02  0.75032887426E+02  0.89838961709E+02  0.00000000000E+00 0.  1.
         11    1    1    2    0    0 -0.26756263822E+02  0.31909979853E+02  0.35838570963E+02  0.54941310837E+02  0.00000000000E+00 0. -1.
</event>
<event>
 7    1  0.3291509E-009  0.1339716E+03  0.7561462E-02  0.1221679E+00
          2   -1    0    0  501    0  0.00000000000E+00  0.00000000000E+00  0.14181362942E+04  0.14181362942E+04  0.00000000000E+00 0.  1.
         -2   -1    0    0    0  501 -0.00000000000E+00 -0.00000000000E+00 -0.14715184206E+02  0.14715184206E+02  0.00000000000E+00 0. -1.
         25    2    1    2    0    0  0.77139291234E+02  0.47751883956E+02  0.89305202748E+03  0.90632377785E+03  0.12510057490E+03 0.  0.
          5    1    3    3  502    0  0.75931949570E+02  0.81151416711E+02  0.79285489865E+03  0.80061699714E+03  0.41800000000E+01 0.  1.
         -5    1    3    3    0  502  0.12073416642E+01 -0.33399532755E+02  0.10019712883E+03  0.10570678071E+03  0.41800000000E+01 0.  1.
        -11    1    1    2    0    0  0.14333629148E+02 -0.24950963281E+02  0.61955637644E+02  0.68311818370E+02  0.00000000000E+00 0. -1.
         11    1    1    2    0    0 -0.91472920382E+02 -0.22800920675E+02  0.44841344490E+03  0.45821588221E+03  0.00000000000E+00 0.  1.
</event>
<event>
 7    1  0.2842702E-009  0.1579300E+03  0.7561462E-02  0.1191054E+00
         -2   -1    0    0    0  501 -0.00000000000E+00  0.00000000000E+00  0.48290461769E+02  0.48290461769E+02  0.00000000000E+00 0.  1.
          2   -1    0    0  501    0  0.00000000000E+00 -0.00000000000E+00 -0.62957588003E+03  0.62957588003E+03  0.00000000000E+00 0. -1.
         25    2    1    2    0    0 -0.62358774033E+02  0.10888032929E+03 -0.40566261193E+03  0.44266439182E+03  0.12508423666E+03 0.  0.
          5    1    3    3  502    0  0.18990928724E+02 -0.17782407053E+02 -0.52801917192E+02  0.59011729627E+02  0.41800000000E+01 0. -1.
         -5    1    3    3    0  502 -0.81349702756E+02  0.12666273634E+03 -0.35286069473E+03  0.38365266219E+03  0.41800000000E+01 0. -1.
        -11    1    1    2    0    0  0.33332362208E+02 -0.10434131121E+03 -0.17421537040E+03  0.20578909320E+03  0.00000000000E+00 0. -1.
         11    1    1    2    0    0  0.29026411825E+02 -0.45390180785E+01 -0.14074359403E+01  0.29412856789E+02  0.00000000000E+00 0.  1.
</event>
<event>
 7    1  0.2842702E-009  0.9902697E+02  0.7561462E-02  0.1282356E+00
         -2   -1    0    0    0  501 -0.00000000000E+00  0.00000000000E+00  0.27062936748E+02  0.27062936748E+02  0.00000000000E+00 0.  1.
          2   -1    0    0  501    0  0.00000000000E+00 -0.00000000000E+00 -0.70315068361E+03  0.70315068361E+03  0.00000000000E+00 0. -1.
         25    2    1    2    0    0  0.52467792837E+02  0.20532348306E+02 -0.53599120641E+03  0.55327070167E+03  0.12508976523E+03 0.  0.
          5    1    3    3  502    0  0.24145191029E+02 -0.32900072670E+02 -0.55738516622E+02  0.69207367142E+02  0.41800000000E+01 0.  1.
         -5    1    3    3    0  502  0.28322601808E+02  0.53432420977E+02 -0.48025268979E+03  0.48406333453E+03  0.41800000000E+01 0.  1.
        -11    1    1    2    0    0  0.41560055762E+01  0.24010886224E+02 -0.78372728335E+02  0.82073622963E+02  0.00000000000E+00 0.  1.
         11    1    1    2    0    0 -0.56623798413E+02 -0.44543234530E+02 -0.61723812113E+02  0.94869295722E+02  0.00000000000E+00 0. -1.
</event>
<event>
 7    1  0.2842702E-009  0.1051331E+03  0.7561462E-02  0.1269858E+00
         -1   -1    0    0    0  501 -0.00000000000E+00  0.00000000000E+00  0.73903052099E+03  0.73903052099E+03  0.00000000000E+00 0.  1.
          1   -1    0    0  501    0  0.00000000000E+00 -0.00000000000E+00 -0.18707104643E+02  0.18707104643E+02  0.00000000000E+00 0. -1.
         25    2    1    2    0    0 -0.15561964995E+01 -0.40314778681E+02  0.48536557033E+03  0.50284695219E+03  0.12509043664E+03 0.  0.
          5    1    3    3  502    0 -0.53776471432E+02 -0.18056230817E+02  0.11682207954E+03  0.12993385633E+03  0.41800000000E+01 0.  1.
         -5    1    3    3    0  502  0.52220274933E+02 -0.22258547865E+02  0.36854349078E+03  0.37291309586E+03  0.41800000000E+01 0.  1.
        -11    1    1    2    0    0  0.12354516194E+02 -0.26259902496E+02  0.47440447636E+02  0.55613061608E+02  0.00000000000E+00 0.  1.
         11    1    1    2    0    0 -0.10798319694E+02  0.66574681178E+02  0.18751739838E+03  0.19927761183E+03  0.00000000000E+00 0. -1.
</event>
<event>
 7    1  0.2842702E-009  0.1523741E+03  0.7561462E-02  0.1197586E+00
         -2   -1    0    0    0  501 -0.00000000000E+00  0.00000000000E+00  0.26959366718E+02  0.26959366718E+02  0.00000000000E+00 0.  1.
          2   -1    0    0  501    0  0.00000000000E+00 -0.00000000000E+00 -0.10077393869E+04  0.10077393869E+04  0.00000000000E+00 0. -1.
         25    2    1    2    0    0 -0.84213949868E+02  0.79855589560E+02 -0.65340959122E+03  0.67532236819E+03  0.12508917832E+03 0.  0.
          5    1    3    3  502    0 -0.59303345013E+02  0.11267448825E+03 -0.53210745714E+03  0.54714554314E+03  0.41800000000E+01 0. -1.
         -5    1    3    3    0  502 -0.24910604855E+02 -0.32818898694E+02 -0.12130213408E+03  0.12817682504E+03  0.41800000000E+01 0. -1.
        -11    1    1    2    0    0  0.65100236678E+02 -0.12976339617E+02 -0.88773984660E+02  0.11084785319E+03  0.00000000000E+00 0.  1.
         11    1    1    2    0    0  0.19113713190E+02 -0.66879249943E+02 -0.23859644430E+03  0.24852853224E+03  0.00000000000E+00 0. -1.
</event>
<event>
 7    1  0.2842702E-009  0.1223939E+03  0.7561462E-02  0.1239199E+00
          3   -1    0    0  501    0  0.00000000000E+00  0.00000000000E+00  0.24690480643E+03  0.24690480643E+03  0.00000000000E+00 0. -1.
         -3   -1    0    0    0  501 -0.00000000000E+00 -0.00000000000E+00 -0.89250102754E+02  0.89250102754E+02  0.00000000000E+00 0.  1.
         25    2    1    2    0    0 -0.47524078000E+02 -0.85959755795E+02  0.61446348587E+02  0.17050172740E+03  0.12509023817E+03 0.  0.
          5    1    3    3  502    0 -0.66603447337E+02 -0.80319011761E+02 -0.14147700848E+01  0.10443484486E+03  0.41800000000E+01 0.  1.
         -5    1    3    3    0  502  0.19079369337E+02 -0.56407440341E+01  0.62861118672E+02  0.66066882537E+02  0.41800000000E+01 0.  1.
        -11    1    1    2    0    0  0.39916461570E+02  0.67801817309E+01 -0.42717904698E+00  0.40490458759E+02  0.00000000000E+00 0.  1.
         11    1    1    2    0    0  0.76076164299E+01  0.79179574064E+02  0.96635534138E+02  0.12516272302E+03  0.00000000000E+00 0. -1.
</event>
<event>
 7    1  0.2842702E-009  0.5975705E+02  0.7561462E-02  0.1398854E+00
         -2   -1    0    0    0  501 -0.00000000000E+00  0.00000000000E+00  0.80884095851E+02  0.80884095851E+02  0.00000000000E+00 0.  1.
          2   -1    0    0  501    0  0.00000000000E+00 -0.00000000000E+00 -0.17687027508E+03  0.17687027508E+03  0.00000000000E+00 0. -1.
         25    2    1    2    0    0  0.21088398166E+02 -0.19286666098E+02 -0.99919242686E+02  0.16263004764E+03  0.12509189146E+03 0.  0.
          5    1    3    3  502    0  0.18870733084E+02 -0.10847686958E+00 -0.12736036724E+03  0.12881867829E+03  0.41800000000E+01 0.  1.
         -5    1    3    3    0  502  0.22176650821E+01 -0.19178189229E+02  0.27441124549E+02  0.33811369346E+02  0.41800000000E+01 0.  1.
        -11    1    1    2    0    0  0.12704467081E+02  0.39200906646E+02 -0.23331892454E+02  0.47354955086E+02  0.00000000000E+00 0. -1.
         11    1    1    2    0    0 -0.33792865248E+02 -0.19914240548E+02  0.27264955910E+02  0.47769368209E+02  0.00000000000E+00 0.  1.
</event>
<event>
 7    1  0.2842702E-009  0.1216766E+03  0.7561462E-02  0.1240357E+00
         -1   -1    0    0    0  501 -0.00000000000E+00  0.00000000000E+00  0.91870540273E+02  0.91870540273E+02  0.00000000000E+00 0.  1.
          1   -1    0    0  501    0  0.00000000000E+00 -0.00000000000E+00 -0.21622050114E+03  0.21622050114E+03  0.00000000000E+00 0. -1.
         25    2    1    2    0    0 -0.77042527700E+02 -0.30323532695E+01 -0.12346500239E+02  0.14745801079E+03  0.12508670048E+03 0.  0.
          5    1    3    3  502    0 -0.79544370912E+01  0.46136972347E+02  0.26645335780E+02  0.54030913426E+02  0.41800000000E+01 0.  1.
         -5    1    3    3    0  502 -0.69088090609E+02 -0.49169325616E+02 -0.38991836019E+02  0.93427097363E+02  0.41800000000E+01 0.  1.
        -11    1    1    2    0    0  0.18958336579E+02  0.38835237098E+02 -0.63930390164E+02  0.77166631084E+02  0.00000000000E+00 0.  1.
         11    1    1    2    0    0  0.58084191121E+02 -0.35802883829E+02 -0.48073070465E+02  0.83466399542E+02  0.00000000000E+00 0. -1.
</event>
<event>
 7    1  0.2842702E-009  0.2190505E+03  0.7561462E-02  0.1134593E+00
         -1   -1    0    0    0  501 -0.00000000000E+00  0.00000000000E+00  0.26598745391E+03  0.26598745391E+03  0.00000000000E+00 0.  1.
          1   -1    0    0  501    0  0.00000000000E+00 -0.00000000000E+00 -0.22834509376E+03  0.22834509376E+03  0.00000000000E+00 0. -1.
         25    2    1    2    0    0  0.16815359197E+03 -0.11704425320E+03  0.10486687122E+03  0.26195312289E+03  0.12508952878E+03 0.  0.
          5    1    3    3  502    0  0.13104632731E+03 -0.13619697259E+03  0.11147383983E+03  0.21946900604E+03  0.41800000000E+01 0. -1.
         -5    1    3    3    0  502  0.37107264660E+02  0.19152719386E+02 -0.66069686081E+01  0.42484116851E+02  0.41800000000E+01 0. -1.
        -11    1    1    2    0    0 -0.57421018327E+02  0.57900691995E+02 -0.69013123272E+02  0.10682918451E+03  0.00000000000E+00 0. -1.
         11    1    1    2    0    0 -0.11073257364E+03  0.59143561207E+02  0.17886121973E+01  0.12555024027E+03  0.00000000000E+00 0.  1.
</event>
<event>
 7    1  0.2842702E-009  0.1250834E+03  0.7561462E-02  0.1234939E+00
         -1   -1    0    0    0  501 -0.00000000000E+00  0.00000000000E+00  0.29749834119E+02  0.29749834119E+02  0.00000000000E+00 0. -1.
          1   -1    0    0  501    0  0.00000000000E+00 -0.00000000000E+00 -0.56627941602E+03  0.56627941602E+03  0.00000000000E+00 0.  1.
         25    2    1    2    0    0  0.53466728866E+02  0.48721035067E+02 -0.30010651897E+03  0.33308188966E+03  0.12508873707E+03 0.  0.
          5    1    3    3  502    0 -0.20488525162E+02 -0.24296703504E+02 -0.12829872832E+03  0.13224275236E+03  0.41800000000E+01 0.  1.
         -5    1    3    3    0  502  0.73955254028E+02  0.73017738570E+02 -0.17180779065E+03  0.20083913730E+03  0.41800000000E+01 0.  1.
        -11    1    1    2    0    0 -0.74967137767E+02 -0.18860081015E+02 -0.14335535609E+03  0.16286967956E+03  0.00000000000E+00 0.  1.
         11    1    1    2    0    0  0.21500408901E+02 -0.29860954051E+02 -0.93067706846E+02  0.10007768092E+03  0.00000000000E+00 0. -1.
</event>
<event>
 7    1  0.2842702E-009  0.1111150E+03  0.7561462E-02  0.1258519E+00
         -3   -1    0    0    0  501 -0.00000000000E+00  0.00000000000E+00  0.45987403564E+03  0.45987403564E+03  0.00000000000E+00 0.  1.
          3   -1    0    0  501    0  0.00000000000E+00 -0.00000000000E+00 -0.32607533988E+02  0.32607533988E+02  0.00000000000E+00 0. -1.
         25    2    1    2    0    0  0.31742297507E+02  0.45049987835E+02  0.27492032618E+03  0.30703022049E+03  0.12509714501E+03 0.  0.
          5    1    3    3  502    0  0.66875572560E+02  0.65812054396E+02  0.16736131471E+03  0.19191365446E+03  0.41800000000E+01 0. -1.
         -5    1    3    3    0  502 -0.35133275053E+02 -0.20762066560E+02  0.10755901148E+03  0.11511656603E+03  0.41800000000E+01 0. -1.
        -11    1    1    2    0    0 -0.29531209632E+02 -0.62801324421E+02  0.15251536832E+03  0.16756203707E+03  0.00000000000E+00 0.  1.
         11    1    1    2    0    0 -0.22110878746E+01  0.17751336586E+02 -0.16919285330E+00  0.17889312072E+02  0.00000000000E+00 0. -1.
</event>
<event>
 7    1  0.2842702E-009  0.1079588E+03  0.7561462E-02  0.1264397E+00
         -1   -1    0    0    0  501 -0.00000000000E+00  0.00000000000E+00  0.67524338632E+02  0.67524338632E+02  0.00000000000E+00 0.  1.
          1   -1    0    0  501    0  0.00000000000E+00 -0.00000000000E+00 -0.23799394674E+03  0.23799394674E+03  0.00000000000E+00 0. -1.
         25    2    1    2    0    0  0.65260180856E+02 -0.98752651928E+01 -0.92354430204E+02  0.16891251035E+03  0.12508270586E+03 0.  0.
          5    1    3    3  502    0  0.82589336955E+02  0.29509190521E+02 -0.29498750022E+02  0.92625264139E+02  0.41800000000E+01 0. -1.
         -5    1    3    3    0  502 -0.17329156100E+02 -0.39384455713E+02 -0.62855680183E+02  0.76287246209E+02  0.41800000000E+01 0. -1.
        -11    1    1    2    0    0 -0.34958798902E+02  0.31977846078E+02 -0.86085788471E+02  0.98262216733E+02  0.00000000000E+00 0. -1.
         11    1    1    2    0    0 -0.30301381954E+02 -0.22102580885E+02  0.79706105625E+01  0.38343558296E+02  0.00000000000E+00 0.  1.
</event>
<event>
 7    1  0.2907101E-009  0.8842696E+02  0.7561462E-02  0.1306706E+00
         -1   -1    0    0    0  501 -0.00000000000E+00  0.00000000000E+00  0.57524645565E+02  0.57524645565E+02  0.00000000000E+00 0.  1.
          1   -1    0    0  501    0  0.00000000000E+00 -0.00000000000E+00 -0.32278759688E+03  0.32278759688E+03  0.00000000000E+00 0. -1.
         25    2    1    2    0    0  0.18630335804E+01 -0.33488718904E+02 -0.25069581842E+03  0.28217577269E+03  0.12509919317E+03 0.  0.
          5    1    3    3  502    0 -0.28112900890E+02 -0.73707307159E+02 -0.16041214802E+03  0.17880892584E+03  0.41800000000E+01 0. -1.
         -5    1    3    3    0  502  0.29975934471E+02  0.40218588255E+02 -0.90283670398E+02  0.10336684686E+03  0.41800000000E+01 0. -1.
        -11    1    1    2    0    0  0.15326935458E+02  0.22126182343E+02  0.35176980637E+02  0.44293372669E+02  0.00000000000E+00 0.  1.
         11    1    1    2    0    0 -0.17189969038E+02  0.11362536560E+02 -0.49744113529E+02  0.53843097083E+02  0.00000000000E+00 0. -1.
</event>
<event>
 7    1  0.2842702E-009  0.8844776E+02  0.7561462E-02  0.1306655E+00
         -1   -1    0    0    0  501 -0.00000000000E+00  0.00000000000E+00  0.51670833706E+03  0.51670833706E+03  0.00000000000E+00 0.  1.
          1   -1    0    0  501    0  0.00000000000E+00 -0.00000000000E+00 -0.27509794440E+02  0.27509794440E+02  0.00000000000E+00 0. -1.
         25    2    1    2    0    0  0.40737055304E+02  0.30708381308E+02  0.27821046886E+03  0.30927509532E+03  0.12508999660E+03 0.  0.
          5    1    3    3  502    0 -0.24249237779E+02  0.18563341200E+02  0.21668791075E+03  0.21886924461E+03  0.41800000000E+01 0. -1.
         -5    1    3    3    0  502  0.64986293083E+02  0.12145040107E+02  0.61522558103E+02  0.90405850714E+02  0.41800000000E+01 0. -1.
        -11    1    1    2    0    0 -0.20781636315E+02  0.17808331961E+02  0.13330188382E+02  0.30441862910E+02  0.00000000000E+00 0. -1.
         11    1    1    2    0    0 -0.19955418989E+02 -0.48516713268E+02  0.19765788538E+03  0.20450117326E+03  0.00000000000E+00 0.  1.
</event>
<event>
 7    1  0.2842702E-009  0.1034718E+03  0.7561462E-02  0.1273160E+00
         -3   -1    0    0    0  501 -0.00000000000E+00  0.00000000000E+00  0.29716529458E+03  0.29716529458E+03  0.00000000000E+00 0.  1.
          3   -1    0    0  501    0  0.00000000000E+00 -0.00000000000E+00 -0.52279747003E+02  0.52279747003E+02  0.00000000000E+00 0. -1.
         25    2    1    2    0    0 -0.47868450836E+01 -0.21157200934E+02  0.21583716791E+03  0.25040754319E+03  0.12509082140E+03 0.  0.
          5    1    3    3  502    0 -0.41189081737E+02  0.33006292072E+02  0.52935338004E+02  0.74870409243E+02  0.41800000000E+01 0. -1.
         -5    1    3    3    0  502  0.36402236653E+02 -0.54163493006E+02  0.16290182991E+03  0.17553713395E+03  0.41800000000E+01 0. -1.
        -11    1    1    2    0    0 -0.39556650018E+02  0.20127100545E+00 -0.42070658479E+01  0.39780252308E+02  0.00000000000E+00 0. -1.
         11    1    1    2    0    0  0.44343495102E+02  0.20955929929E+02  0.33255445516E+02  0.59257246084E+02  0.00000000000E+00 0.  1.
</event>
<event>
 7    1  0.2842702E-009  0.1917730E+03  0.7561462E-02  0.1156872E+00
          1   -1    0    0  501    0  0.00000000000E+00  0.00000000000E+00  0.90741437148E+02  0.90741437148E+02  0.00000000000E+00 0. -1.
         -1   -1    0    0    0  501 -0.00000000000E+00 -0.00000000000E+00 -0.51251321280E+03  0.51251321280E+03  0.00000000000E+00 0.  1.
         25    2    1    2    0    0 -0.40926118134E+02 -0.11748221584E+03 -0.18272623922E+03  0.25399678969E+03  0.12509385473E+03 0.  0.
          5    1    3    3  502    0 -0.24436633324E+02 -0.39488916990E+01  0.12096205920E+02  0.27866348730E+02  0.41800000000E+01 0. -1.
         -5    1    3    3    0  502 -0.16489484810E+02 -0.11353332414E+03 -0.19482244514E+03  0.22613044096E+03  0.41800000000E+01 0. -1.
        -11    1    1    2    0    0  0.10354824912E+03 -0.75296921255E+01 -0.53109556092E+02  0.11661715615E+03  0.00000000000E+00 0.  1.
         11    1    1    2    0    0 -0.62622130991E+02  0.12501190796E+03 -0.18593598034E+03  0.23264070411E+03  0.00000000000E+00 0. -1.
</event>
<event>
 7    1  0.2842702E-009  0.1084412E+03  0.7561462E-02  0.1263484E+00
         -2   -1    0    0    0  501 -0.00000000000E+00  0.00000000000E+00  0.13180934240E+03  0.13180934240E+03  0.00000000000E+00 0.  1.
          2   -1    0    0  501    0  0.00000000000E+00 -0.00000000000E+00 -0.12364183672E+03  0.12364183672E+03  0.00000000000E+00 0. -1.
         25    2    1    2    0    0  0.17904643378E+02  0.38298055629E+02  0.53807244171E+02  0.14258559629E+03  0.12509242753E+03 0.  0.
          5    1    3    3  502    0  0.44819662151E+02 -0.29396631557E+02  0.42952151130E+02  0.68813688674E+02  0.41800000000E+01 0.  1.
         -5    1    3    3    0  502 -0.26915018773E+02  0.67694687185E+02  0.10855093040E+02  0.73771907618E+02  0.41800000000E+01 0.  1.
        -11    1    1    2    0    0 -0.31028452596E+02 -0.58407520467E+02 -0.58559400698E+01  0.66396501050E+02  0.00000000000E+00 0.  1.
         11    1    1    2    0    0  0.13123809218E+02  0.20109464839E+02 -0.39783798423E+02  0.46469081780E+02  0.00000000000E+00 0. -1.
</event>
<event>
 7    1  0.2842702E-009  0.7590037E+02  0.7561462E-02  0.1341105E+00
         -1   -1    0    0    0  501 -0.00000000000E+00  0.00000000000E+00  0.13122641279E+03  0.13122641279E+03  0.00000000000E+00 0.  1.
          1   -1    0    0  501    0  0.00000000000E+00 -0.00000000000E+00 -0.12514411282E+03  0.12514411282E+03  0.00000000000E+00 0. -1.
         25    2    1    2    0    0  0.31935671913E+02 -0.50294256963E+02  0.38901931586E+02  0.14390913333E+03  0.12508828463E+03 0.  0.
          5    1    3    3  502    0 -0.10715375235E+02  0.37525396845E+01 -0.38427658361E+02  0.40287195828E+02  0.41800000000E+01 0.  1.
         -5    1    3    3    0  502  0.42651047148E+02 -0.54046796648E+02  0.77329589947E+02  0.10362193750E+03  0.41800000000E+01 0.  1.
        -11    1    1    2    0    0 -0.19143281561E+02  0.54094332575E+02  0.17826210903E+02  0.60086902406E+02  0.00000000000E+00 0.  1.
         11    1    1    2    0    0 -0.12792390352E+02 -0.38000756113E+01 -0.50645842516E+02  0.52374489876E+02  0.00000000000E+00 0. -1.
</event>
<event>
 7    1  0.2842702E-009  0.1186400E+03  0.7561462E-02  0.1245358E+00
         -2   -1    0    0    0  501 -0.00000000000E+00  0.00000000000E+00  0.50819320938E+03  0.50819320938E+03  0.00000000000E+00 0.  1.
          2   -1    0    0  501    0  0.00000000000E+00 -0.00000000000E+00 -0.53823943016E+02  0.53823943016E+02  0.00000000000E+00 0. -1.
         25    2    1    2    0    0  0.75762319416E+02 -0.85190544236E+02  0.15807583991E+03  0.23158811372E+03  0.12509086850E+03 0.  0.
          5    1    3    3  502    0  0.20212527510E+02 -0.23311766941E+02  0.14377626586E+03  0.14710904721E+03  0.41800000000E+01 0. -1.
         -5    1    3    3    0  502  0.55549791906E+02 -0.61878777295E+02  0.14299574053E+02  0.84479066510E+02  0.41800000000E+01 0. -1.
        -11    1    1    2    0    0 -0.72853122846E+02  0.51858874522E+02  0.11298479374E+03  0.14409192896E+03  0.00000000000E+00 0. -1.
         11    1    1    2    0    0 -0.29091965692E+01  0.33331669714E+02  0.18330863271E+03  0.18633710971E+03  0.00000000000E+00 0.  1.
</event>
<event>
 7    1  0.2842702E-009  0.1186956E+03  0.7561462E-02  0.1245265E+00
         -2   -1    0    0    0  501 -0.00000000000E+00  0.00000000000E+00  0.14470975079E+03  0.14470975079E+03  0.00000000000E+00 0.  1.
          2   -1    0    0  501    0  0.00000000000E+00 -0.00000000000E+00 -0.10573529749E+03  0.10573529749E+03  0.00000000000E+00 0. -1.
         25    2    1    2    0    0 -0.45356584097E+02  0.94183294842E+01  0.44771763088E+02  0.14070622258E+03  0.12509118934E+03 0.  0.
          5    1    3    3  502    0  0.42435996765E+02  0.15303023905E+02  0.15106982730E+02  0.47756566975E+02  0.41800000000E+01 0.  1.
         -5    1    3    3    0  502 -0.87792580862E+02 -0.58846944206E+01  0.29664780358E+02  0.92949655602E+02  0.41800000000E+01 0.  1.
        -11    1    1    2    0    0  0.67656166586E+02  0.16668391848E+02  0.12585406960E+02  0.70806670818E+02  0.00000000000E+00 0.  1.
         11    1    1    2    0    0 -0.22299582489E+02 -0.26086721332E+02 -0.18382716742E+02  0.38932154884E+02  0.00000000000E+00 0. -1.
</event>
<event>
 7    1  0.2991431E-009  0.1066367E+03  0.7561462E-02  0.1266928E+00
         -1   -1    0    0    0  501 -0.00000000000E+00  0.00000000000E+00  0.24429180308E+02  0.24429180308E+02  0.00000000000E+00 0.  1.
          1   -1    0    0  501    0  0.00000000000E+00 -0.00000000000E+00 -0.60745230384E+03  0.60745230384E+03  0.00000000000E+00 0. -1.
         25    2    1    2    0    0  0.34982890707E+01  0.53354512658E+01 -0.18519922713E+03  0.22354801099E+03  0.12503701220E+03 0.  0.
          5    1    3    3  502    0  0.92001255549E+01 -0.58958878070E+02 -0.10081034249E+03  0.11722196537E+03  0.41800000000E+01 0. -1.
         -5    1    3    3    0  502 -0.57018364842E+01  0.64294329336E+02 -0.84388884645E+02  0.10632604561E+03  0.41800000000E+01 0. -1.
        -11    1    1    2    0    0 -0.40785114272E+02  0.18218965791E+02 -0.14613521935E+03  0.15280987728E+03  0.00000000000E+00 0.  1.
         11    1    1    2    0    0  0.37286825201E+02 -0.23554417057E+02 -0.25168867705E+03  0.25552359588E+03  0.00000000000E+00 0. -1.
</event>
<event>
 7    1  0.2842702E-009  0.1705095E+03  0.7561462E-02  0.1177318E+00
          2   -1    0    0  501    0  0.00000000000E+00  0.00000000000E+00  0.21412913883E+02  0.21412913883E+02  0.00000000000E+00 0. -1.
         -2   -1    0    0    0  501 -0.00000000000E+00 -0.00000000000E+00 -0.15196030812E+04  0.15196030812E+04  0.00000000000E+00 0.  1.
         25    2    1    2    0    0  0.14350563122E+03  0.75428952390E+01 -0.82414422604E+03  0.84588031976E+03  0.12509615734E+03 0.  0.
          5    1    3    3  502    0  0.83943736628E+02 -0.41745421550E+02 -0.25939494460E+03  0.27584858314E+03  0.41800000000E+01 0. -1.
         -5    1    3    3    0  502  0.59561894591E+02  0.49288316789E+02 -0.56474928144E+03  0.57003173662E+03  0.41800000000E+01 0. -1.
        -11    1    1    2    0    0 -0.92099491226E+02 -0.48440059740E+02 -0.39758810628E+03  0.41098060529E+03  0.00000000000E+00 0.  1.
         11    1    1    2    0    0 -0.51406139993E+02  0.40897164501E+02 -0.27645783499E+03  0.28415507002E+03  0.00000000000E+00 0. -1.
</event>
<event>
 7    1  0.2842702E-009  0.1704083E+03  0.7561462E-02  0.1177423E+00
         -2   -1    0    0    0  501 -0.00000000000E+00  0.00000000000E+00  0.57986389954E+02  0.57986389954E+02  0.00000000000E+00 0.  1.
          2   -1    0    0  501    0  0.00000000000E+00 -0.00000000000E+00 -0.54588386559E+03  0.54588386559E+03  0.00000000000E+00 0. -1.
         25    2    1    2    0    0  0.13209788796E+03  0.24768505339E+02 -0.33828487913E+03  0.38489865206E+03  0.12508789730E+03 0.  0.
          5    1    3    3  502    0  0.15538427683E+03  0.11115991065E+02 -0.27762334113E+03  0.31837090112E+03  0.41800000000E+01 0. -1.
         -5    1    3    3    0  502 -0.23286388865E+02  0.13652514274E+02 -0.60661538003E+02  0.66527750942E+02  0.41800000000E+01 0. -1.
        -11    1    1    2    0    0 -0.42853469858E+01 -0.29455487011E+02 -0.15161131414E+02  0.33404338335E+02  0.00000000000E+00 0. -1.
         11    1    1    2    0    0 -0.12781254098E+03  0.46869816719E+01 -0.13445146509E+03  0.18556726515E+03  0.00000000000E+00 0.  1.
</event>
<event>
 7    1  0.2842702E-009  0.1651867E+03  0.7561462E-02  0.1182962E+00
         -3   -1    0    0    0  501 -0.00000000000E+00  0.00000000000E+00  0.84491600773E+02  0.84491600773E+02  0.00000000000E+00 0.  1.
          3   -1    0    0  501    0  0.00000000000E+00 -0.00000000000E+00 -0.55885840739E+03  0.55885840739E+03  0.00000000000E+00 0. -1.
         25    2    1    2    0    0 -0.14571217176E+03  0.65115847927E+02 -0.10074635892E+03  0.22642342409E+03  0.12508248275E+03 0.  0.
          5    1    3    3  502    0 -0.43927845975E+02  0.15331049489E+02  0.28319036459E+02  0.54627254703E+02  0.41800000000E+01 0. -1.
         -5    1    3    3    0  502 -0.10178432579E+03  0.49784798438E+02 -0.12906539538E+03  0.17179616939E+03  0.41800000000E+01 0. -1.
        -11    1    1    2    0    0  0.84285582821E+02 -0.51677333844E+01 -0.10395231846E+03  0.13392852367E+03  0.00000000000E+00 0. -1.
         11    1    1    2    0    0  0.61426588939E+02 -0.59948114542E+02 -0.26966812924E+03  0.28299806041E+03  0.00000000000E+00 0.  1.
</event>
<event>
 7    1  0.2842702E-009  0.8245842E+02  0.7561462E-02  0.1322216E+00
          2   -1    0    0  501    0  0.00000000000E+00  0.00000000000E+00  0.62777434543E+02  0.62777434543E+02  0.00000000000E+00 0. -1.
         -2   -1    0    0    0  501 -0.00000000000E+00 -0.00000000000E+00 -0.19425655634E+03  0.19425655634E+03  0.00000000000E+00 0.  1.
         25    2    1    2    0    0 -0.21121140015E+02 -0.15007010049E+01 -0.86919302724E+02  0.15378856646E+03  0.12509038064E+03 0.  0.
          5    1    3    3  502    0 -0.10401433314E+02  0.45414529010E+02 -0.93972059140E+02  0.10497089863E+03  0.41800000000E+01 0.  1.
         -5    1    3    3    0  502 -0.10719706701E+02 -0.46915230015E+02  0.70527564168E+01  0.48817667828E+02  0.41800000000E+01 0.  1.
        -11    1    1    2    0    0 -0.15465323569E+01  0.31886714883E+02 -0.55291689766E+02  0.63846106425E+02  0.00000000000E+00 0.  1.
         11    1    1    2    0    0  0.22667672372E+02 -0.30386013878E+02  0.10731870694E+02  0.39399317999E+02  0.00000000000E+00 0. -1.
</event>
<event>
 7    1  0.2842702E-009  0.2034326E+03  0.7561462E-02  0.1146875E+00
          1   -1    0    0  501    0  0.00000000000E+00  0.00000000000E+00  0.47297594459E+03  0.47297594459E+03  0.00000000000E+00 0. -1.
         -1   -1    0    0    0  501 -0.00000000000E+00 -0.00000000000E+00 -0.11268373093E+03  0.11268373093E+03  0.00000000000E+00 0.  1.
         25    2    1    2    0    0 -0.17457723935E+03 -0.10356755884E+03  0.17146923453E+03  0.29368900218E+03  0.12509228539E+03 0.  0.
          5    1    3    3  502    0 -0.15604108609E+03 -0.94687946710E+02  0.19157294479E+03  0.26463615282E+03  0.41800000000E+01 0.  1.
         -5    1    3    3    0  502 -0.18536153265E+02 -0.88796121339E+01 -0.20103710267E+02  0.29052849361E+02  0.41800000000E+01 0.  1.
        -11    1    1    2    0    0  0.92396918714E+02  0.61559299308E+02  0.16100598557E+03  0.19557521650E+03  0.00000000000E+00 0.  1.
         11    1    1    2    0    0  0.82180320639E+02  0.42008259537E+02  0.27816993555E+02  0.96395456844E+02  0.00000000000E+00 0. -1.
</event>
<event>
 7    1  0.2842702E-009  0.1656837E+03  0.7561462E-02  0.1182425E+00
          1   -1    0    0  501    0  0.00000000000E+00  0.00000000000E+00  0.97417684413E+02  0.97417684413E+02  0.00000000000E+00 0. -1.
         -1   -1    0    0    0  501 -0.00000000000E+00 -0.00000000000E+00 -0.30783338635E+03  0.30783338635E+03  0.00000000000E+00 0.  1.
         25    2    1    2    0    0  0.22386900321E+02  0.12867602321E+03 -0.73399944217E+02  0.19517984879E+03  0.12509568060E+03 0.  0.
          5    1    3    3  502    0 -0.38824763646E+02  0.14014099085E+01 -0.10108165000E+02  0.40360545358E+02  0.41800000000E+01 0. -1.
         -5    1    3    3    0  502  0.61211663967E+02  0.12727461330E+03 -0.63291779217E+02  0.15481930343E+03  0.41800000000E+01 0. -1.
        -11    1    1    2    0    0 -0.22132976098E+02 -0.13896167623E+03 -0.14084613334E+03  0.19909256482E+03  0.00000000000E+00 0.  1.
         11    1    1    2    0    0 -0.25392422296E+00  0.10285653014E+02  0.38303756232E+01  0.10978657152E+02  0.00000000000E+00 0. -1.
</event>
<event>
 7    1  0.3086938E-009  0.1141900E+03  0.7561462E-02  0.1253002E+00
         -1   -1    0    0    0  501 -0.00000000000E+00  0.00000000000E+00  0.49050775896E+02  0.49050775896E+02  0.00000000000E+00 0.  1.
          1   -1    0    0  501    0  0.00000000000E+00 -0.00000000000E+00 -0.43462478573E+03  0.43462478573E+03  0.00000000000E+00 0. -1.
         25    2    1    2    0    0  0.68623167251E+02 -0.13401027763E+02 -0.97224678165E+02  0.17317296229E+03  0.12509000837E+03 0.  0.
          5    1    3    3  502    0  0.42421155681E+02 -0.63627315348E+02 -0.86202000925E+02  0.11530935379E+03  0.41800000000E+01 0.  1.
         -5    1    3    3    0  502  0.26202011570E+02  0.50226287586E+02 -0.11022677240E+02  0.57863608499E+02  0.41800000000E+01 0.  1.
        -11    1    1    2    0    0 -0.38419319573E+02 -0.25222296936E+02 -0.22877670221E+03  0.23334735450E+03  0.00000000000E+00 0. -1.
         11    1    1    2    0    0 -0.30203847678E+02  0.38623324699E+02 -0.59572629466E+02  0.77155244843E+02  0.00000000000E+00 0.  1.
</event>
<event>
 7    1  0.2842702E-009  0.1207537E+03  0.7561462E-02  0.1241859E+00
         -2   -1    0    0    0  501 -0.00000000000E+00  0.00000000000E+00  0.14127011128E+02  0.14127011128E+02  0.00000000000E+00 0.  1.
          2   -1    0    0  501    0  0.00000000000E+00 -0.00000000000E+00 -0.14637775364E+04  0.14637775364E+04  0.00000000000E+00 0. -1.
         25    2    1    2    0    0  0.45020026292E+02 -0.52761028283E+02 -0.11240105758E+04  0.11330740135E+04  0.12508563730E+03 0.  0.
          5    1    3    3  502    0  0.71020242635E+02 -0.69060969558E+02 -0.59898087313E+03  0.60713165883E+03  0.41800000000E+01 0. -1.
         -5    1    3    3    0  502 -0.26000216344E+02  0.16299941276E+02 -0.52502970267E+03  0.52594235466E+03  0.41800000000E+01 0. -1.
        -11    1    1    2    0    0  0.25607161373E+02  0.24103833030E+02 -0.74574082594E+02  0.82450077472E+02  0.00000000000E+00 0.  1.
         11    1    1    2    0    0 -0.70627187665E+02  0.28657195253E+02 -0.25106586687E+03  0.26238045656E+03  0.00000000000E+00 0. -1.
</event>
<event>
 7    1  0.2842702E-009  0.1477046E+03  0.7561462E-02  0.1203322E+00
          1   -1    0    0  501    0  0.00000000000E+00  0.00000000000E+00  0.14943669954E+03  0.14943669954E+03  0.00000000000E+00 0. -1.
         -1   -1    0    0    0  501 -0.00000000000E+00 -0.00000000000E+00 -0.19992081312E+03  0.19992081312E+03  0.00000000000E+00 0.  1.
         25    2    1    2    0    0 -0.11601701987E+03 -0.28656256605E+02 -0.87711743243E+02  0.19395959437E+03  0.12508334983E+03 0.  0.
          5    1    3    3  502    0 -0.78885275950E+02 -0.76751013395E+02 -0.70111921951E+02  0.13056323686E+03  0.41800000000E+01 0. -1.
         -5    1    3    3    0  502 -0.37131743917E+02  0.48094756790E+02 -0.17599821292E+02  0.63396357518E+02  0.41800000000E+01 0. -1.
        -11    1    1    2    0    0  0.77468163397E+02  0.19962233279E+01  0.64802618122E+02  0.10101821897E+03  0.00000000000E+00 0. -1.
         11    1    1    2    0    0  0.38548856470E+02  0.26660033277E+02 -0.27574988462E+02  0.54379699320E+02  0.00000000000E+00 0.  1.
</event>
<event>
 7    1  0.2842702E-009  0.1150554E+03  0.7561462E-02  0.1251485E+00
         -1   -1    0    0    0  501 -0.00000000000E+00  0.00000000000E+00  0.62622774361E+02  0.62622774361E+02  0.00000000000E+00 0.  1.
          1   -1    0    0  501    0  0.00000000000E+00 -0.00000000000E+00 -0.26516606222E+03  0.26516606222E+03  0.00000000000E+00 0. -1.
         25    2    1    2    0    0 -0.42162654553E+02 -0.18128828926E+02 -0.18662614637E+03  0.22930911151E+03  0.12508799396E+03 0.  0.
          5    1    3    3  502    0 -0.30185598680E+02 -0.71734104535E+02 -0.11573960993E+03  0.13953523508E+03  0.41800000000E+01 0. -1.
         -5    1    3    3    0  502 -0.11977055872E+02  0.53605275609E+02 -0.70886536438E+02  0.89773876426E+02  0.41800000000E+01 0. -1.
        -11    1    1    2    0    0  0.21498861124E+02 -0.34441444825E+02 -0.88465630971E+01  0.41553289038E+02  0.00000000000E+00 0. -1.
         11    1    1    2    0    0  0.20663793428E+02  0.52570273751E+02 -0.70705783896E+01  0.56926436037E+02  0.00000000000E+00 0.  1.
</event>
<event>
 7    1  0.2842702E-009  0.9508028E+02  0.7561462E-02  0.1290995E+00
          1   -1    0    0  501    0  0.00000000000E+00  0.00000000000E+00  0.42941466202E+03  0.42941466202E+03  0.00000000000E+00 0. -1.
         -1   -1    0    0    0  501 -0.00000000000E+00 -0.00000000000E+00 -0.36477974163E+02  0.36477974163E+02  0.00000000000E+00 0.  1.
         25    2    1    2    0    0  0.16398612825E+02 -0.36735651303E+02  0.30753117167E+03  0.33442628923E+03  0.12508836398E+03 0.  0.
          5    1    3    3  502    0 -0.51640889155E+02  0.46086086827E-01  0.15365049103E+03  0.16215032948E+03  0.41800000000E+01 0.  1.
         -5    1    3    3    0  502  0.68039501980E+02 -0.36781737390E+02  0.15388068063E+03  0.17227595975E+03  0.41800000000E+01 0.  1.
        -11    1    1    2    0    0 -0.30853195894E+02  0.13837887085E+02  0.96462430177E+02  0.10221745082E+03  0.00000000000E+00 0. -1.
         11    1    1    2    0    0  0.14454583069E+02  0.22897764218E+02 -0.11056913991E+02  0.29248896131E+02  0.00000000000E+00 0.  1.
</event>
<event>
 7    1  0.2842702E-009  0.1268997E+03  0.7561462E-02  0.1232130E+00
         -2   -1    0    0    0  501 -0.00000000000E+00  0.00000000000E+00  0.41263031628E+02  0.41263031628E+02  0.00000000000E+00 0.  1.
          2   -1    0    0  501    0  0.00000000000E+00 -0.00000000000E+00 -0.55949312324E+03  0.55949312324E+03  0.00000000000E+00 0. -1.
         25    2    1    2    0    0  0.59554087603E+02 -0.77712087415E+02 -0.36587815434E+03  0.39887444775E+03  0.12509253920E+03 0.  0.
          5    1    3    3  502    0  0.36793101953E+02 -0.10961232173E+03 -0.23096918675E+03  0.25832698476E+03  0.41800000000E+01 0.  1.
         -5    1    3    3    0  502  0.22760985650E+02  0.31900234313E+02 -0.13490896759E+03  0.14054746299E+03  0.41800000000E+01 0.  1.
        -11    1    1    2    0    0 -0.19816365544E+02  0.16886658306E+02  0.68180240913E+01  0.26913435764E+02  0.00000000000E+00 0.  1.
         11    1    1    2    0    0 -0.39737722060E+02  0.60825429109E+02 -0.15916996136E+03  0.17496827136E+03  0.00000000000E+00 0. -1.
</event>
<event>
 7    1  0.2856796E-009  0.2098405E+03  0.7561462E-02  0.1141692E+00
         -1   -1    0    0    0  501 -0.00000000000E+00  0.00000000000E+00  0.45960834450E+03  0.45960834450E+03  0.00000000000E+00 0.  1.
          1   -1    0    0  501    0  0.00000000000E+00 -0.00000000000E+00 -0.10220564728E+03  0.10220564728E+03  0.00000000000E+00 0. -1.
         25    2    1    2    0    0 -0.10593592365E+03 -0.14895414254E+03  0.13356566466E+03  0.25863838486E+03  0.12507705963E+03 0.  0.
          5    1    3    3  502    0 -0.12862615392E+02 -0.11637263567E+03  0.43345820974E+02  0.12491745196E+03  0.41800000000E+01 0.  1.
         -5    1    3    3    0  502 -0.93073308258E+02 -0.32581506867E+02  0.90219843690E+02  0.13372093290E+03  0.41800000000E+01 0.  1.
        -11    1    1    2    0    0  0.22202454617E+02  0.10865248711E+03  0.10964019394E+03  0.15594641411E+03  0.00000000000E+00 0. -1.
         11    1    1    2    0    0  0.83733469034E+02  0.40301655431E+02  0.11419683862E+03  0.14722919282E+03  0.00000000000E+00 0.  1.
</event>
<event>
 7    1  0.2842702E-009  0.8867619E+02  0.7561462E-02  0.1306090E+00
         -1   -1    0    0    0  501 -0.00000000000E+00  0.00000000000E+00  0.18277235916E+02  0.18277235916E+02  0.00000000000E+00 0.  1.
          1   -1    0    0  501    0  0.00000000000E+00 -0.00000000000E+00 -0.69621182313E+03  0.69621182313E+03  0.00000000000E+00 0. -1.
         25    2    1    2    0    0  0.49953865707E+01  0.15955927635E+02 -0.43449575657E+03  0.45245252569E+03  0.12508868859E+03 0.  0.
          5    1    3    3  502    0  0.31615602765E+02  0.51175043341E+02 -0.36546081905E+03  0.37040182783E+03  0.41800000000E+01 0. -1.
         -5    1    3    3    0  502 -0.26620216194E+02 -0.35219115706E+02 -0.69034937522E+02  0.82050697864E+02  0.41800000000E+01 0. -1.
        -11    1    1    2    0    0  0.32813569679E+02 -0.10826181541E+02 -0.31713895035E+02  0.46901041567E+02  0.00000000000E+00 0.  1.
         11    1    1    2    0    0 -0.37808956249E+02 -0.51297460939E+01 -0.21172493561E+03  0.21513549178E+03  0.00000000000E+00 0. -1.
</event>
<event>
 7    1  0.2842702E-009  0.2272392E+03  0.7561462E-02  0.1128598E+00
         -2   -1    0    0    0  501 -0.00000000000E+00  0.00000000000E+00  0.11024455524E+03  0.11024455524E+03  0.00000000000E+00 0.  1.
          2   -1    0    0  501    0  0.00000000000E+00 -0.00000000000E+00 -0.54488689330E+03  0.54488689330E+03  0.00000000000E+00 0. -1.
         25    2    1    2    0    0 -0.17300090318E+03  0.12593063833E+03 -0.16187720263E+03  0.29603749153E+03  0.12508448942E+03 0.  0.
          5    1    3    3  502    0 -0.29789413000E+02 -0.66446903828E+01 -0.77467647984E+02  0.83368278868E+02  0.41800000000E+01 0. -1.
         -5    1    3    3    0  502 -0.14321149018E+03  0.13257532871E+03 -0.84409554645E+02  0.21266921267E+03  0.41800000000E+01 0. -1.
        -11    1    1    2    0    0  0.11460395404E+03 -0.33963939489E+02 -0.17964808993E+03  0.21578010029E+03  0.00000000000E+00 0. -1.
         11    1    1    2    0    0  0.58396949136E+02 -0.91966698837E+02 -0.93117045498E+02  0.14331385671E+03  0.00000000000E+00 0.  1.
</event>
<event>
 7    1  0.2842702E-009  0.1485226E+03  0.7561462E-02  0.1202300E+00
          2   -1    0    0  501    0  0.00000000000E+00  0.00000000000E+00  0.19302855524E+04  0.19302855524E+04  0.00000000000E+00 0. -1.
         -2   -1    0    0    0  501 -0.00000000000E+00 -0.00000000000E+00 -0.13394025578E+02  0.13394025578E+02  0.00000000000E+00 0.  1.
         25    2    1    2    0    0 -0.46494787022E+01  0.10541329149E+03  0.14010401194E+04  0.14105654278E+04  0.12509128721E+03 0.  0.
          5    1    3    3  502    0 -0.63437072399E+02  0.67310629300E+02  0.86837530194E+03  0.87329726920E+03  0.41800000000E+01 0.  1.
         -5    1    3    3    0  502  0.58787593697E+02  0.38102662195E+02  0.53266481750E+03  0.53726815860E+03  0.41800000000E+01 0.  1.
        -11    1    1    2    0    0  0.42396574002E+02 -0.37606625620E+02  0.23512494568E+03  0.24185836322E+03  0.00000000000E+00 0.  1.
         11    1    1    2    0    0 -0.37747095300E+02 -0.67806665875E+02  0.28072646173E+03  0.29125578699E+03  0.00000000000E+00 0. -1.
</event>
<event>
 7    1  0.2842702E-009  0.2582375E+03  0.7561462E-02  0.1108207E+00
          1   -1    0    0  501    0  0.00000000000E+00  0.00000000000E+00  0.11729215031E+04  0.11729215031E+04  0.00000000000E+00 0. -1.
         -1   -1    0    0    0  501 -0.00000000000E+00 -0.00000000000E+00 -0.62046139674E+02  0.62046139674E+02  0.00000000000E+00 0.  1.
         25    2    1    2    0    0 -0.20356044920E+03 -0.13825810136E+03  0.52778285421E+03  0.59561264954E+03  0.12509007963E+03 0.  0.
          5    1    3    3  502    0 -0.50655762332E+02 -0.95260278728E+02  0.14197650634E+03  0.17836851660E+03  0.41800000000E+01 0.  1.
         -5    1    3    3    0  502 -0.15290468687E+03 -0.42997822634E+02  0.38580634787E+03  0.41724413294E+03  0.41800000000E+01 0.  1.
        -11    1    1    2    0    0  0.87011802641E+02  0.84403269123E+02  0.18593992252E+03  0.22196535861E+03  0.00000000000E+00 0.  1.
         11    1    1    2    0    0  0.11654864656E+03  0.53854832238E+02  0.39715258670E+03  0.41738963463E+03  0.00000000000E+00 0. -1.
</event>
<event>
 7    1  0.2842702E-009  0.1071700E+03  0.7561462E-02  0.1265902E+00
          1   -1    0    0  501    0  0.00000000000E+00  0.00000000000E+00  0.63086205972E+02  0.63086205972E+02  0.00000000000E+00 0. -1.
         -1   -1    0    0    0  501 -0.00000000000E+00 -0.00000000000E+00 -0.20424592067E+03  0.20424592067E+03  0.00000000000E+00 0.  1.
         25    2    1    2    0    0 -0.16407714421E+02 -0.37210944311E+01 -0.11706405656E+03  0.17214730200E+03  0.12509052967E+03 0.  0.
          5    1    3    3  502    0  0.19782802497E+02  0.52751466162E+02 -0.36615284324E+02  0.67321823379E+02  0.41800000000E+01 0. -1.
         -5    1    3    3    0  502 -0.36190516918E+02 -0.56472560593E+02 -0.80448772234E+02  0.10482547862E+03  0.41800000000E+01 0. -1.
        -11    1    1    2    0    0 -0.28371741905E+02 -0.24689715291E+02 -0.18333657489E+02  0.41840898375E+02  0.00000000000E+00 0. -1.
         11    1    1    2    0    0  0.44779456326E+02  0.28410809723E+02 -0.57620006522E+01  0.53343926266E+02  0.00000000000E+00 0.  1.
</event>
<event>
 7    1  0.2842702E-009  0.9050949E+02  0.7561462E-02  0.1301623E+00
         -3   -1    0    0    0  501 -0.00000000000E+00  0.00000000000E+00  0.90332982828E+03  0.90332982828E+03  0.00000000000E+00 0.  1.
          3   -1    0    0  501    0  0.00000000000E+00 -0.00000000000E+00 -0.17042418832E+02  0.17042418832E+02  0.00000000000E+00 0. -1.
         25    2    1    2    0    0 -0.30756781459E+02 -0.26702027930E+02  0.66570822942E+03  0.67858238366E+03  0.12509047444E+03 0.  0.
          5    1    3    3  502    0 -0.97646579565E+01  0.46369369809E+02  0.15223219541E+03  0.15949163213E+03  0.41800000000E+01 0.  1.
         -5    1    3    3    0  502 -0.20992123502E+02 -0.73071397739E+02  0.51347603401E+03  0.51909075153E+03  0.41800000000E+01 0.  1.
        -11    1    1    2    0    0  0.10812115218E+02  0.34300140269E+02  0.21722859896E+03  0.22018552556E+03  0.00000000000E+00 0.  1.
         11    1    1    2    0    0  0.19944666241E+02 -0.75981123392E+01  0.33505810720E+01  0.21604337900E+02  0.00000000000E+00 0. -1.
</event>
<event>
 7    1  0.2842702E-009  0.1381967E+03  0.7561462E-02  0.1215776E+00
          2   -1    0    0  501    0  0.00000000000E+00  0.00000000000E+00  0.20536434617E+04  0.20536434617E+04  0.00000000000E+00 0. -1.
         -2   -1    0    0    0  501 -0.00000000000E+00 -0.00000000000E+00 -0.12633863335E+02  0.12633863335E+02  0.00000000000E+00 0.  1.
         25    2    1    2    0    0  0.91377358910E+02 -0.41966211907E+02  0.14807239699E+04  0.14893953218E+04  0.12507583609E+03 0.  0.
          5    1    3    3  502    0  0.57655141549E+02  0.31024617476E+02  0.98437049497E+03  0.98655429957E+03  0.41800000000E+01 0. -1.
         -5    1    3    3    0  502  0.33722217361E+02 -0.72990829383E+02  0.49635347493E+03  0.50284102219E+03  0.41800000000E+01 0. -1.
        -11    1    1    2    0    0 -0.30264168253E+02  0.59449845953E+02  0.19469620556E+03  0.20580771736E+03  0.00000000000E+00 0.  1.
         11    1    1    2    0    0 -0.61113190657E+02 -0.17483634046E+02  0.36558942286E+03  0.37107428588E+03  0.00000000000E+00 0. -1.
</event>
<event>
 7    1  0.2842702E-009  0.6094569E+02  0.7561462E-02  0.1393905E+00
          1   -1    0    0  501    0  0.00000000000E+00  0.00000000000E+00  0.12506201892E+03  0.12506201892E+03  0.00000000000E+00 0. -1.
         -1   -1    0    0    0  501 -0.00000000000E+00 -0.00000000000E+00 -0.11870894990E+03  0.11870894990E+03  0.00000000000E+00 0.  1.
         25    2    1    2    0    0  0.12997410638E+02  0.33381517200E+02 -0.39220286986E+02  0.13591883858E+03  0.12510971743E+03 0.  0.
          5    1    3    3  502    0 -0.62799173828E+00 -0.10212208560E+02 -0.76203686659E+02  0.77001024913E+02  0.41800000000E+01 0. -1.
         -5    1    3    3    0  502  0.13625402376E+02  0.43593725760E+02  0.36983399673E+02  0.58917813663E+02  0.41800000000E+01 0. -1.
        -11    1    1    2    0    0 -0.25850558171E+02  0.33430250088E+01 -0.19142842856E+02  0.32340000102E+02  0.00000000000E+00 0.  1.
         11    1    1    2    0    0  0.12853147533E+02 -0.36724542208E+02  0.64716198867E+02  0.75512130136E+02  0.00000000000E+00 0. -1.
</event>
<event>
 7    1  0.2842702E-009  0.1067740E+03  0.7561462E-02  0.1266663E+00
          2   -1    0    0  501    0  0.00000000000E+00  0.00000000000E+00  0.26894737854E+03  0.26894737854E+03  0.00000000000E+00 0. -1.
         -2   -1    0    0    0  501 -0.00000000000E+00 -0.00000000000E+00 -0.11192811915E+03  0.11192811915E+03  0.00000000000E+00 0.  1.
         25    2    1    2    0    0  0.30964863874E+02  0.77699022865E+02 -0.39703800962E+02  0.15562896636E+03  0.12509205574E+03 0.  0.
          5    1    3    3  502    0  0.14032297860E+02 -0.23209100581E+02  0.22782062971E+02  0.35665985563E+02  0.41800000000E+01 0. -1.
         -5    1    3    3    0  502  0.16932566014E+02  0.10090812345E+03 -0.62485863933E+02  0.11996298079E+03  0.41800000000E+01 0. -1.
        -11    1    1    2    0    0 -0.15904836962E+02 -0.44166036704E+02  0.32834854564E+02  0.57286388533E+02  0.00000000000E+00 0.  1.
         11    1    1    2    0    0 -0.15060026912E+02 -0.33532986161E+02  0.16388820579E+03  0.16796014280E+03  0.00000000000E+00 0. -1.
</event>
<event>
 7    1  0.2842702E-009  0.1502078E+03  0.7561462E-02  0.1200218E+00
          2   -1    0    0  501    0  0.00000000000E+00  0.00000000000E+00  0.11179993556E+03  0.11179993556E+03  0.00000000000E+00 0. -1.
         -2   -1    0    0    0  501 -0.00000000000E+00 -0.00000000000E+00 -0.39807363484E+03  0.39807363484E+03  0.00000000000E+00 0.  1.
         25    2    1    2    0    0 -0.60940428583E+02 -0.12345466789E+03 -0.84375920346E+01  0.18620396382E+03  0.12508370127E+03 0.  0.
          5    1    3    3  502    0 -0.56608950158E+02 -0.42217888844E+02  0.49414618681E+02  0.86291368722E+02  0.41800000000E+01 0. -1.
         -5    1    3    3    0  502 -0.43314784249E+01 -0.81236779043E+02 -0.57852210716E+02  0.99912595099E+02  0.41800000000E+01 0. -1.
        -11    1    1    2    0    0 -0.40587266167E+01  0.49862066903E+02 -0.33137460320E+02  0.60006585089E+02  0.00000000000E+00 0.  1.
         11    1    1    2    0    0  0.64999155200E+02  0.73592600985E+02 -0.24469864692E+03  0.26366302149E+03  0.00000000000E+00 0. -1.
</event>
<event>
 7    1  0.2842702E-009  0.1461426E+03  0.7561462E-02  0.1205295E+00
          2   -1    0    0  501    0  0.00000000000E+00  0.00000000000E+00  0.44924844849E+03  0.44924844849E+03  0.00000000000E+00 0. -1.
         -2   -1    0    0    0  501 -0.00000000000E+00 -0.00000000000E+00 -0.61140693859E+02  0.61140693859E+02  0.00000000000E+00 0.  1.
         25    2    1    2    0    0  0.11429752860E+03  0.28334933421E+02  0.26488835464E+03  0.31572258184E+03  0.12509242489E+03 0.  0.
          5    1    3    3  502    0  0.12490002408E+03 -0.12982745754E+02  0.22200351228E+03  0.25509135534E+03  0.41800000000E+01 0. -1.
         -5    1    3    3    0  502 -0.10602495486E+02  0.41317679175E+02  0.42884842354E+02  0.60631226498E+02  0.41800000000E+01 0. -1.
        -11    1    1    2    0    0 -0.18039144062E+02 -0.20347936826E+02  0.87592451290E+02  0.91716338645E+02  0.00000000000E+00 0. -1.
         11    1    1    2    0    0 -0.96258384536E+02 -0.79869965950E+01  0.35626948703E+02  0.10295022186E+03  0.00000000000E+00 0.  1.
</event>
<event>
 7    1  0.2842702E-009  0.1140891E+03  0.7561462E-02  0.1253179E+00
          1   -1    0    0  501    0  0.00000000000E+00  0.00000000000E+00  0.37567088504E+03  0.37567088504E+03  0.00000000000E+00 0. -1.
         -1   -1    0    0    0  501 -0.00000000000E+00 -0.00000000000E+00 -0.56136879176E+02  0.56136879176E+02  0.00000000000E+00 0.  1.
         25    2    1    2    0    0 -0.64144041911E+02  0.63118027628E+02  0.22658622286E+03  0.27401837306E+03  0.12508560614E+03 0.  0.
          5    1    3    3  502    0 -0.14653281628E+02  0.54330836747E+02  0.17713721346E+02  0.59142259071E+02  0.41800000000E+01 0. -1.
         -5    1    3    3    0  502 -0.49490760284E+02  0.87871908816E+01  0.20887250151E+03  0.21487611399E+03  0.41800000000E+01 0. -1.
        -11    1    1    2    0    0  0.27191506978E+02 -0.77137759659E+02  0.84049979905E+02  0.11727749630E+03  0.00000000000E+00 0.  1.
         11    1    1    2    0    0  0.36952534934E+02  0.14019732031E+02  0.88978031007E+01  0.40511894849E+02  0.00000000000E+00 0. -1.
</event>
<event>
 7    1  0.2842702E-009  0.1051849E+03  0.7561462E-02  0.1269756E+00
          2   -1    0    0  501    0  0.00000000000E+00  0.00000000000E+00  0.36905022636E+03  0.36905022636E+03  0.00000000000E+00 0. -1.
         -2   -1    0    0    0  501 -0.00000000000E+00 -0.00000000000E+00 -0.58953002454E+02  0.58953002454E+02  0.00000000000E+00 0.  1.
         25    2    1    2    0    0 -0.39210576955E+02  0.12977092924E+02  0.29961519248E+03  0.32729638730E+03  0.12509111593E+03 0.  0.
          5    1    3    3  502    0 -0.69398889125E+02  0.35536261919E+02  0.11615541736E+03  0.13995922658E+03  0.41800000000E+01 0. -1.
         -5    1    3    3    0  502  0.30188312170E+02 -0.22559168995E+02  0.18345977512E+03  0.18733716072E+03  0.41800000000E+01 0. -1.
        -11    1    1    2    0    0  0.49421007731E+02 -0.41211017369E+02  0.22780319044E+02  0.68262192270E+02  0.00000000000E+00 0. -1.
         11    1    1    2    0    0 -0.10210430776E+02  0.28233924445E+02 -0.12298287622E+02  0.32444649245E+02  0.00000000000E+00 0.  1.
</event>
<event>
 7    1  0.2842703E-009  0.1038529E+03  0.7561462E-02  0.1272396E+00
          1   -1    0    0  501    0  0.00000000000E+00  0.00000000000E+00  0.24089007140E+03  0.24089007140E+03  0.00000000000E+00 0. -1.
         -1   -1    0    0    0  501 -0.00000000000E+00 -0.00000000000E+00 -0.69579260285E+02  0.69579260285E+02  0.00000000000E+00 0.  1.
         25    2    1    2    0    0  0.26034214526E+02  0.20415513434E+01  0.16279149334E+02  0.12881941158E+03  0.12508989503E+03 0.  0.
          5    1    3    3  502    0 -0.44642744678E+02  0.27316465135E+02  0.92821050965E+01  0.53317856248E+02  0.41800000000E+01 0. -1.
         -5    1    3    3    0  502  0.70676959204E+02 -0.25274913792E+02  0.69970442376E+01  0.75501555332E+02  0.41800000000E+01 0. -1.
        -11    1    1    2    0    0 -0.13620612121E+02 -0.38856149565E+02  0.30616364919E+02  0.51309679734E+02  0.00000000000E+00 0.  1.
         11    1    1    2    0    0 -0.12413602405E+02  0.36814598221E+02  0.12441529686E+03  0.13034024037E+03  0.00000000000E+00 0. -1.
</event>
<event>
 7    1  0.2842702E-009  0.1378845E+03  0.7561462E-02  0.1216204E+00
         -1   -1    0    0    0  501 -0.00000000000E+00  0.00000000000E+00  0.37887269186E+02  0.37887269186E+02  0.00000000000E+00 0.  1.
          1   -1    0    0  501    0  0.00000000000E+00 -0.00000000000E+00 -0.68794149918E+03  0.68794149918E+03  0.00000000000E+00 0. -1.
         25    2    1    2    0    0 -0.25735362620E+01 -0.88298072653E+02 -0.16813937847E+03  0.22742520993E+03  0.12509277676E+03 0.  0.
          5    1    3    3  502    0 -0.15747695370E+02 -0.11629913223E+03 -0.10745349269E+03  0.15917664263E+03  0.41800000000E+01 0. -1.
         -5    1    3    3    0  502  0.13174159108E+02  0.28001059580E+02 -0.60685885782E+02  0.68248567303E+02  0.41800000000E+01 0. -1.
        -11    1    1    2    0    0  0.22401385732E+02 -0.11623796877E+02 -0.91383108310E+02  0.94804046438E+02  0.00000000000E+00 0.  1.
         11    1    1    2    0    0 -0.19827849470E+02  0.99921869530E+02 -0.39053174322E+03  0.40359951200E+03  0.00000000000E+00 0. -1.
</event>
<event>
 7    1  0.2842702E-009  0.1082446E+03  0.7561462E-02  0.1263856E+00
         -1   -1    0    0    0  501 -0.00000000000E+00  0.00000000000E+00  0.14488954987E+03  0.14488954987E+03  0.00000000000E+00 0.  1.
          1   -1    0    0  501    0  0.00000000000E+00 -0.00000000000E+00 -0.12146241944E+03  0.12146241944E+03  0.00000000000E+00 0. -1.
         25    2    1    2    0    0  0.62997955803E+02 -0.22449813533E+02 -0.23552633097E+02  0.14378870480E+03  0.12509088112E+03 0.  0.
          5    1    3    3  502    0  0.24777223007E+02  0.51294209005E+02  0.82522991075E+00  0.57124076026E+02  0.41800000000E+01 0. -1.
         -5    1    3    3    0  502  0.38220732796E+02 -0.73744022538E+02 -0.24377863008E+02  0.86664628773E+02  0.41800000000E+01 0. -1.
        -11    1    1    2    0    0 -0.22883294157E+01  0.14846497489E+02 -0.24335664889E+02  0.28598593056E+02  0.00000000000E+00 0. -1.
         11    1    1    2    0    0 -0.60709626388E+02  0.76033160441E+01  0.71315428419E+02  0.93964671454E+02  0.00000000000E+00 0.  1.
</event>
<event>
 7    1  0.2842702E-009  0.1049774E+03  0.7561462E-02  0.1270164E+00
         -1   -1    0    0    0  501 -0.00000000000E+00  0.00000000000E+00  0.32963138650E+02  0.32963138650E+02  0.00000000000E+00 0.  1.
          1   -1    0    0  501    0  0.00000000000E+00 -0.00000000000E+00 -0.64485891037E+03  0.64485891037E+03  0.00000000000E+00 0. -1.
         25    2    1    2    0    0  0.79445397578E+02  0.34090051327E+02 -0.42600544586E+03  0.45232961136E+03  0.12509090539E+03 0.  0.
          5    1    3    3  502    0  0.43859138143E+02  0.12633442016E+02 -0.31487482686E+02  0.55607210160E+02  0.41800000000E+01 0.  1.
         -5    1    3    3    0  502  0.35586259434E+02  0.21456609311E+02 -0.39451796318E+03  0.39672240120E+03  0.41800000000E+01 0.  1.
        -11    1    1    2    0    0 -0.26407125940E+02  0.29472930915E+02 -0.92981712560E+02  0.10105240634E+03  0.00000000000E+00 0. -1.
         11    1    1    2    0    0 -0.53038271638E+02 -0.63562982242E+02 -0.92908613297E+02  0.12444003132E+03  0.00000000000E+00 0.  1.
</event>
<event>
 7    1  0.2842702E-009  0.1878870E+03  0.7561462E-02  0.1160381E+00
          3   -1    0    0  501    0  0.00000000000E+00  0.00000000000E+00  0.35818068031E+03  0.35818068031E+03  0.00000000000E+00 0. -1.
         -3   -1    0    0    0  501 -0.00000000000E+00 -0.00000000000E+00 -0.11851651769E+03  0.11851651769E+03  0.00000000000E+00 0.  1.
         25    2    1    2    0    0 -0.16349666056E+03  0.41374913483E+02  0.70408073035E+02  0.22146106559E+03  0.12507863664E+03 0.  0.
          5    1    3    3  502    0 -0.16026073604E+03  0.65102882687E+02  0.31936457642E+02  0.17595254638E+03  0.41800000000E+01 0. -1.
         -5    1    3    3    0  502 -0.32359245190E+01 -0.23727969204E+02  0.38471615392E+02  0.45508519213E+02  0.41800000000E+01 0. -1.
        -11    1    1    2    0    0  0.49195535005E+02 -0.41144121179E+02  0.19875677637E+02  0.67142251478E+02  0.00000000000E+00 0. -1.
         11    1    1    2    0    0  0.11430112556E+03 -0.23079230433E+00  0.14938041195E+03  0.18809388093E+03  0.00000000000E+00 0.  1.
</event>
<event>
 7    1  0.2842702E-009  0.7604833E+02  0.7561462E-02  0.1340655E+00
          1   -1    0    0  501    0  0.00000000000E+00  0.00000000000E+00  0.17102879378E+03  0.17102879378E+03  0.00000000000E+00 0. -1.
         -1   -1    0    0    0  501 -0.00000000000E+00 -0.00000000000E+00 -0.78673120007E+02  0.78673120007E+02  0.00000000000E+00 0.  1.
         25    2    1    2    0    0 -0.28246621704E+02 -0.14969168533E+02  0.82438612977E+02  0.15318628694E+03  0.12509183008E+03 0.  0.
          5    1    3    3  502    0  0.13844850366E+02 -0.82075299827E+01 -0.29204915189E+02  0.33607185263E+02  0.41800000000E+01 0. -1.
         -5    1    3    3    0  502 -0.42091472070E+02 -0.67616385507E+01  0.11164352817E+03  0.11957910168E+03  0.41800000000E+01 0. -1.
        -11    1    1    2    0    0 -0.21537322166E+02  0.33234979966E+02 -0.82642356792E+01  0.40456368235E+02  0.00000000000E+00 0.  1.
         11    1    1    2    0    0  0.49783943870E+02 -0.18265811432E+02  0.18181296475E+02  0.56059258611E+02  0.00000000000E+00 0. -1.
</event>
<event>
 7    1  0.2842702E-009  0.1575536E+03  0.7561462E-02  0.1191487E+00
          2   -1    0    0  501    0  0.00000000000E+00  0.00000000000E+00  0.16927557982E+03  0.16927557982E+03  0.00000000000E+00 0. -1.
         -2   -1    0    0    0  501 -0.00000000000E+00 -0.00000000000E+00 -0.17144081717E+03  0.17144081717E+03  0.00000000000E+00 0.  1.
         25    2    1    2    0    0  0.51136834760E+02  0.11958230338E+03 -0.15443750240E+02  0.18109955163E+03  0.12507451790E+03 0.  0.
          5    1    3    3  502    0  0.14356823766E+01  0.10798550433E+03 -0.50246434512E+02  0.11918517907E+03  0.41800000000E+01 0.  1.
         -5    1    3    3    0  502  0.49701152384E+02  0.11596799048E+02  0.34802684272E+02  0.61914372556E+02  0.41800000000E+01 0.  1.
        -11    1    1    2    0    0  0.26794699868E+01 -0.97687895642E+02  0.23778866570E+02  0.10057603596E+03  0.00000000000E+00 0.  1.
         11    1    1    2    0    0 -0.53816304747E+02 -0.21894407738E+02 -0.10500353684E+02  0.59040809398E+02  0.00000000000E+00 0. -1.
</event>
<event>
 7    1  0.2842702E-009  0.8697502E+02  0.7561462E-02  0.1310347E+00
          2   -1    0    0  501    0  0.00000000000E+00  0.00000000000E+00  0.14409350180E+03  0.14409350180E+03  0.00000000000E+00 0. -1.
         -2   -1    0    0    0  501 -0.00000000000E+00 -0.00000000000E+00 -0.12730522600E+03  0.12730522600E+03  0.00000000000E+00 0.  1.
         25    2    1    2    0    0 -0.37051526055E+02  0.48754179169E+02  0.62197943118E+02  0.15251859026E+03  0.12507418070E+03 0.  0.
          5    1    3    3  502    0 -0.39686553123E+02  0.29491205277E+02  0.98970512577E+02  0.11071309068E+03  0.41800000000E+01 0. -1.
         -5    1    3    3    0  502  0.26350270679E+01  0.19262973892E+02 -0.36772569459E+02  0.41805499584E+02  0.41800000000E+01 0. -1.
        -11    1    1    2    0    0  0.50267143904E+02  0.36482818907E+01 -0.40422895758E+02  0.64607323257E+02  0.00000000000E+00 0.  1.
         11    1    1    2    0    0 -0.13215617848E+02 -0.52402461060E+02 -0.49867715579E+01  0.54272814289E+02  0.00000000000E+00 0. -1.
</event>
<event>
 7    1  0.2842702E-009  0.3655321E+03  0.7561462E-02  0.1056415E+00
         -2   -1    0    0    0  501 -0.00000000000E+00  0.00000000000E+00  0.12967430456E+03  0.12967430456E+03  0.00000000000E+00 0.  1.
          2   -1    0    0  501    0  0.00000000000E+00 -0.00000000000E+00 -0.19831750850E+04  0.19831750850E+04  0.00000000000E+00 0. -1.
         25    2    1    2    0    0  0.21391406079E+03 -0.28532256700E+03 -0.21739309268E+03  0.43597644912E+03  0.12509002680E+03 0.  0.
          5    1    3    3  502    0  0.95433848470E+02 -0.21686744294E+03 -0.16781861326E+03  0.29037848852E+03  0.41800000000E+01 0. -1.
         -5    1    3    3    0  502  0.11848021232E+03 -0.68455124054E+02 -0.49574479420E+02  0.14559796060E+03  0.41800000000E+01 0. -1.
        -11    1    1    2    0    0 -0.14612321572E+03  0.17860600206E+03 -0.12328448656E+04  0.12542561783E+04  0.00000000000E+00 0.  1.
         11    1    1    2    0    0 -0.67790845071E+02  0.10671656494E+03 -0.40326282215E+03  0.42261676213E+03  0.00000000000E+00 0. -1.
</event>
<event>
 7    1  0.2842702E-009  0.5285810E+02  0.7561462E-02  0.1430508E+00
          1   -1    0    0  501    0  0.00000000000E+00  0.00000000000E+00  0.25107856614E+03  0.25107856614E+03  0.00000000000E+00 0. -1.
         -1   -1    0    0    0  501 -0.00000000000E+00 -0.00000000000E+00 -0.72900345716E+02  0.72900345716E+02  0.00000000000E+00 0.  1.
         25    2    1    2    0    0  0.49207174073E+02  0.46707421334E+01  0.17419555036E+03  0.22007995700E+03  0.12509170994E+03 0.  0.
          5    1    3    3  502    0  0.10495027583E+02 -0.90314916398E+01  0.17803728963E+03  0.17862380116E+03  0.41800000000E+01 0.  1.
         -5    1    3    3    0  502  0.38712146490E+02  0.13702233773E+02 -0.38417392649E+01  0.41456155837E+02  0.41800000000E+01 0.  1.
        -11    1    1    2    0    0 -0.30052752592E+02 -0.64538770180E+01 -0.43157403539E+02  0.52984733152E+02  0.00000000000E+00 0.  1.
         11    1    1    2    0    0 -0.19154421481E+02  0.17831348846E+01  0.47140073602E+02  0.50914221701E+02  0.00000000000E+00 0. -1.
</event>
<event>
 7    1  0.2842702E-009  0.1389154E+03  0.7561462E-02  0.1214796E+00
         -1   -1    0    0    0  501 -0.00000000000E+00  0.00000000000E+00  0.30190575763E+03  0.30190575763E+03  0.00000000000E+00 0.  1.
          1   -1    0    0  501    0  0.00000000000E+00 -0.00000000000E+00 -0.91434477980E+02  0.91434477980E+02  0.00000000000E+00 0. -1.
         25    2    1    2    0    0  0.95590669206E+02  0.47188940111E+02  0.33475706667E+02  0.16772632935E+03  0.12508847474E+03 0.  0.
          5    1    3    3  502    0 -0.11949615416E+02  0.48030123007E+02  0.33837332066E+02  0.60100943969E+02  0.41800000000E+01 0.  1.
         -5    1    3    3    0  502  0.10754028462E+03 -0.84118289552E+00 -0.36162539988E+00  0.10762538538E+03  0.41800000000E+01 0. -1.
        -11    1    1    2    0    0 -0.84341959376E+02 -0.14005031075E+02  0.16941293778E+03  0.18976419708E+03  0.00000000000E+00 0.  1.
         11    1    1    2    0    0 -0.11248709830E+02 -0.33183909036E+02  0.75826352046E+01  0.35849709181E+02  0.00000000000E+00 0. -1.
</event>
<event>
 7    1  0.2842702E-009  0.6715498E+02  0.7561462E-02  0.1370044E+00
         -1   -1    0    0    0  501 -0.00000000000E+00  0.00000000000E+00  0.20561699057E+03  0.20561699057E+03  0.00000000000E+00 0.  1.
          1   -1    0    0  501    0  0.00000000000E+00 -0.00000000000E+00 -0.87184391930E+02  0.87184391930E+02  0.00000000000E+00 0. -1.
         25    2    1    2    0    0 -0.36329930615E+02  0.19557782896E+02 -0.80485783871E+01  0.13196531385E+03  0.12509074192E+03 0.  0.
          5    1    3    3  502    0 -0.42634608644E+02  0.28456123250E+02  0.50610373193E+02  0.72154993447E+02  0.41800000000E+01 0.  1.
         -5    1    3    3    0  502  0.63046780292E+01 -0.88983403541E+01 -0.58658951580E+02  0.59810320402E+02  0.41800000000E+01 0.  1.
        -11    1    1    2    0    0  0.50199522794E+02 -0.39988338972E+01  0.23151998256E+02  0.55425605856E+02  0.00000000000E+00 0. -1.
         11    1    1    2    0    0 -0.13869592179E+02 -0.15558948999E+02  0.10332917877E+03  0.10541046279E+03  0.00000000000E+00 0.  1.
</event>
<event>
 7    1  0.2842702E-009  0.9897512E+02  0.7561462E-02  0.1282466E+00
          2   -1    0    0  501    0  0.00000000000E+00  0.00000000000E+00  0.22557958970E+03  0.22557958970E+03  0.00000000000E+00 0.  1.
         -2   -1    0    0    0  501 -0.00000000000E+00 -0.00000000000E+00 -0.11791520298E+03  0.11791520298E+03  0.00000000000E+00 0. -1.
         25    2    1    2    0    0 -0.53298474136E+02 -0.25320722344E+02  0.16774531899E+03  0.21742880496E+03  0.12511965017E+03 0.  0.
          5    1    3    3  502    0  0.12630043449E+02  0.84337536353E+01 -0.14032653582E+02  0.21095828129E+02  0.41800000000E+01 0. -1.
         -5    1    3    3    0  502 -0.65928517585E+02 -0.33754475979E+02  0.18177797257E+03  0.19633297684E+03  0.41800000000E+01 0. -1.
        -11    1    1    2    0    0  0.75077331960E+02  0.61633946310E+00 -0.54229529437E+02  0.92616561756E+02  0.00000000000E+00 0. -1.
         11    1    1    2    0    0 -0.21778857824E+02  0.24704382881E+02 -0.58514028330E+01  0.33449425956E+02  0.00000000000E+00 0.  1.
</event>
<event>
 7    1  0.2842702E-009  0.9449974E+02  0.7561462E-02  0.1292307E+00
          1   -1    0    0  501    0  0.00000000000E+00  0.00000000000E+00  0.35228551455E+03  0.35228551455E+03  0.00000000000E+00 0. -1.
         -1   -1    0    0    0  501 -0.00000000000E+00 -0.00000000000E+00 -0.37184949061E+02  0.37184949061E+02  0.00000000000E+00 0.  1.
         25    2    1    2    0    0  0.10077796476E+01  0.35725890271E+01  0.11644785403E+03  0.17094420705E+03  0.12509212686E+03 0.  0.
          5    1    3    3  502    0 -0.27213348439E+02 -0.41776398524E+02  0.89392252524E+01  0.50825347564E+02  0.41800000000E+01 0. -1.
         -5    1    3    3    0  502  0.28221128086E+02  0.45348987551E+02  0.10750862878E+03  0.12011885949E+03  0.41800000000E+01 0. -1.
        -11    1    1    2    0    0 -0.10675029170E+02 -0.43252021739E+02  0.65218081572E+02  0.78981591502E+02  0.00000000000E+00 0.  1.
         11    1    1    2    0    0  0.96672495221E+01  0.39679432712E+02  0.13343462989E+03  0.13954466506E+03  0.00000000000E+00 0. -1.
</event>
<event>
 7    1  0.2842702E-009  0.1010983E+03  0.7561462E-02  0.1278003E+00
          2   -1    0    0  501    0  0.00000000000E+00  0.00000000000E+00  0.50790928729E+03  0.50790928729E+03  0.00000000000E+00 0. -1.
         -2   -1    0    0    0  501 -0.00000000000E+00 -0.00000000000E+00 -0.31453442455E+02  0.31453442455E+02  0.00000000000E+00 0.  1.
         25    2    1    2    0    0 -0.55567813787E+01 -0.48069625916E+01  0.41050120666E+03  0.42918321870E+03  0.12503203525E+03 0.  0.
          5    1    3    3  502    0 -0.70870614260E+01 -0.64156078547E+02  0.18593508609E+03  0.19686431239E+03  0.41800000000E+01 0.  1.
         -5    1    3    3    0  502  0.15302800473E+01  0.59349115955E+02  0.22456612057E+03  0.23231890631E+03  0.41800000000E+01 0.  1.
        -11    1    1    2    0    0 -0.15121094659E+02 -0.32218812647E+02  0.50244924084E+01  0.35943635265E+02  0.00000000000E+00 0. -1.
         11    1    1    2    0    0  0.20677876038E+02  0.37025775239E+02  0.60930145774E+02  0.74235875785E+02  0.00000000000E+00 0.  1.
</event>
<event>
 7    1  0.2842702E-009  0.1325800E+03  0.7561462E-02  0.1223677E+00
          2   -1    0    0  501    0  0.00000000000E+00  0.00000000000E+00  0.10037628066E+04  0.10037628066E+04  0.00000000000E+00 0. -1.
         -2   -1    0    0    0  501 -0.00000000000E+00 -0.00000000000E+00 -0.22821333628E+02  0.22821333628E+02  0.00000000000E+00 0.  1.
         25    2    1    2    0    0  0.90694126923E+02 -0.41647332923E+02  0.63681327374E+03  0.65661243039E+03  0.12509521625E+03 0.  0.
          5    1    3    3  502    0  0.18322775391E+02 -0.76551509623E+02  0.34681960216E+03  0.35566440160E+03  0.41800000000E+01 0.  1.
         -5    1    3    3    0  502  0.72371351533E+02  0.34904176700E+02  0.28999367158E+03  0.30094802879E+03  0.41800000000E+01 0.  1.
        -11    1    1    2    0    0 -0.72000073800E+02  0.15358321976E+02  0.32329462068E+03  0.33157095838E+03  0.00000000000E+00 0. -1.
         11    1    1    2    0    0 -0.18694053124E+02  0.26289010947E+02  0.20833578593E+02  0.38400751500E+02  0.00000000000E+00 0.  1.
</event>
<event>
 7    1  0.2842702E-009  0.1432452E+03  0.7561462E-02  0.1209028E+00
          1   -1    0    0  501    0  0.00000000000E+00  0.00000000000E+00  0.22740298466E+03  0.22740298466E+03  0.00000000000E+00 0. -1.
         -1   -1    0    0    0  501 -0.00000000000E+00 -0.00000000000E+00 -0.10970454358E+03  0.10970454358E+03  0.00000000000E+00 0.  1.
         25    2    1    2    0    0 -0.10495015106E+03 -0.32700793155E+02  0.10657848387E+03  0.19771288019E+03  0.12509010227E+03 0.  0.
          5    1    3    3  502    0 -0.11870556862E+03 -0.49690994195E+02  0.11622765459E+03  0.17345474054E+03  0.41800000000E+01 0. -1.
         -5    1    3    3    0  502  0.13755417556E+02  0.16990201040E+02 -0.96491707189E+01  0.24258139646E+02  0.41800000000E+01 0. -1.
        -11    1    1    2    0    0  0.17698882740E+02  0.44069445177E+02 -0.10828705699E+02  0.48709622412E+02  0.00000000000E+00 0.  1.
         11    1    1    2    0    0  0.87251268320E+02 -0.11368652022E+02  0.21948662908E+02  0.90685025642E+02  0.00000000000E+00 0. -1.
</event>
<event>
 7    1  0.2842702E-009  0.9846843E+02  0.7561462E-02  0.1283550E+00
          1   -1    0    0  501    0  0.00000000000E+00  0.00000000000E+00  0.30090147030E+02  0.30090147030E+02  0.00000000000E+00 0. -1.
         -1   -1    0    0    0  501 -0.00000000000E+00 -0.00000000000E+00 -0.45736744774E+03  0.45736744774E+03  0.00000000000E+00 0.  1.
         25    2    1    2    0    0  0.26668001001E+02 -0.56030060139E+01 -0.16714745104E+03  0.21054230200E+03  0.12508882678E+03 0.  0.
          5    1    3    3  502    0  0.46437137100E+02  0.36473487641E+02 -0.14923447658E+03  0.16054633101E+03  0.41800000000E+01 0. -1.
         -5    1    3    3    0  502 -0.19769136099E+02 -0.42076493655E+02 -0.17912974467E+02  0.49995970984E+02  0.41800000000E+01 0. -1.
        -11    1    1    2    0    0  0.91398697876E+01  0.40228009758E+02 -0.79798621823E+02  0.89831230837E+02  0.00000000000E+00 0. -1.
         11    1    1    2    0    0 -0.35807870788E+02 -0.34625003744E+02 -0.18033122784E+03  0.18708406193E+03  0.00000000000E+00 0.  1.
</event>
<event>
 7    1  0.2842702E-009  0.1278392E+03  0.7561462E-02  0.1230698E+00
          1   -1    0    0  501    0  0.00000000000E+00  0.00000000000E+00  0.11848760177E+03  0.11848760177E+03  0.00000000000E+00 0. -1.
         -1   -1    0    0    0  501 -0.00000000000E+00 -0.00000000000E+00 -0.18996967957E+03  0.18996967957E+03  0.00000000000E+00 0.  1.
         25    2    1    2    0    0  0.40211020916E+02  0.72435161767E+02 -0.10133786179E+03  0.18105460717E+03  0.12509048597E+03 0.  0.
          5    1    3    3  502    0 -0.43042570643E+02  0.42233314758E+02 -0.51086063470E+02  0.79142744733E+02  0.41800000000E+01 0. -1.
         -5    1    3    3    0  502  0.83253591559E+02  0.30201847009E+02 -0.50251798325E+02  0.10191186244E+03  0.41800000000E+01 0. -1.
        -11    1    1    2    0    0  0.17310367824E+02 -0.31592699882E+02  0.42519603539E+02  0.55728486478E+02  0.00000000000E+00 0. -1.
         11    1    1    2    0    0 -0.57521388740E+02 -0.40842461885E+02 -0.12663819546E+02  0.71674187689E+02  0.00000000000E+00 0.  1.
</event>
<event>
 7    1  0.2842702E-009  0.6944629E+02  0.7561462E-02  0.1361986E+00
         -3   -1    0    0    0  501 -0.00000000000E+00  0.00000000000E+00  0.34458220408E+02  0.34458220408E+02  0.00000000000E+00 0.  1.
          3   -1    0    0  501    0  0.00000000000E+00 -0.00000000000E+00 -0.36001481243E+03  0.36001481243E+03  0.00000000000E+00 0. -1.
         25    2    1    2    0    0  0.85702125044E+01 -0.24802434636E+02 -0.20183684751E+03  0.23890346329E+03  0.12509253556E+03 0.  0.
          5    1    3    3  502    0  0.25217896866E+02 -0.31293689408E+02 -0.21341423378E+03  0.21720576627E+03  0.41800000000E+01 0.  1.
         -5    1    3    3    0  502 -0.16647684361E+02  0.64912547717E+01  0.11577386275E+02  0.21697697022E+02  0.41800000000E+01 0.  1.
        -11    1    1    2    0    0  0.22818220235E+02  0.39390339038E+02 -0.27195462001E+02  0.53027003853E+02  0.00000000000E+00 0.  1.
         11    1    1    2    0    0 -0.31388432739E+02 -0.14587904401E+02 -0.96524282513E+02  0.10254256570E+03  0.00000000000E+00 0. -1.
</event>
<event>
 7    1  0.2842702E-009  0.1454860E+03  0.7561462E-02  0.1206132E+00
          1   -1    0    0  501    0  0.00000000000E+00  0.00000000000E+00  0.18727132804E+03  0.18727132804E+03  0.00000000000E+00 0. -1.
         -1   -1    0    0    0  501 -0.00000000000E+00 -0.00000000000E+00 -0.13437459153E+03  0.13437459153E+03  0.00000000000E+00 0.  1.
         25    2    1    2    0    0  0.10570018309E+03  0.70868750851E+01  0.76583865369E+02  0.18093117522E+03  0.12509296235E+03 0.  0.
          5    1    3    3  502    0  0.66708039179E+02 -0.49673242200E+02  0.80125263123E+01  0.83660423497E+02  0.41800000000E+01 0. -1.
         -5    1    3    3    0  502  0.38992143909E+02  0.56760117285E+02  0.68571339057E+02  0.97270751724E+02  0.41800000000E+01 0. -1.
        -11    1    1    2    0    0 -0.63986757178E+02  0.40265226366E+02 -0.13048768940E+02  0.76719384248E+02  0.00000000000E+00 0.  1.
         11    1    1    2    0    0 -0.41713425911E+02 -0.47352101451E+02 -0.10638359911E+02  0.63995360103E+02  0.00000000000E+00 0. -1.
</event>
<event>
 7    1  0.2842702E-009  0.1095519E+03  0.7561462E-02  0.1261402E+00
          1   -1    0    0  501    0  0.00000000000E+00  0.00000000000E+00  0.76348782695E+02  0.76348782695E+02  0.00000000000E+00 0. -1.
         -1   -1    0    0    0  501 -0.00000000000E+00 -0.00000000000E+00 -0.24308622308E+03  0.24308622308E+03  0.00000000000E+00 0.  1.
         25    2    1    2    0    0 -0.67707854834E+02 -0.21315622965E+02 -0.41385078721E+02  0.14966544441E+03  0.12509320973E+03 0.  0.
          5    1    3    3  502    0  0.34914431430E+02 -0.19772938944E+02 -0.48026660814E+01  0.40626649358E+02  0.41800000000E+01 0.  1.
         -5    1    3    3    0  502 -0.10262228626E+03 -0.15426840207E+01 -0.36582412639E+02  0.10903879505E+03  0.41800000000E+01 0.  1.
        -11    1    1    2    0    0  0.55254202272E+02  0.49465782112E+01 -0.13580453277E+03  0.14669821616E+03  0.00000000000E+00 0.  1.
         11    1    1    2    0    0  0.12453652562E+02  0.16369044754E+02  0.10452171110E+02  0.23071345197E+02  0.00000000000E+00 0. -1.
</event>
<event>
 7    1  0.2842702E-009  0.1400753E+03  0.7561462E-02  0.1213228E+00
          2   -1    0    0  501    0  0.00000000000E+00  0.00000000000E+00  0.69715229298E+03  0.69715229298E+03  0.00000000000E+00 0. -1.
         -2   -1    0    0    0  501 -0.00000000000E+00 -0.00000000000E+00 -0.36402933725E+02  0.36402933725E+02  0.00000000000E+00 0.  1.
         25    2    1    2    0    0  0.49141470429E+02  0.83348366942E+02  0.50405920949E+03  0.52828571432E+03  0.12509306494E+03 0.  0.
          5    1    3    3  502    0  0.27909929542E+02 -0.27506941631E+02  0.76431534224E+02  0.85993301070E+02  0.41800000000E+01 0. -1.
         -5    1    3    3    0  502  0.21231540887E+02  0.11085530857E+03  0.42762767526E+03  0.44229241325E+03  0.41800000000E+01 0. -1.
        -11    1    1    2    0    0  0.21635264533E+02 -0.38024730785E+02  0.29304310387E+02  0.52656504156E+02  0.00000000000E+00 0.  1.
         11    1    1    2    0    0 -0.70776734962E+02 -0.45323636157E+02  0.12738583938E+03  0.15261300823E+03  0.00000000000E+00 0. -1.
</event>
<event>
 7    1  0.2842702E-009  0.1252985E+03  0.7561462E-02  0.1234604E+00
          2   -1    0    0  501    0  0.00000000000E+00  0.00000000000E+00  0.40510836325E+03  0.40510836325E+03  0.00000000000E+00 0. -1.
         -2   -1    0    0    0  501 -0.00000000000E+00 -0.00000000000E+00 -0.92051696399E+02  0.92051696399E+02  0.00000000000E+00 0.  1.
         25    2    1    2    0    0  0.21150058142E+02  0.66984893996E+02 -0.20488904530E+02  0.14491935403E+03  0.12509005948E+03 0.  0.
          5    1    3    3  502    0 -0.37827708073E+02  0.74514957256E+02 -0.15627119004E+02  0.85118115589E+02  0.41800000000E+01 0.  1.
         -5    1    3    3    0  502  0.58977766216E+02 -0.75300632600E+01 -0.48617855264E+01  0.59801238440E+02  0.41800000000E+01 0.  1.
        -11    1    1    2    0    0 -0.51254279244E+02 -0.29120944637E+02  0.12564154219E+03  0.13878338402E+03  0.00000000000E+00 0. -1.
         11    1    1    2    0    0  0.30104221102E+02 -0.37863949360E+02  0.20790402919E+03  0.21345732160E+03  0.00000000000E+00 0.  1.
</event>
<event>
 7    1  0.2842702E-009  0.8262958E+02  0.7561462E-02  0.1321750E+00
          2   -1    0    0  501    0  0.00000000000E+00  0.00000000000E+00  0.17136311712E+02  0.17136311712E+02  0.00000000000E+00 0. -1.
         -2   -1    0    0    0  501 -0.00000000000E+00 -0.00000000000E+00 -0.78877005826E+03  0.78877005826E+03  0.00000000000E+00 0.  1.
         25    2    1    2    0    0  0.21530905722E-01  0.33866592818E+02 -0.53497533447E+03  0.55044592595E+03  0.12508062332E+03 0.  0.
          5    1    3    3  502    0  0.30088055719E+02  0.23138525056E+02 -0.50504657017E+03  0.50648809747E+03  0.41800000000E+01 0. -1.
         -5    1    3    3    0  502 -0.30066524813E+02  0.10728067761E+02 -0.29928764306E+02  0.43957828485E+02  0.41800000000E+01 0. -1.
        -11    1    1    2    0    0 -0.31800241796E+02 -0.49986402438E+02 -0.12658127747E+03  0.13975949203E+03  0.00000000000E+00 0. -1.
         11    1    1    2    0    0  0.31778710890E+02  0.16119809621E+02 -0.11007713460E+03  0.11570095199E+03  0.00000000000E+00 0.  1.
</event>
<event>
 7    1  0.2842702E-009  0.1107299E+03  0.7561462E-02  0.1259224E+00
          4   -1    0    0  501    0  0.00000000000E+00  0.00000000000E+00  0.20338310822E+03  0.20338310822E+03  0.00000000000E+00 0. -1.
         -4   -1    0    0    0  501 -0.00000000000E+00 -0.00000000000E+00 -0.98219146594E+02  0.98219146594E+02  0.00000000000E+00 0.  1.
         25    2    1    2    0    0  0.75323725250E+02 -0.82145686323E+01  0.10062015710E+03  0.17750350554E+03  0.12506772462E+03 0.  0.
          5    1    3    3  502    0 -0.22334447551E+01 -0.46249199834E+02  0.73314317570E+02  0.86812662219E+02  0.41800000000E+01 0.  1.
         -5    1    3    3    0  502  0.77557170005E+02  0.38034631202E+02  0.27305839529E+02  0.90690843321E+02  0.41800000000E+01 0.  1.
        -11    1    1    2    0    0 -0.53853627463E+02 -0.15945299303E+02  0.45247291309E+02  0.72123388243E+02  0.00000000000E+00 0. -1.
         11    1    1    2    0    0 -0.21470097788E+02  0.24159867936E+02 -0.40703486784E+02  0.51975361029E+02  0.00000000000E+00 0.  1.
</event>
<event>
 7    1  0.2842702E-009  0.1739550E+03  0.7561462E-02  0.1173785E+00
          2   -1    0    0  501    0  0.00000000000E+00  0.00000000000E+00  0.29315599980E+03  0.29315599980E+03  0.00000000000E+00 0.  1.
         -2   -1    0    0    0  501 -0.00000000000E+00 -0.00000000000E+00 -0.13010769087E+03  0.13010769087E+03  0.00000000000E+00 0. -1.
         25    2    1    2    0    0  0.12659800612E+03 -0.10534984557E+03  0.93835123072E+02  0.22712168351E+03  0.12511428250E+03 0.  0.
          5    1    3    3  502    0  0.75568093658E+02 -0.38933666516E+02 -0.18340616454E+02  0.87064446126E+02  0.41800000000E+01 0. -1.
         -5    1    3    3    0  502  0.51029912461E+02 -0.66416179052E+02  0.11217573953E+03  0.14005723738E+03  0.41800000000E+01 0. -1.
        -11    1    1    2    0    0 -0.10750657947E+03  0.11510267588E+03  0.45001342582E+02  0.16380296535E+03  0.00000000000E+00 0.  1.
         11    1    1    2    0    0 -0.19091426650E+02 -0.97528303122E+01  0.24211843267E+02  0.32339041807E+02  0.00000000000E+00 0. -1.
</event>
<event>
 7    1  0.2842702E-009  0.1101738E+03  0.7561462E-02  0.1260248E+00
         -1   -1    0    0    0  501 -0.00000000000E+00  0.00000000000E+00  0.35199991666E+03  0.35199991666E+03  0.00000000000E+00 0.  1.
          1   -1    0    0  501    0  0.00000000000E+00 -0.00000000000E+00 -0.58122047890E+02  0.58122047890E+02  0.00000000000E+00 0. -1.
         25    2    1    2    0    0 -0.92666011375E+02  0.13560603296E+02  0.16010750043E+03  0.22372338010E+03  0.12508740737E+03 0.  0.
          5    1    3    3  502    0 -0.36697018240E+01 -0.19994703424E+01  0.12741656565E+03  0.12755358951E+03  0.41800000000E+01 0. -1.
         -5    1    3    3    0  502 -0.88996309551E+02  0.15560073638E+02  0.32690934778E+02  0.96169790589E+02  0.41800000000E+01 0. -1.
        -11    1    1    2    0    0  0.10783063623E+03 -0.14495073866E+02  0.13206429766E+03  0.17110970747E+03  0.00000000000E+00 0. -1.
         11    1    1    2    0    0 -0.15164624853E+02  0.93447056989E+00  0.17060706807E+01  0.15288876981E+02  0.00000000000E+00 0.  1.
</event>
<event>
 7    1  0.2842702E-009  0.1622310E+03  0.7561462E-02  0.1186201E+00
          1   -1    0    0  501    0  0.00000000000E+00  0.00000000000E+00  0.42713712011E+03  0.42713712011E+03  0.00000000000E+00 0. -1.
         -1   -1    0    0    0  501 -0.00000000000E+00 -0.00000000000E+00 -0.71934981577E+02  0.71934981577E+02  0.00000000000E+00 0.  1.
         25    2    1    2    0    0  0.88819590548E+02 -0.81126797519E+02  0.28130791146E+03  0.33053658262E+03  0.12509921847E+03 0.  0.
          5    1    3    3  502    0  0.34177752251E+02 -0.10709761968E+03  0.19343156527E+03  0.22376608709E+03  0.41800000000E+01 0.  1.
         -5    1    3    3    0  502  0.54641838297E+02  0.25970822158E+02  0.87876346185E+02  0.10677049553E+03  0.41800000000E+01 0.  1.
        -11    1    1    2    0    0 -0.89609355290E+02  0.98941706348E+02  0.62700988938E+02  0.14748122533E+03  0.00000000000E+00 0. -1.
         11    1    1    2    0    0  0.78976474199E+00 -0.17814908829E+02  0.11193238141E+02  0.21054293743E+02  0.00000000000E+00 0.  1.
</event>
<event>
 7    1  0.2842702E-009  0.1876118E+03  0.7561462E-02  0.1160633E+00
         -1   -1    0    0    0  501 -0.00000000000E+00  0.00000000000E+00  0.36901407822E+03  0.36901407822E+03  0.00000000000E+00 0.  1.
          1   -1    0    0  501    0  0.00000000000E+00 -0.00000000000E+00 -0.12231643951E+03  0.12231643951E+03  0.00000000000E+00 0. -1.
         25    2    1    2    0    0 -0.12742265335E+03  0.99696484106E+02  0.22329805027E+03  0.30279641455E+03  0.12509087850E+03 0.  0.
          5    1    3    3  502    0 -0.77675564375E+02  0.56627225125E+00  0.15236717538E+03  0.17107613071E+03  0.41800000000E+01 0.  1.
         -5    1    3    3    0  502 -0.49747088973E+02  0.99130211855E+02  0.70930874886E+02  0.13172028384E+03  0.41800000000E+01 0.  1.
        -11    1    1    2    0    0  0.85582859447E+02 -0.11371021709E+03  0.24420197237E+02  0.14439801015E+03  0.00000000000E+00 0.  1.
         11    1    1    2    0    0  0.41839793902E+02  0.14013732981E+02 -0.10206087866E+01  0.44136093031E+02  0.00000000000E+00 0. -1.
</event>
<event>
 7    1  0.2842702E-009  0.1880692E+03  0.7561462E-02  0.1160214E+00
          1   -1    0    0  501    0  0.00000000000E+00  0.00000000000E+00  0.51839541613E+03  0.51839541613E+03  0.00000000000E+00 0. -1.
         -1   -1    0    0    0  501 -0.00000000000E+00 -0.00000000000E+00 -0.75466308759E+02  0.75466308759E+02  0.00000000000E+00 0.  1.
         25    2    1    2    0    0 -0.15561334756E+03  0.49403963284E+02  0.26802047933E+03  0.33784455345E+03  0.12509076475E+03 0.  0.
          5    1    3    3  502    0 -0.10366669701E+03  0.81826055067E+02  0.12364208020E+03  0.18096166377E+03  0.41800000000E+01 0. -1.
         -5    1    3    3    0  502 -0.51946650544E+02 -0.32422091782E+02  0.14437839914E+03  0.15688288968E+03  0.41800000000E+01 0. -1.
        -11    1    1    2    0    0  0.13988290398E+03 -0.10048368191E+02  0.10884016514E+03  0.17752289452E+03  0.00000000000E+00 0.  1.
         11    1    1    2    0    0  0.15730443575E+02 -0.39355595093E+02  0.66068462890E+02  0.78494276917E+02  0.00000000000E+00 0. -1.
</event>
<event>
 7    1  0.2842702E-009  0.5915448E+02  0.7561462E-02  0.1401415E+00
          2   -1    0    0  501    0  0.00000000000E+00  0.00000000000E+00  0.45900131264E+02  0.45900131264E+02  0.00000000000E+00 0. -1.
         -2   -1    0    0    0  501 -0.00000000000E+00 -0.00000000000E+00 -0.28123238137E+03  0.28123238137E+03  0.00000000000E+00 0.  1.
         25    2    1    2    0    0 -0.26455660879E+02 -0.13581082552E+02 -0.11463798355E+03  0.17226861304E+03  0.12510099908E+03 0.  0.
          5    1    3    3  502    0 -0.26608976615E+02  0.19095995051E+02  0.16602282844E+02  0.36956770139E+02  0.41800000000E+01 0.  1.
         -5    1    3    3    0  502  0.15331573646E+00 -0.32677077603E+02 -0.13124026639E+03  0.13531184290E+03  0.41800000000E+01 0.  1.
        -11    1    1    2    0    0  0.26715622346E+02  0.27550068795E+02 -0.13163725374E+03  0.13711709354E+03  0.00000000000E+00 0.  1.
         11    1    1    2    0    0 -0.25996146701E+00 -0.13968986244E+02  0.10942987184E+02  0.17746806055E+02  0.00000000000E+00 0. -1.
</event>
<event>
 7    1  0.2842702E-009  0.7474179E+02  0.7561462E-02  0.1344672E+00
         -1   -1    0    0    0  501 -0.00000000000E+00  0.00000000000E+00  0.43470964331E+02  0.43470964331E+02  0.00000000000E+00 0.  1.
          1   -1    0    0  501    0  0.00000000000E+00 -0.00000000000E+00 -0.33029331718E+03  0.33029331718E+03  0.00000000000E+00 0. -1.
         25    2    1    2    0    0 -0.38499905682E+02  0.30456501367E+02 -0.20083002387E+03  0.24164049863E+03  0.12509033087E+03 0.  0.
          5    1    3    3  502    0 -0.23029781524E+02  0.18251920800E+02  0.88676459709E+01  0.30977588592E+02  0.41800000000E+01 0. -1.
         -5    1    3    3    0  502 -0.15470124158E+02  0.12204580567E+02 -0.20969766985E+03  0.21066291004E+03  0.41800000000E+01 0. -1.
        -11    1    1    2    0    0  0.64384875333E+02 -0.35145789212E+02 -0.56397511362E+02  0.92527390317E+02  0.00000000000E+00 0.  1.
         11    1    1    2    0    0 -0.25884969651E+02  0.46892878453E+01 -0.29594817614E+02  0.39596392562E+02  0.00000000000E+00 0. -1.
</event>
<event>
 7    1  0.2842702E-009  0.1199339E+03  0.7561462E-02  0.1243206E+00
          4   -1    0    0  501    0  0.00000000000E+00  0.00000000000E+00  0.17894900753E+03  0.17894900753E+03  0.00000000000E+00 0. -1.
         -4   -1    0    0    0  501 -0.00000000000E+00 -0.00000000000E+00 -0.94986644631E+02  0.94986644631E+02  0.00000000000E+00 0.  1.
         25    2    1    2    0    0  0.35904334346E+02 -0.57513424934E+02  0.17405595243E+02  0.14334260834E+03  0.12508890177E+03 0.  0.
          5    1    3    3  502    0  0.60557118135E+02  0.62198881354E+01  0.37957330527E+02  0.71861553740E+02  0.41800000000E+01 0.  1.
         -5    1    3    3    0  502 -0.24652783788E+02 -0.63733313069E+02 -0.20551735284E+02  0.71481054598E+02  0.41800000000E+01 0.  1.
        -11    1    1    2    0    0  0.25563595295E+02 -0.91369284781E+00  0.56894677039E+01  0.26205004899E+02  0.00000000000E+00 0.  1.
         11    1    1    2    0    0 -0.61467929641E+02  0.58427117782E+02  0.60867299949E+02  0.10438803892E+03  0.00000000000E+00 0. -1.
</event>
<event>
 7    1  0.2842702E-009  0.9614830E+02  0.7561462E-02  0.1288611E+00
          1   -1    0    0  501    0  0.00000000000E+00  0.00000000000E+00  0.57212774123E+02  0.57212774123E+02  0.00000000000E+00 0. -1.
         -1   -1    0    0    0  501 -0.00000000000E+00 -0.00000000000E+00 -0.26844991058E+03  0.26844991058E+03  0.00000000000E+00 0.  1.
         25    2    1    2    0    0 -0.51600730294E+02 -0.21171918250E+02 -0.10932563488E+03  0.17524223275E+03  0.12508741027E+03 0.  0.
          5    1    3    3  502    0  0.37767791171E+02 -0.23386743668E+02 -0.53915375577E+02  0.69983469140E+02  0.41800000000E+01 0.  1.
         -5    1    3    3    0  502 -0.89368521464E+02  0.22148254177E+01 -0.55410259303E+02  0.10525876361E+03  0.41800000000E+01 0.  1.
        -11    1    1    2    0    0  0.21425711140E+02  0.18118419140E+00 -0.11059447645E+03  0.11265093052E+03  0.00000000000E+00 0.  1.
         11    1    1    2    0    0  0.30175019154E+02  0.20990734058E+02  0.86829748674E+01  0.37769521440E+02  0.00000000000E+00 0. -1.
</event>
<event>
 7    1  0.2842702E-009  0.1327782E+03  0.7561462E-02  0.1223391E+00
          1   -1    0    0  501    0  0.00000000000E+00  0.00000000000E+00  0.77858423082E+02  0.77858423082E+02  0.00000000000E+00 0. -1.
         -1   -1    0    0    0  501 -0.00000000000E+00 -0.00000000000E+00 -0.33594031454E+03  0.33594031454E+03  0.00000000000E+00 0.  1.
         25    2    1    2    0    0 -0.63646341144E+02 -0.88571501765E+02 -0.13342196037E+03  0.21294369397E+03  0.12509128517E+03 0.  0.
          5    1    3    3  502    0 -0.46593036004E+02 -0.13071236754E+02 -0.12604324863E+03  0.13507827790E+03  0.41800000000E+01 0. -1.
         -5    1    3    3    0  502 -0.17053305140E+02 -0.75500265011E+02 -0.73787117370E+01  0.77865416070E+02  0.41800000000E+01 0. -1.
        -11    1    1    2    0    0  0.65176327458E+02  0.16302653672E+02 -0.13920149291E+02  0.68611228920E+02  0.00000000000E+00 0. -1.
         11    1    1    2    0    0 -0.15299863134E+01  0.72268848093E+02 -0.11073978180E+03  0.13224381474E+03  0.00000000000E+00 0.  1.
</event>
<event>
 7    1  0.2842702E-009  0.1863373E+03  0.7561462E-02  0.1161807E+00
          2   -1    0    0  501    0  0.00000000000E+00  0.00000000000E+00  0.19737796143E+03  0.19737796143E+03  0.00000000000E+00 0. -1.
         -2   -1    0    0    0  501 -0.00000000000E+00 -0.00000000000E+00 -0.19962050560E+03  0.19962050560E+03  0.00000000000E+00 0.  1.
         25    2    1    2    0    0 -0.16333597225E+03 -0.25908963747E+02 -0.13005095999E+02  0.20777544957E+03  0.12510631755E+03 0.  0.
          5    1    3    3  502    0 -0.12128698406E+02 -0.51754654653E+02  0.34855972975E+01  0.53434739560E+02  0.41800000000E+01 0.  1.
         -5    1    3    3    0  502 -0.15120727384E+03  0.25845690907E+02 -0.16490693296E+02  0.15434071001E+03  0.41800000000E+01 0.  1.
        -11    1    1    2    0    0  0.33273037615E+02 -0.25472599403E-01 -0.35600983434E+02  0.48729105291E+02  0.00000000000E+00 0.  1.
         11    1    1    2    0    0  0.13006293464E+03  0.25934436346E+02  0.46363535266E+02  0.14049391217E+03  0.00000000000E+00 0. -1.
</event>
<event>
 7    1  0.2842702E-009  0.9606542E+02  0.7561462E-02  0.1288794E+00
          2   -1    0    0  501    0  0.00000000000E+00  0.00000000000E+00  0.13569204499E+02  0.13569204499E+02  0.00000000000E+00 0. -1.
         -2   -1    0    0    0  501 -0.00000000000E+00 -0.00000000000E+00 -0.10046656476E+04  0.10046656476E+04  0.00000000000E+00 0.  1.
         25    2    1    2    0    0 -0.18522014583E+02 -0.16574301867E+02 -0.71878062726E+03  0.73000603270E+03  0.12508175387E+03 0.  0.
          5    1    3    3  502    0 -0.47367360732E+02 -0.44614619407E+02 -0.21665723237E+03  0.22625640293E+03  0.41800000000E+01 0. -1.
         -5    1    3    3    0  502  0.28845346150E+02  0.28040317540E+02 -0.50212339489E+03  0.50374962978E+03  0.41800000000E+01 0. -1.
        -11    1    1    2    0    0 -0.30807944393E+02  0.20485199325E+02 -0.17708559997E+03  0.18090904495E+03  0.00000000000E+00 0.  1.
         11    1    1    2    0    0  0.49329958976E+02 -0.39108974582E+01 -0.95230215857E+02  0.10731977443E+03  0.00000000000E+00 0. -1.
</event>
<event>
 7    1  0.2842702E-009  0.9800547E+02  0.7561462E-02  0.1284547E+00
         -2   -1    0    0    0  501 -0.00000000000E+00  0.00000000000E+00  0.47959382007E+02  0.47959382007E+02  0.00000000000E+00 0.  1.
          2   -1    0    0  501    0  0.00000000000E+00 -0.00000000000E+00 -0.39038877360E+03  0.39038877360E+03  0.00000000000E+00 0. -1.
         25    2    1    2    0    0 -0.31792764873E+02  0.47352124888E+02 -0.28135423464E+03  0.31314501170E+03  0.12508632768E+03 0.  0.
          5    1    3    3  502    0 -0.36685637793E+02  0.81562448557E+02 -0.13005238937E+03  0.15789035884E+03  0.41800000000E+01 0. -1.
         -5    1    3    3    0  502  0.48928729207E+01 -0.34210323669E+02 -0.15130184527E+03  0.15525465286E+03  0.41800000000E+01 0. -1.
        -11    1    1    2    0    0  0.42795996695E+02 -0.37673216375E+02  0.52702459273E+01  0.57258571911E+02  0.00000000000E+00 0.  1.
         11    1    1    2    0    0 -0.11003231822E+02 -0.96789085132E+01 -0.66345402875E+02  0.67944571992E+02  0.00000000000E+00 0. -1.
</event>
<event>
 7    1  0.2842702E-009  0.1524160E+03  0.7561462E-02  0.1197535E+00
          1   -1    0    0  501    0  0.00000000000E+00  0.00000000000E+00  0.25097637125E+03  0.25097637125E+03  0.00000000000E+00 0. -1.
         -1   -1    0    0    0  501 -0.00000000000E+00 -0.00000000000E+00 -0.12095559639E+03  0.12095559639E+03  0.00000000000E+00 0.  1.
         25    2    1    2    0    0  0.12198203115E+03 -0.36182186235E+02  0.12122093341E+03  0.21570936297E+03  0.12508896055E+03 0.  0.
          5    1    3    3  502    0  0.89334208681E+02  0.37015377442E+02  0.79511938255E+02  0.12526116610E+03  0.41800000000E+01 0. -1.
         -5    1    3    3    0  502  0.32647822464E+02 -0.73197563677E+02  0.41708995154E+02  0.90448196868E+02  0.41800000000E+01 0. -1.
        -11    1    1    2    0    0 -0.55633467052E+02  0.22667937313E+02 -0.40512568703E+02  0.72458169044E+02  0.00000000000E+00 0.  1.
         11    1    1    2    0    0 -0.66348564093E+02  0.13514248922E+02  0.49312410149E+02  0.83764435627E+02  0.00000000000E+00 0. -1.
</event>
<event>
 7    1  0.2842702E-009  0.1069492E+03  0.7561462E-02  0.1266326E+00
         -2   -1    0    0    0  501 -0.00000000000E+00  0.00000000000E+00  0.38799456592E+03  0.38799456592E+03  0.00000000000E+00 0.  1.
          2   -1    0    0  501    0  0.00000000000E+00 -0.00000000000E+00 -0.74763003208E+02  0.74763003208E+02  0.00000000000E+00 0. -1.
         25    2    1    2    0    0 -0.70374522940E+02  0.42943786912E+02  0.29215931130E+02  0.15263525229E+03  0.12508879765E+03 0.  0.
          5    1    3    3  502    0  0.79931679041E+01  0.49171436379E+02 -0.26122879979E+02  0.56405657048E+02  0.41800000000E+01 0.  1.
         -5    1    3    3    0  502 -0.78367690844E+02 -0.62276494665E+01  0.55338811109E+02  0.96229595245E+02  0.41800000000E+01 0.  1.
        -11    1    1    2    0    0  0.29970842033E+02 -0.62803247572E+01  0.12327143424E+02  0.33009882099E+02  0.00000000000E+00 0. -1.
         11    1    1    2    0    0  0.40403680907E+02 -0.36663462155E+02  0.27168848816E+03  0.27711243474E+03  0.00000000000E+00 0.  1.
</event>
<event>
 7    1  0.2842702E-009  0.1133061E+03  0.7561462E-02  0.1254567E+00
          1   -1    0    0  501    0  0.00000000000E+00  0.00000000000E+00  0.43561597410E+03  0.43561597410E+03  0.00000000000E+00 0.  1.
         -1   -1    0    0    0  501 -0.00000000000E+00 -0.00000000000E+00 -0.47870958555E+02  0.47870958555E+02  0.00000000000E+00 0. -1.
         25    2    1    2    0    0 -0.22751273363E+02 -0.66545196596E+02  0.31515740445E+03  0.34629234586E+03  0.12509322759E+03 0.  0.
          5    1    3    3  502    0 -0.54463954306E+02 -0.64530492224E+02  0.11046559914E+03  0.13910653377E+03  0.41800000000E+01 0. -1.
         -5    1    3    3    0  502  0.31712680943E+02 -0.20147043723E+01  0.20469180531E+03  0.20718581208E+03  0.41800000000E+01 0. -1.
        -11    1    1    2    0    0 -0.31821693550E+02  0.33564491784E+02  0.53314907195E+02  0.70580979154E+02  0.00000000000E+00 0.  1.
         11    1    1    2    0    0  0.54572966913E+02  0.32980704812E+02  0.19272703895E+02  0.66613607642E+02  0.00000000000E+00 0. -1.
</event>
<event>
 7    1  0.2842702E-009  0.1510494E+03  0.7561462E-02  0.1199189E+00
         -1   -1    0    0    0  501 -0.00000000000E+00  0.00000000000E+00  0.52473405429E+03  0.52473405429E+03  0.00000000000E+00 0.  1.
          1   -1    0    0  501    0  0.00000000000E+00 -0.00000000000E+00 -0.63260190827E+02  0.63260190827E+02  0.00000000000E+00 0. -1.
         25    2    1    2    0    0 -0.40800218400E+02 -0.11583302666E+03  0.36910311463E+03  0.40861504062E+03  0.12508874571E+03 0.  0.
          5    1    3    3  502    0 -0.85742401742E+02 -0.68449990337E+02  0.22591104654E+03  0.25117809216E+03  0.41800000000E+01 0. -1.
         -5    1    3    3    0  502  0.44942183342E+02 -0.47383036327E+02  0.14319206810E+03  0.15743694846E+03  0.41800000000E+01 0. -1.
        -11    1    1    2    0    0 -0.50153558935E+01  0.20352397617E+02  0.67382197466E+02  0.70567233323E+02  0.00000000000E+00 0.  1.
         11    1    1    2    0    0  0.45815574293E+02  0.95480629047E+02  0.24988551363E+02  0.10881197117E+03  0.00000000000E+00 0. -1.
</event>
<event>
 7    1  0.2842702E-009  0.1265862E+03  0.7561462E-02  0.1232611E+00
         -1   -1    0    0    0  501 -0.00000000000E+00  0.00000000000E+00  0.10085584960E+03  0.10085584960E+03  0.00000000000E+00 0.  1.
          1   -1    0    0  501    0  0.00000000000E+00 -0.00000000000E+00 -0.22034222318E+03  0.22034222318E+03  0.00000000000E+00 0. -1.
         25    2    1    2    0    0  0.32579928410E+02  0.92393547040E+02 -0.34695559549E+02  0.16263091356E+03  0.12508802070E+03 0.  0.
          5    1    3    3  502    0  0.63260786001E+02  0.56828712455E+02 -0.64528488192E+02  0.10683083728E+03  0.41800000000E+01 0. -1.
         -5    1    3    3    0  502 -0.30680857591E+02  0.35564834585E+02  0.29832928643E+02  0.55800076281E+02  0.41800000000E+01 0. -1.
        -11    1    1    2    0    0 -0.22178343929E+02  0.51593680890E+01 -0.49184347671E+02  0.54199613230E+02  0.00000000000E+00 0. -1.
         11    1    1    2    0    0 -0.10401584480E+02 -0.97552915129E+02 -0.35606466356E+02  0.10436754599E+03  0.00000000000E+00 0.  1.
</event>
<event>
 7    1  0.2842702E-009  0.2630676E+03  0.7561462E-02  0.1105314E+00
          2   -1    0    0  501    0  0.00000000000E+00  0.00000000000E+00  0.17353484463E+04  0.17353484463E+04  0.00000000000E+00 0. -1.
         -2   -1    0    0    0  501 -0.00000000000E+00 -0.00000000000E+00 -0.47815058647E+02  0.47815058647E+02  0.00000000000E+00 0.  1.
         25    2    1    2    0    0  0.23058443180E+03  0.92020509456E+02  0.11461487405E+04  0.11793818935E+04  0.12509101152E+03 0.  0.
          5    1    3    3  502    0  0.41102009880E+02  0.54960819448E+02  0.50860119577E+03  0.51322774246E+03  0.41800000000E+01 0. -1.
         -5    1    3    3    0  502  0.18948242192E+03  0.37059690009E+02  0.63754754471E+03  0.66615415108E+03  0.41800000000E+01 0. -1.
        -11    1    1    2    0    0 -0.44016080104E+02 -0.60857920280E+02  0.19765082986E+03  0.21144018613E+03  0.00000000000E+00 0. -1.
         11    1    1    2    0    0 -0.18656835170E+03 -0.31162589177E+02  0.34373381735E+03  0.39234142530E+03  0.00000000000E+00 0.  1.
</event>
<event>
 6    1  0.2842702E-009  0.3049107E+03  0.7561462E-02  0.1082811E+00
         -3   -1    0    0    0  501 -0.00000000000E+00  0.00000000000E+00  0.92850510890E+03  0.92850510890E+03  0.00000000000E+00 0.  1.
          3   -1    0    0  501    0  0.00000000000E+00 -0.00000000000E+00 -0.12343597791E+03  0.12343597791E+03  0.00000000000E+00 0. -1.
          5    1    1    2  502    0 -0.16981268735E+03  0.19372055135E+03  0.57698793304E+03  0.63189915973E+03  0.41800000000E+01 0.  1.
         -5    1    1    2    0  502 -0.13028355977E+02  0.39975967001E+02  0.20823370031E+02  0.47105213476E+02  0.41800000000E+01 0.  1.
        -11    1    1    2    0    0  0.78028336255E+02 -0.35512815072E+02  0.52739632263E+02  0.10065311771E+03  0.00000000000E+00 0. -1.
         11    1    1    2    0    0  0.10481270707E+03 -0.19818370327E+03  0.15451819566E+03  0.27228359590E+03  0.00000000000E+00 0.  1.
</event>
<event>
 7    1  0.2842702E-009  0.9918130E+02  0.7561462E-02  0.1282027E+00
         -2   -1    0    0    0  501 -0.00000000000E+00  0.00000000000E+00  0.42049358132E+03  0.42049358132E+03  0.00000000000E+00 0.  1.
          2   -1    0    0  501    0  0.00000000000E+00 -0.00000000000E+00 -0.27434240421E+02  0.27434240421E+02  0.00000000000E+00 0. -1.
         25    2    1    2    0    0  0.10641033145E+02  0.34242070211E+01  0.22540429129E+03  0.25803008076E+03  0.12508985276E+03 0.  0.
          5    1    3    3  502    0  0.58399278397E+02 -0.22497490364E+02  0.73388280965E+02  0.96539758509E+02  0.41800000000E+01 0.  1.
         -5    1    3    3    0  502 -0.47758245251E+02  0.25921697385E+02  0.15201601032E+03  0.16149032225E+03  0.41800000000E+01 0.  1.
        -11    1    1    2    0    0  0.71248228509E+01 -0.39919563448E+02  0.12319037024E+03  0.12969272134E+03  0.00000000000E+00 0.  1.
         11    1    1    2    0    0 -0.17765855996E+02  0.36495356427E+02  0.44464679369E+02  0.60205019653E+02  0.00000000000E+00 0. -1.
</event>
<event>
 7    1  0.4147923E-009  0.1019171E+03  0.7561462E-02  0.1276316E+00
          2   -1    0    0  501    0  0.00000000000E+00  0.00000000000E+00  0.12853569766E+04  0.12853569766E+04  0.00000000000E+00 0. -1.
         -2   -1    0    0    0  501 -0.00000000000E+00 -0.00000000000E+00 -0.14289214183E+02  0.14289214183E+02  0.00000000000E+00 0.  1.
         25    2    1    2    0    0 -0.25495774389E+02  0.49252569923E+02  0.98251278270E+03  0.99199504367E+03  0.12508776257E+03 0.  0.
          5    1    3    3  502    0  0.32484890297E+02 -0.20512498467E+01  0.84613912478E+02  0.90754957486E+02  0.41800000000E+01 0.  1.
         -5    1    3    3    0  502 -0.57980664686E+02  0.51303819770E+02  0.89789887022E+03  0.90124008618E+03  0.41800000000E+01 0.  1.
        -11    1    1    2    0    0  0.52087325148E+02 -0.26266760304E+02  0.24412904255E+03  0.25100203496E+03  0.00000000000E+00 0.  1.
         11    1    1    2    0    0 -0.26591550759E+02 -0.22985809619E+02  0.44425937215E+02  0.56649112200E+02  0.00000000000E+00 0. -1.
</event>
<event>
 7    1  0.2842702E-009  0.1094395E+03  0.7561462E-02  0.1261611E+00
         -4   -1    0    0    0  501 -0.00000000000E+00  0.00000000000E+00  0.17145147741E+03  0.17145147741E+03  0.00000000000E+00 0.  1.
          4   -1    0    0  501    0  0.00000000000E+00 -0.00000000000E+00 -0.18138031399E+03  0.18138031399E+03  0.00000000000E+00 0. -1.
         25    2    1    2    0    0 -0.16624608116E+02 -0.99459640352E+02 -0.10137550401E+03  0.18998180188E+03  0.12508994595E+03 0.  0.
          5    1    3    3  502    0  0.13258836140E+02 -0.13601148669E+02  0.26597099257E+02  0.32949447185E+02  0.41800000000E+01 0. -1.
         -5    1    3    3    0  502 -0.29883444256E+02 -0.85858491683E+02 -0.12797260326E+03  0.15703235469E+03  0.41800000000E+01 0. -1.
        -11    1    1    2    0    0 -0.12688243543E+02  0.19541634637E+02  0.71802978593E+02  0.75488639830E+02  0.00000000000E+00 0.  1.
         11    1    1    2    0    0  0.29312851659E+02  0.79918005716E+02  0.19643688835E+02  0.87361349698E+02  0.00000000000E+00 0. -1.
</event>
<event>
 7    1  0.2842702E-009  0.8174298E+02  0.7561462E-02  0.1324177E+00
         -3   -1    0    0    0  501 -0.00000000000E+00  0.00000000000E+00  0.15830021660E+03  0.15830021660E+03  0.00000000000E+00 0.  1.
          3   -1    0    0  501    0  0.00000000000E+00 -0.00000000000E+00 -0.93319913723E+02  0.93319913723E+02  0.00000000000E+00 0. -1.
         25    2    1    2    0    0  0.48920601866E+01 -0.50635343585E+02  0.19043251458E+02  0.13637225734E+03  0.12508747689E+03 0.  0.
          5    1    3    3  502    0  0.33787892572E+02 -0.55455451895E+02  0.58192785830E+02  0.87297202429E+02  0.41800000000E+01 0.  1.
         -5    1    3    3    0  502 -0.28895832385E+02  0.48201083094E+01 -0.39149534372E+02  0.49075054914E+02  0.41800000000E+01 0.  1.
        -11    1    1    2    0    0 -0.73520277606E+01 -0.75769823341E+01 -0.22808270309E+02  0.25133248258E+02  0.00000000000E+00 0. -1.
         11    1    1    2    0    0  0.24599675740E+01  0.58212325919E+02  0.68745321729E+02  0.90114624723E+02  0.00000000000E+00 0.  1.
</event>
<event>
 7    1  0.2842702E-009  0.9817367E+02  0.7561462E-02  0.1284184E+00
         -2   -1    0    0    0  501 -0.00000000000E+00  0.00000000000E+00  0.99634196956E+02  0.99634196956E+02  0.00000000000E+00 0.  1.
          2   -1    0    0  501    0  0.00000000000E+00 -0.00000000000E+00 -0.23247270468E+03  0.23247270468E+03  0.00000000000E+00 0. -1.
         25    2    1    2    0    0 -0.26863523560E+02 -0.26284628281E+02 -0.18404391740E+03  0.22567828178E+03  0.12508394283E+03 0.  0.
          5    1    3    3  502    0 -0.53928715623E+02  0.31486703200E+02 -0.63097309657E+02  0.88873290324E+02  0.41800000000E+01 0. -1.
         -5    1    3    3    0  502  0.27065192063E+02 -0.57771331480E+02 -0.12094660774E+03  0.13680499145E+03  0.41800000000E+01 0. -1.
        -11    1    1    2    0    0 -0.17140548698E+02  0.18354034418E+02 -0.12929351957E+02  0.28246010889E+02  0.00000000000E+00 0. -1.
         11    1    1    2    0    0  0.44004072258E+02  0.79305938626E+01  0.64134761637E+02  0.78182608965E+02  0.00000000000E+00 0.  1.
</event>
<event>
 7    1  0.2842702E-009  0.1555288E+03  0.7561462E-02  0.1193839E+00
          1   -1    0    0  501    0  0.00000000000E+00  0.00000000000E+00  0.45684962277E+03  0.45684962277E+03  0.00000000000E+00 0. -1.
         -1   -1    0    0    0  501 -0.00000000000E+00 -0.00000000000E+00 -0.56784434516E+02  0.56784434516E+02  0.00000000000E+00 0.  1.
         25    2    1    2    0    0  0.56024774555E+02 -0.10536092748E+03  0.23386140925E+03  0.29082128795E+03  0.12508462089E+03 0.  0.
          5    1    3    3  502    0  0.66171182586E+02 -0.39385298862E+01  0.12551938955E+03  0.14200960170E+03  0.41800000000E+01 0.  1.
         -5    1    3    3    0  502 -0.10146408031E+02 -0.10142239760E+03  0.10834201970E+03  0.14881168624E+03  0.41800000000E+01 0.  1.
        -11    1    1    2    0    0  0.19393777879E+02  0.12844963776E+02  0.79303701716E+01  0.24576462030E+02  0.00000000000E+00 0.  1.
         11    1    1    2    0    0 -0.75418552434E+02  0.92515963707E+02  0.15827340883E+03  0.19823630731E+03  0.00000000000E+00 0. -1.
</event>
<event>
 7    1  0.2842702E-009  0.1122563E+03  0.7561462E-02  0.1256448E+00
          2   -1    0    0  501    0  0.00000000000E+00  0.00000000000E+00  0.63925117920E+03  0.63925117920E+03  0.00000000000E+00 0. -1.
         -2   -1    0    0    0  501 -0.00000000000E+00 -0.00000000000E+00 -0.34955447733E+02  0.34955447733E+02  0.00000000000E+00 0.  1.
         25    2    1    2    0    0 -0.32288609029E+02  0.74517684007E+02  0.46083191626E+03  0.48436463625E+03  0.12509039253E+03 0.  0.
          5    1    3    3  502    0 -0.11121001015E+02 -0.92529843563E+01  0.31092219673E+03  0.31128665118E+03  0.41800000000E+01 0. -1.
         -5    1    3    3    0  502 -0.21167608014E+02  0.83770668363E+02  0.14990971953E+03  0.17307798507E+03  0.41800000000E+01 0. -1.
        -11    1    1    2    0    0  0.61802062855E+02 -0.27977183359E+02  0.93031442928E+02  0.11513933791E+03  0.00000000000E+00 0. -1.
         11    1    1    2    0    0 -0.29513453826E+02 -0.46540500648E+02  0.50432372286E+02  0.74702652776E+02  0.00000000000E+00 0.  1.
</event>
<event>
 7    1  0.2842702E-009  0.1095687E+03  0.7561462E-02  0.1261371E+00
         -2   -1    0    0    0  501 -0.00000000000E+00  0.00000000000E+00  0.29164319043E+03  0.29164319043E+03  0.00000000000E+00 0. -1.
          2   -1    0    0  501    0  0.00000000000E+00 -0.00000000000E+00 -0.48984286183E+02  0.48984286183E+02  0.00000000000E+00 0.  1.
         25    2    1    2    0    0  0.12250516786E+02  0.48220802921E+02  0.14607891205E+03  0.19865057940E+03  0.12509069971E+03 0.  0.
          5    1    3    3  502    0  0.43409942805E+02 -0.13866507033E+02  0.11235446504E+03  0.12131653377E+03  0.41800000000E+01 0.  1.
         -5    1    3    3    0  502 -0.31159426020E+02  0.62087309954E+02  0.33724447018E+02  0.77334045633E+02  0.41800000000E+01 0.  1.
        -11    1    1    2    0    0 -0.45924076658E+01  0.27396045818E+02  0.30618182619E+02  0.41341343006E+02  0.00000000000E+00 0.  1.
         11    1    1    2    0    0 -0.76581091200E+01 -0.75616848739E+02  0.65961809579E+02  0.10063555421E+03  0.00000000000E+00 0. -1.
</event>
<event>
 7    1  0.2842702E-009  0.1246200E+03  0.7561462E-02  0.1235664E+00
          4   -1    0    0  501    0  0.00000000000E+00  0.00000000000E+00  0.70248274732E+02  0.70248274732E+02  0.00000000000E+00 0. -1.
         -4   -1    0    0    0  501 -0.00000000000E+00 -0.00000000000E+00 -0.25002865119E+03  0.25002865119E+03  0.00000000000E+00 0.  1.
         25    2    1    2    0    0  0.61222495348E+02 -0.38721029827E+02 -0.71612770102E+02  0.16131589282E+03  0.12508763467E+03 0.  0.
          5    1    3    3  502    0  0.97836191551E+02 -0.42399465002E+02 -0.60413058081E+02  0.12262481395E+03  0.41800000000E+01 0. -1.
         -5    1    3    3    0  502 -0.36613696203E+02  0.36784351747E+01 -0.11199712022E+02  0.38691078873E+02  0.41800000000E+01 0. -1.
        -11    1    1    2    0    0 -0.74778670022E+02  0.12278544567E+02 -0.42502266461E+02  0.86885296808E+02  0.00000000000E+00 0. -1.
         11    1    1    2    0    0  0.13556174674E+02  0.26442485260E+02 -0.65665339891E+02  0.72075736289E+02  0.00000000000E+00 0.  1.
</event>
<event>
 7    1  0.2842702E-009  0.1496517E+03  0.7561462E-02  0.1200902E+00
          2   -1    0    0  501    0  0.00000000000E+00  0.00000000000E+00  0.16263829656E+03  0.16263829656E+03  0.00000000000E+00 0. -1.
         -2   -1    0    0    0  501 -0.00000000000E+00 -0.00000000000E+00 -0.21493545878E+03  0.21493545878E+03  0.00000000000E+00 0.  1.
         25    2    1    2    0    0 -0.48716886348E+02 -0.12059874856E+03  0.51124832158E+02  0.18755943684E+03  0.12508957078E+03 0.  0.
          5    1    3    3  502    0 -0.36256241101E+02 -0.12138199689E+03  0.84059371826E+02  0.15209061305E+03  0.41800000000E+01 0. -1.
         -5    1    3    3    0  502 -0.12460645248E+02  0.78324833112E+00 -0.32934539668E+02  0.35468823791E+02  0.41800000000E+01 0. -1.
        -11    1    1    2    0    0 -0.27242023853E+02  0.22594688884E+02 -0.21847914295E+02  0.41593018506E+02  0.00000000000E+00 0.  1.
         11    1    1    2    0    0  0.75958910202E+02  0.98004059672E+02 -0.81574080075E+02  0.14842129999E+03  0.00000000000E+00 0. -1.
</event>
<event>
 7    1  0.2842702E-009  0.2231731E+03  0.7561462E-02  0.1131539E+00
          2   -1    0    0  501    0  0.00000000000E+00  0.00000000000E+00  0.87623775546E+02  0.87623775546E+02  0.00000000000E+00 0. -1.
         -2   -1    0    0    0  501 -0.00000000000E+00 -0.00000000000E+00 -0.67380148643E+03  0.67380148643E+03  0.00000000000E+00 0.  1.
         25    2    1    2    0    0  0.16445746071E+03 -0.11141270513E+03 -0.43859664893E+03  0.49746761392E+03  0.12509180308E+03 0.  0.
          5    1    3    3  502    0 -0.19894839138E+02 -0.70588316168E+01 -0.26906044791E+02  0.34453437773E+02  0.41800000000E+01 0. -1.
         -5    1    3    3    0  502  0.18435229985E+03 -0.10435387351E+03 -0.41169060414E+03  0.46301417615E+03  0.41800000000E+01 0. -1.
        -11    1    1    2    0    0 -0.65587717148E+01  0.38450260177E+02 -0.53481681011E+02  0.66194638740E+02  0.00000000000E+00 0.  1.
         11    1    1    2    0    0 -0.15789868900E+03  0.72962444953E+02 -0.94099380947E+02  0.19776300932E+03  0.00000000000E+00 0. -1.
</event>
<event>
 7    1  0.2842702E-009  0.8270440E+02  0.7561462E-02  0.1321547E+00
         -2   -1    0    0    0  501 -0.00000000000E+00  0.00000000000E+00  0.74665116981E+02  0.74665116981E+02  0.00000000000E+00 0.  1.
          2   -1    0    0  501    0  0.00000000000E+00 -0.00000000000E+00 -0.21866534915E+03  0.21866534915E+03  0.00000000000E+00 0. -1.
         25    2    1    2    0    0 -0.87614934396E+00 -0.14198237914E+02 -0.14507533750E+03  0.19208526975E+03  0.12509012633E+03 0.  0.
          5    1    3    3  502    0 -0.21789743667E+01 -0.64643283056E+02 -0.11809171610E+03  0.13470941981E+03  0.41800000000E+01 0. -1.
         -5    1    3    3    0  502  0.13028250228E+01  0.50445045142E+02 -0.26983621400E+02  0.57375849940E+02  0.41800000000E+01 0. -1.
        -11    1    1    2    0    0 -0.23295767409E+02  0.10315213919E+02  0.44567533073E+02  0.51335771365E+02  0.00000000000E+00 0.  1.
         11    1    1    2    0    0  0.24171916753E+02  0.38830239946E+01 -0.43492427742E+02  0.49909425019E+02  0.00000000000E+00 0. -1.
</event>
<event>
 7    1  0.2842702E-009  0.1512483E+03  0.7561462E-02  0.1198947E+00
          2   -1    0    0  501    0  0.00000000000E+00  0.00000000000E+00  0.34967221068E+02  0.34967221068E+02  0.00000000000E+00 0. -1.
         -2   -1    0    0    0  501 -0.00000000000E+00 -0.00000000000E+00 -0.81384839970E+03  0.81384839970E+03  0.00000000000E+00 0.  1.
         25    2    1    2    0    0 -0.23780798093E+02  0.11750844073E+03 -0.53063020372E+03  0.55820202964E+03  0.12508929931E+03 0.  0.
          5    1    3    3  502    0 -0.59266267507E+02  0.10397832848E+02 -0.19024040947E+03  0.19957327273E+03  0.41800000000E+01 0.  1.
         -5    1    3    3    0  502  0.35485469414E+02  0.10711060788E+03 -0.34038979425E+03  0.35862875691E+03  0.41800000000E+01 0.  1.
        -11    1    1    2    0    0 -0.14104109826E+02 -0.48902996268E+02 -0.17878286067E+03  0.18588636374E+03  0.00000000000E+00 0.  1.
         11    1    1    2    0    0  0.37884907919E+02 -0.68605444461E+02 -0.69468114253E+02  0.10472722738E+03  0.00000000000E+00 0. -1.
</event>
<event>
 7    1  0.2842702E-009  0.1499871E+03  0.7561462E-02  0.1200489E+00
         -3   -1    0    0    0  501 -0.00000000000E+00  0.00000000000E+00  0.13784187956E+03  0.13784187956E+03  0.00000000000E+00 0.  1.
          3   -1    0    0  501    0  0.00000000000E+00 -0.00000000000E+00 -0.18953964186E+03  0.18953964186E+03  0.00000000000E+00 0. -1.
         25    2    1    2    0    0  0.11626151892E+03  0.34757340730E+02  0.72567379636E+01  0.17443253248E+03  0.12509690094E+03 0.  0.
          5    1    3    3  502    0 -0.49050437036E+01  0.47478093182E+02  0.19885138748E+02  0.51876005329E+02  0.41800000000E+01 0.  1.
         -5    1    3    3    0  502  0.12116656262E+03 -0.12720752451E+02 -0.12628400784E+02  0.12255652715E+03  0.41800000000E+01 0.  1.
        -11    1    1    2    0    0 -0.82896941655E+02 -0.13012994509E+01 -0.64952331434E+02  0.10532047130E+03  0.00000000000E+00 0. -1.
         11    1    1    2    0    0 -0.33364577263E+02 -0.33456041279E+02  0.59978311740E+01  0.47628517642E+02  0.00000000000E+00 0.  1.
</event>
<event>
 7    1  0.2842702E-009  0.5710831E+02  0.7561462E-02  0.1410384E+00
         -1   -1    0    0    0  501 -0.00000000000E+00  0.00000000000E+00  0.74665562438E+02  0.74665562438E+02  0.00000000000E+00 0.  1.
          1   -1    0    0  501    0  0.00000000000E+00 -0.00000000000E+00 -0.19453232966E+03  0.19453232966E+03  0.00000000000E+00 0. -1.
         25    2    1    2    0    0  0.17239639297E+01 -0.28557248981E+02 -0.11819241143E+03  0.17445741586E+03  0.12508978899E+03 0.  0.
          5    1    3    3  502    0 -0.12310212025E+01 -0.19560409812E+02  0.24352059442E+02  0.31537600484E+02  0.41800000000E+01 0.  1.
         -5    1    3    3    0  502  0.29549851323E+01 -0.89968391696E+01 -0.14254447087E+03  0.14291981538E+03  0.41800000000E+01 0.  1.
        -11    1    1    2    0    0  0.67280574220E+01  0.55336559831E+02  0.20046326529E+02  0.59238980561E+02  0.00000000000E+00 0.  1.
         11    1    1    2    0    0 -0.84520213517E+01 -0.26779310850E+02 -0.21720682322E+02  0.35501495673E+02  0.00000000000E+00 0. -1.
</event>
<event>
 7    1  0.2842702E-009  0.1339579E+03  0.7561462E-02  0.1221698E+00
          1   -1    0    0  501    0  0.00000000000E+00  0.00000000000E+00  0.16758928738E+03  0.16758928738E+03  0.00000000000E+00 0. -1.
         -1   -1    0    0    0  501 -0.00000000000E+00 -0.00000000000E+00 -0.14536775244E+03  0.14536775244E+03  0.00000000000E+00 0.  1.
         25    2    1    2    0    0  0.42491480002E+02 -0.88430228854E+02  0.64816612211E+02  0.17167074617E+03  0.12507685887E+03 0.  0.
          5    1    3    3  502    0  0.16011168572E+02  0.31760111322E+02  0.13884787768E+02  0.38409919572E+02  0.41800000000E+01 0. -1.
         -5    1    3    3    0  502  0.26480311430E+02 -0.12019034018E+03  0.50931824443E+02  0.13326082660E+03  0.41800000000E+01 0. -1.
        -11    1    1    2    0    0 -0.41018518021E+02  0.30760993403E+02  0.21017079903E+02  0.55411868616E+02  0.00000000000E+00 0. -1.
         11    1    1    2    0    0 -0.14729619806E+01  0.57669235451E+02 -0.63612157177E+02  0.85874425035E+02  0.00000000000E+00 0.  1.
</event>
<event>
 7    1  0.2842702E-009  0.1343950E+03  0.7561462E-02  0.1221076E+00
         -1   -1    0    0    0  501 -0.00000000000E+00  0.00000000000E+00  0.15805957621E+03  0.15805957621E+03  0.00000000000E+00 0.  1.
          1   -1    0    0  501    0  0.00000000000E+00 -0.00000000000E+00 -0.13153446898E+03  0.13153446898E+03  0.00000000000E+00 0. -1.
         25    2    1    2    0    0  0.86503644377E+02 -0.34043563033E+02  0.30275934475E+02  0.15876100780E+03  0.12508629308E+03 0.  0.
          5    1    3    3  502    0  0.81803332324E+02 -0.68083518554E+02  0.51340891119E+02  0.11823920745E+03  0.41800000000E+01 0. -1.
         -5    1    3    3    0  502  0.47003120525E+01  0.34039955521E+02 -0.21064956644E+02  0.40521800351E+02  0.41800000000E+01 0. -1.
        -11    1    1    2    0    0 -0.72295597776E+02  0.62687214446E+02  0.96301514472E+01  0.96172138011E+02  0.00000000000E+00 0. -1.
         11    1    1    2    0    0 -0.14208046601E+02 -0.28643651413E+02 -0.13380978697E+02  0.34660899374E+02  0.00000000000E+00 0.  1.
</event>
<event>
 7    1  0.2842702E-009  0.8361318E+02  0.7561462E-02  0.1319100E+00
         -1   -1    0    0    0  501 -0.00000000000E+00  0.00000000000E+00  0.16084931251E+03  0.16084931251E+03  0.00000000000E+00 0.  1.
          1   -1    0    0  501    0  0.00000000000E+00 -0.00000000000E+00 -0.93272887245E+02  0.93272887245E+02  0.00000000000E+00 0. -1.
         25    2    1    2    0    0 -0.60088198417E+01  0.31458272572E+01 -0.20361488766E+02  0.12691694577E+03  0.12508924316E+03 0.  0.
          5    1    3    3  502    0  0.25767101933E+02 -0.22395707455E+02  0.40756910334E+02  0.53330192147E+02  0.41800000000E+01 0. -1.
         -5    1    3    3    0  502 -0.31775921775E+02  0.25541534713E+02 -0.61118399100E+02  0.73586753622E+02  0.41800000000E+01 0. -1.
        -11    1    1    2    0    0  0.32800716109E+01  0.44251898030E+02  0.40113135565E+02  0.59816828685E+02  0.00000000000E+00 0. -1.
         11    1    1    2    0    0  0.27287482308E+01 -0.47397725287E+02  0.47824778471E+02  0.67388425305E+02  0.00000000000E+00 0.  1.
</event>
<event>
 7    1  0.2842702E-009  0.1162538E+03  0.7561462E-02  0.1249408E+00
         -2   -1    0    0    0  501 -0.00000000000E+00  0.00000000000E+00  0.21256408088E+02  0.21256408088E+02  0.00000000000E+00 0.  1.
          2   -1    0    0  501    0  0.00000000000E+00 -0.00000000000E+00 -0.97846536143E+03  0.97846536143E+03  0.00000000000E+00 0. -1.
         25    2    1    2    0    0 -0.33890092762E+02  0.58200630141E+02 -0.75529493803E+03  0.76854023968E+03  0.12509118615E+03 0.  0.
          5    1    3    3  502    0 -0.77325144825E+02  0.15877853117E+02 -0.35815114464E+03  0.36677104445E+03  0.41800000000E+01 0. -1.
         -5    1    3    3    0  502  0.43435052063E+02  0.42322777023E+02 -0.39714379339E+03  0.40176919522E+03  0.41800000000E+01 0. -1.
        -11    1    1    2    0    0  0.52703457812E+02 -0.37412993129E+02 -0.19004667891E+03  0.20073646078E+03  0.00000000000E+00 0. -1.
         11    1    1    2    0    0 -0.18813365049E+02 -0.20787637012E+02 -0.11867336400E+02  0.30445069063E+02  0.00000000000E+00 0.  1.
</event>
<event>
 7    1  0.2842702E-009  0.9947303E+02  0.7561462E-02  0.1281408E+00
          3   -1    0    0  501    0  0.00000000000E+00  0.00000000000E+00  0.11858737254E+03  0.11858737254E+03  0.00000000000E+00 0. -1.
         -3   -1    0    0    0  501 -0.00000000000E+00 -0.00000000000E+00 -0.10772623142E+03  0.10772623142E+03  0.00000000000E+00 0.  1.
         25    2    1    2    0    0  0.50521643080E+01 -0.12970606660E+02 -0.21359985993E+02  0.12765912214E+03  0.12508733534E+03 0.  0.
          5    1    3    3  502    0 -0.47115066003E+02 -0.27657025098E+02 -0.42493646553E+02  0.69339187182E+02  0.41800000000E+01 0. -1.
         -5    1    3    3    0  502  0.52167230311E+02  0.14686418438E+02  0.21133660560E+02  0.58319934958E+02  0.41800000000E+01 0. -1.
        -11    1    1    2    0    0  0.13356245117E+02 -0.35510482733E+02  0.26933302651E+02  0.46527265762E+02  0.00000000000E+00 0. -1.
         11    1    1    2    0    0 -0.18408409425E+02  0.48481089393E+02  0.52878244590E+01  0.52127216056E+02  0.00000000000E+00 0.  1.
</event>
<event>
 7    1  0.2842702E-009  0.1394936E+03  0.7561462E-02  0.1214012E+00
          1   -1    0    0  501    0  0.00000000000E+00  0.00000000000E+00  0.64325905385E+03  0.64325905385E+03  0.00000000000E+00 0. -1.
         -1   -1    0    0    0  501 -0.00000000000E+00 -0.00000000000E+00 -0.78333968499E+02  0.78333968499E+02  0.00000000000E+00 0.  1.
         25    2    1    2    0    0 -0.11369632395E+03  0.62095473750E+01  0.53893942809E+03  0.56486161597E+03  0.12509006953E+03 0.  0.
          5    1    3    3  502    0 -0.34402677544E+01  0.45201345574E+02  0.23085625515E+03  0.23530210374E+03  0.41800000000E+01 0.  1.
         -5    1    3    3    0  502 -0.11025605620E+03 -0.38991798199E+02  0.30808317294E+03  0.32955951223E+03  0.41800000000E+01 0.  1.
        -11    1    1    2    0    0  0.61373772383E+02  0.88149256227E+01 -0.38000396136E+02  0.72721887742E+02  0.00000000000E+00 0.  1.
         11    1    1    2    0    0  0.52322551567E+02 -0.15024472998E+02  0.63986053402E+02  0.84009518635E+02  0.00000000000E+00 0. -1.
</event>
<event>
 7    1  0.2842702E-009  0.2863899E+03  0.7561462E-02  0.1092249E+00
         -1   -1    0    0    0  501 -0.00000000000E+00  0.00000000000E+00  0.18073259403E+03  0.18073259403E+03  0.00000000000E+00 0.  1.
          1   -1    0    0  501    0  0.00000000000E+00 -0.00000000000E+00 -0.47898841067E+03  0.47898841067E+03  0.00000000000E+00 0. -1.
         25    2    1    2    0    0 -0.24584761934E+03 -0.10733793988E+03 -0.20804544470E+03  0.36179101522E+03  0.12508935350E+03 0.  0.
          5    1    3    3  502    0 -0.23317730816E+03 -0.61313080982E+02 -0.19981763209E+03  0.31317009665E+03  0.41800000000E+01 0.  1.
         -5    1    3    3    0  502 -0.12670311172E+02 -0.46024858899E+02 -0.82278126135E+01  0.48620918567E+02  0.41800000000E+01 0.  1.
        -11    1    1    2    0    0  0.11940719180E+03  0.24407692342E+01 -0.43827113425E+02  0.12721969454E+03  0.00000000000E+00 0. -1.
         11    1    1    2    0    0  0.12644042753E+03  0.10489717065E+03 -0.46383258510E+02  0.17071029493E+03  0.00000000000E+00 0.  1.
</event>
<event>
 7    1  0.2842702E-009  0.1182643E+03  0.7561462E-02  0.1245988E+00
         -1   -1    0    0    0  501 -0.00000000000E+00  0.00000000000E+00  0.49333292171E+03  0.49333292171E+03  0.00000000000E+00 0.  1.
          1   -1    0    0  501    0  0.00000000000E+00 -0.00000000000E+00 -0.38461034263E+02  0.38461034263E+02  0.00000000000E+00 0. -1.
         25    2    1    2    0    0 -0.55953642688E+02  0.21076855173E+02  0.13249615828E+03  0.19177627665E+03  0.12509142406E+03 0.  0.
          5    1    3    3  502    0 -0.27765964619E+02 -0.52301894147E+02  0.48462481475E+02  0.76632378492E+02  0.41800000000E+01 0.  1.
         -5    1    3    3    0  502 -0.28187678068E+02  0.73378749320E+02  0.84033676804E+02  0.11514389816E+03  0.41800000000E+01 0.  1.
        -11    1    1    2    0    0  0.60108515959E+02 -0.44418621423E+02  0.29239104798E+03  0.30179226723E+03  0.00000000000E+00 0.  1.
         11    1    1    2    0    0 -0.41548732711E+01  0.23341766250E+02  0.29984681182E+02  0.38225412086E+02  0.00000000000E+00 0. -1.
</event>
<event>
 7    1  0.2842702E-009  0.1499135E+03  0.7561462E-02  0.1200579E+00
          3   -1    0    0  501    0  0.00000000000E+00  0.00000000000E+00  0.31233231942E+03  0.31233231942E+03  0.00000000000E+00 0. -1.
         -3   -1    0    0    0  501 -0.00000000000E+00 -0.00000000000E+00 -0.82073277441E+02  0.82073277441E+02  0.00000000000E+00 0.  1.
         25    2    1    2    0    0 -0.43912335114E+01  0.11722979092E+03  0.13826359458E+03  0.22028763594E+03  0.12509082361E+03 0.  0.
          5    1    3    3  502    0  0.21801409818E+01  0.14371815331E+03  0.11335104286E+03  0.18309995063E+03  0.41800000000E+01 0. -1.
         -5    1    3    3    0  502 -0.65713744932E+01 -0.26488362394E+02  0.24912551728E+02  0.37187685310E+02  0.41800000000E+01 0. -1.
        -11    1    1    2    0    0  0.27877169649E+02 -0.50555594755E+02  0.85451531888E+02  0.10312598630E+03  0.00000000000E+00 0. -1.
         11    1    1    2    0    0 -0.23485936137E+02 -0.66674196160E+02  0.65439155076E+01  0.70991974617E+02  0.00000000000E+00 0.  1.
</event>
<event>
 7    1  0.2842702E-009  0.1902722E+03  0.7561462E-02  0.1158216E+00
          2   -1    0    0  501    0  0.00000000000E+00  0.00000000000E+00  0.17678251894E+03  0.17678251894E+03  0.00000000000E+00 0. -1.
         -2   -1    0    0    0  501 -0.00000000000E+00 -0.00000000000E+00 -0.37820963924E+03  0.37820963924E+03  0.00000000000E+00 0.  1.
         25    2    1    2    0    0  0.16936999509E+03  0.21401600897E+02  0.69551580752E+02  0.22277348002E+03  0.12508547981E+03 0.  0.
          5    1    3    3  502    0  0.59344239309E+02  0.49354386890E+02 -0.17982254740E+02  0.79362636864E+02  0.41800000000E+01 0.  1.
         -5    1    3    3    0  502  0.11002575578E+03 -0.27952785992E+02  0.87533835492E+02  0.14341084316E+03  0.41800000000E+01 0.  1.
        -11    1    1    2    0    0  0.11438775440E+01  0.15205704098E+02 -0.39902600055E+02  0.42716968339E+02  0.00000000000E+00 0.  1.
         11    1    1    2    0    0 -0.17051387263E+03 -0.36607304995E+02 -0.23107610100E+03  0.28950170982E+03  0.00000000000E+00 0. -1.
</event>
<event>
 7    1  0.2842702E-009  0.1266014E+03  0.7561462E-02  0.1232588E+00
          3   -1    0    0  501    0  0.00000000000E+00  0.00000000000E+00  0.20585856398E+03  0.20585856398E+03  0.00000000000E+00 0. -1.
         -3   -1    0    0    0  501 -0.00000000000E+00 -0.00000000000E+00 -0.98264690865E+02  0.98264690865E+02  0.00000000000E+00 0.  1.
         25    2    1    2    0    0 -0.92328380461E+02 -0.19286051802E+02  0.57538221696E+02  0.16689842135E+03  0.12509178415E+03 0.  0.
          5    1    3    3  502    0 -0.48155316582E+02 -0.56668605375E+02 -0.12953065969E+02  0.75601055999E+02  0.41800000000E+01 0. -1.
         -5    1    3    3    0  502 -0.44173063880E+02  0.37382553573E+02  0.70491287664E+02  0.91297365355E+02  0.41800000000E+01 0. -1.
        -11    1    1    2    0    0  0.22362281004E+02 -0.28312705570E+02 -0.47726152706E+01  0.36393114251E+02  0.00000000000E+00 0.  1.
         11    1    1    2    0    0  0.69966099457E+02  0.47598757372E+02  0.54828266690E+02  0.10083171924E+03  0.00000000000E+00 0. -1.
</event>
<event>
 7    1  0.2842702E-009  0.1067091E+03  0.7561462E-02  0.1266788E+00
          1   -1    0    0  501    0  0.00000000000E+00  0.00000000000E+00  0.27188467144E+03  0.27188467144E+03  0.00000000000E+00 0. -1.
         -1   -1    0    0    0  501 -0.00000000000E+00 -0.00000000000E+00 -0.80184633432E+02  0.80184633432E+02  0.00000000000E+00 0.  1.
         25    2    1    2    0    0  0.31744700291E+02  0.69392818358E+00  0.21657428395E+03  0.25211147058E+03  0.12509022983E+03 0.  0.
          5    1    3    3  502    0  0.35414418856E+01  0.61552147301E+02  0.10004057069E+03  0.11758740083E+03  0.41800000000E+01 0.  1.
         -5    1    3    3    0  502  0.28203258406E+02 -0.60858219117E+02  0.11653371325E+03  0.13452406975E+03  0.41800000000E+01 0.  1.
        -11    1    1    2    0    0  0.20873671128E+02 -0.19474275439E+02  0.14097770113E+02  0.31838729127E+02  0.00000000000E+00 0. -1.
         11    1    1    2    0    0 -0.52618371420E+02  0.18780347256E+02 -0.38972016050E+02  0.68119105168E+02  0.00000000000E+00 0.  1.
</event>
<event>
 7    1  0.2842702E-009  0.1709920E+03  0.7561462E-02  0.1176817E+00
          2   -1    0    0  501    0  0.00000000000E+00  0.00000000000E+00  0.88761365750E+03  0.88761365750E+03  0.00000000000E+00 0. -1.
         -2   -1    0    0    0  501 -0.00000000000E+00 -0.00000000000E+00 -0.52869541268E+02  0.52869541268E+02  0.00000000000E+00 0.  1.
         25    2    1    2    0    0  0.15702811612E+03 -0.25960309721E+02  0.21983202339E+03  0.29883902706E+03  0.12508748400E+03 0.  0.
          5    1    3    3  502    0  0.10663506522E+03 -0.22205045582E+02  0.22281229893E+03  0.24804615324E+03  0.41800000000E+01 0.  1.
         -5    1    3    3    0  502  0.50393050904E+02 -0.37552641397E+01 -0.29802755435E+01  0.50792873816E+02  0.41800000000E+01 0.  1.
        -11    1    1    2    0    0 -0.70572900745E+02  0.56689448245E+02  0.33888189177E+03  0.35076368745E+03  0.00000000000E+00 0.  1.
         11    1    1    2    0    0 -0.86455215374E+02 -0.30729138524E+02  0.27603020107E+03  0.29088048426E+03  0.00000000000E+00 0. -1.
</event>
<event>
 7    1  0.2842702E-009  0.1046703E+03  0.7561462E-02  0.1270771E+00
          2   -1    0    0  501    0  0.00000000000E+00  0.00000000000E+00  0.32295532785E+02  0.32295532785E+02  0.00000000000E+00 0. -1.
         -2   -1    0    0    0  501 -0.00000000000E+00 -0.00000000000E+00 -0.40794933742E+03  0.40794933742E+03  0.00000000000E+00 0.  1.
         25    2    1    2    0    0 -0.75278776535E+01  0.59754205210E+01 -0.14243729601E+03  0.18980972461E+03  0.12508786380E+03 0.  0.
          5    1    3    3  502    0  0.48897846439E+02  0.31287691575E+02 -0.41953412178E+02  0.71745942212E+02  0.41800000000E+01 0.  1.
         -5    1    3    3    0  502 -0.56425724092E+02 -0.25312271054E+02 -0.10048388383E+03  0.11806378240E+03  0.41800000000E+01 0.  1.
        -11    1    1    2    0    0 -0.33944897069E+02 -0.26327087136E+02 -0.13926761735E+03  0.14574237817E+03  0.00000000000E+00 0.  1.
         11    1    1    2    0    0  0.41472774723E+02  0.20351666615E+02 -0.93948891277E+02  0.10469276742E+03  0.00000000000E+00 0. -1.
</event>
<event>
 7    1  0.2842702E-009  0.1769681E+03  0.7561462E-02  0.1170770E+00
          1   -1    0    0  501    0  0.00000000000E+00  0.00000000000E+00  0.49183864297E+02  0.49183864297E+02  0.00000000000E+00 0. -1.
         -1   -1    0    0    0  501 -0.00000000000E+00 -0.00000000000E+00 -0.91958626554E+03  0.91958626554E+03  0.00000000000E+00 0.  1.
         25    2    1    2    0    0  0.15415906571E+03 -0.53628909137E+02 -0.27498157858E+03  0.34336706760E+03  0.12507996289E+03 0.  0.
          5    1    3    3  502    0  0.12126254826E+03  0.38961193991E+01 -0.10367548312E+03  0.15964292517E+03  0.41800000000E+01 0. -1.
         -5    1    3    3    0  502  0.32896517450E+02 -0.57525028536E+02 -0.17130609546E+03  0.18372414243E+03  0.41800000000E+01 0. -1.
        -11    1    1    2    0    0 -0.19701461698E+02  0.18829578688E+02 -0.20930761493E+02  0.34362732768E+02  0.00000000000E+00 0. -1.
         11    1    1    2    0    0 -0.13445760402E+03  0.34799330449E+02 -0.57449006117E+03  0.59104032947E+03  0.00000000000E+00 0.  1.
</event>
<event>
 7    1  0.2842702E-009  0.1167887E+03  0.7561462E-02  0.1248491E+00
          2   -1    0    0  501    0  0.00000000000E+00  0.00000000000E+00  0.37777232762E+03  0.37777232762E+03  0.00000000000E+00 0. -1.
         -2   -1    0    0    0  501 -0.00000000000E+00 -0.00000000000E+00 -0.62705758923E+02  0.62705758923E+02  0.00000000000E+00 0.  1.
         25    2    1    2    0    0 -0.50748248476E+02 -0.40724730064E+02  0.44634492897E+02  0.14789551119E+03  0.12508779282E+03 0.  0.
          5    1    3    3  502    0 -0.66897292883E+02  0.26198056694E+02  0.20575707115E+02  0.74849302555E+02  0.41800000000E+01 0.  1.
         -5    1    3    3    0  502  0.16149044407E+02 -0.66922786757E+02  0.24058785781E+02  0.73046208635E+02  0.41800000000E+01 0.  1.
        -11    1    1    2    0    0  0.44213819441E+02  0.58715375380E+02  0.26117617156E+03  0.27132148777E+03  0.00000000000E+00 0. -1.
         11    1    1    2    0    0  0.65344290352E+01 -0.17990645317E+02  0.92559042329E+01  0.21261087576E+02  0.00000000000E+00 0.  1.
</event>
<event>
 7    1  0.2842702E-009  0.1159526E+03  0.7561462E-02  0.1249927E+00
          1   -1    0    0  501    0  0.00000000000E+00  0.00000000000E+00  0.27906093317E+03  0.27906093317E+03  0.00000000000E+00 0. -1.
         -1   -1    0    0    0  501 -0.00000000000E+00 -0.00000000000E+00 -0.53663497686E+02  0.53663497686E+02  0.00000000000E+00 0.  1.
         25    2    1    2    0    0  0.41076254590E+02 -0.28055504077E+02  0.16291077797E+03  0.21133389249E+03  0.12509085713E+03 0.  0.
          5    1    3    3  502    0 -0.31266051323E+02  0.28621044151E+02  0.49505577213E+02  0.65307003521E+02  0.41800000000E+01 0.  1.
         -5    1    3    3    0  502  0.72342305913E+02 -0.56676548228E+02  0.11340520076E+03  0.14602688897E+03  0.41800000000E+01 0.  1.
        -11    1    1    2    0    0  0.25615852390E+02  0.19252836958E+01  0.37649704190E+02  0.45578271540E+02  0.00000000000E+00 0. -1.
         11    1    1    2    0    0 -0.66692106979E+02  0.26130220382E+02  0.24836953323E+02  0.75812266823E+02  0.00000000000E+00 0.  1.
</event>
<event>
 7    1  0.2842702E-009  0.1862895E+03  0.7561462E-02  0.1161851E+00
          1   -1    0    0  501    0  0.00000000000E+00  0.00000000000E+00  0.16677921739E+03  0.16677921739E+03  0.00000000000E+00 0. -1.
         -1   -1    0    0    0  501 -0.00000000000E+00 -0.00000000000E+00 -0.22836036166E+03  0.22836036166E+03  0.00000000000E+00 0.  1.
         25    2    1    2    0    0 -0.81179279326E+02 -0.13515266450E+03  0.40358807137E+01  0.20129655862E+03  0.12509075931E+03 0.  0.
          5    1    3    3  502    0 -0.69058211375E+02 -0.38157465261E+01  0.71048655855E+00  0.69293388364E+02  0.41800000000E+01 0. -1.
         -5    1    3    3    0  502 -0.12121067952E+02 -0.13133691797E+03  0.33253941552E+01  0.13200317025E+03  0.41800000000E+01 0. -1.
        -11    1    1    2    0    0  0.14328131583E+02  0.88873302101E+02 -0.67495741467E+02  0.11251415154E+03  0.00000000000E+00 0.  1.
         11    1    1    2    0    0  0.66851147743E+02  0.46279362397E+02  0.18787164834E+01  0.81328868885E+02  0.00000000000E+00 0. -1.
</event>
<event>
 7    1  0.2842702E-009  0.1302675E+03  0.7561462E-02  0.1227059E+00
          1   -1    0    0  501    0  0.00000000000E+00  0.00000000000E+00  0.58765944626E+02  0.58765944626E+02  0.00000000000E+00 0. -1.
         -1   -1    0    0    0  501 -0.00000000000E+00 -0.00000000000E+00 -0.37596994253E+03  0.37596994253E+03  0.00000000000E+00 0.  1.
         25    2    1    2    0    0  0.53838237270E+02 -0.82132149859E+02 -0.21305262008E+03  0.26586214060E+03  0.12508802121E+03 0.  0.
          5    1    3    3  502    0 -0.20110708906E+02  0.22700939796E+02 -0.38213949258E+02  0.48964799583E+02  0.41800000000E+01 0.  1.
         -5    1    3    3    0  502  0.73948946176E+02 -0.10483308966E+03 -0.17483867082E+03  0.21689734102E+03  0.41800000000E+01 0.  1.
        -11    1    1    2    0    0 -0.21050796083E+02  0.12213232641E+02 -0.86227424124E+02  0.89596136850E+02  0.00000000000E+00 0.  1.
         11    1    1    2    0    0 -0.32787441187E+02  0.69918917217E+02 -0.17923953704E+02  0.79277609707E+02  0.00000000000E+00 0. -1.
</event>
<event>
 7    1  0.2842702E-009  0.2236189E+03  0.7561462E-02  0.1131213E+00
         -1   -1    0    0    0  501 -0.00000000000E+00  0.00000000000E+00  0.11811592379E+03  0.11811592379E+03  0.00000000000E+00 0.  1.
          1   -1    0    0  501    0  0.00000000000E+00 -0.00000000000E+00 -0.50754906271E+03  0.50754906271E+03  0.00000000000E+00 0. -1.
         25    2    1    2    0    0 -0.16774932069E+03 -0.11838370354E+03 -0.29101214120E+03  0.37747820628E+03  0.12508874465E+03 0.  0.
          5    1    3    3  502    0 -0.11000628529E+03 -0.13294487870E+03 -0.16860548769E+03  0.24129029499E+03  0.41800000000E+01 0.  1.
         -5    1    3    3    0  502 -0.57743035401E+02  0.14561175163E+02 -0.12240665351E+03  0.13618791129E+03  0.41800000000E+01 0.  1.
        -11    1    1    2    0    0  0.97691431429E+02  0.30086803795E+02 -0.59462968215E+01  0.10239233361E+03  0.00000000000E+00 0.  1.
         11    1    1    2    0    0  0.70057889262E+02  0.88296899745E+02 -0.92474700904E+02  0.14579444660E+03  0.00000000000E+00 0. -1.
</event>
<event>
 6    1  0.2842702E-009  0.8582328E+02  0.7561462E-02  0.1313294E+00
         -1   -1    0    0    0  501 -0.00000000000E+00  0.00000000000E+00  0.12115624490E+02  0.12115624490E+02  0.00000000000E+00 0.  1.
          1   -1    0    0  501    0  0.00000000000E+00 -0.00000000000E+00 -0.96609888409E+03  0.96609888409E+03  0.00000000000E+00 0. -1.
          5    1    1    2  502    0 -0.44077120726E+02  0.98186527636E+01 -0.74127689664E+02  0.86899857816E+02  0.41800000000E+01 0.  1.
         -5    1    1    2    0  502  0.35417399157E+02 -0.57010805444E+01 -0.47608909703E+03  0.47745700874E+03  0.41800000000E+01 0.  1.
        -11    1    1    2    0    0  0.47368106389E+02  0.10992695041E+02 -0.19278409311E+03  0.19882224071E+03  0.00000000000E+00 0.  1.
         11    1    1    2    0    0 -0.38708384819E+02 -0.15110267260E+02 -0.21098237980E+03  0.21503540132E+03  0.00000000000E+00 0. -1.
</event>
<event>
 7    1  0.2842702E-009  0.1190252E+03  0.7561462E-02  0.1244714E+00
          2   -1    0    0  501    0  0.00000000000E+00  0.00000000000E+00  0.20930377183E+02  0.20930377183E+02  0.00000000000E+00 0. -1.
         -2   -1    0    0    0  501 -0.00000000000E+00 -0.00000000000E+00 -0.71175737739E+03  0.71175737739E+03  0.00000000000E+00 0.  1.
         25    2    1    2    0    0  0.23406376766E+02  0.51960324263E+02 -0.39573983212E+03  0.41893355808E+03  0.12509027776E+03 0.  0.
          5    1    3    3  502    0  0.29665021362E+02  0.91403616401E+02 -0.25353262798E+03  0.27116581723E+03  0.41800000000E+01 0. -1.
         -5    1    3    3    0  502 -0.62586445960E+01 -0.39443292138E+02 -0.14220720414E+03  0.14776774085E+03  0.41800000000E+01 0. -1.
        -11    1    1    2    0    0  0.25505855477E+02  0.56601143487E+01 -0.12389617083E+03  0.12662087784E+03  0.00000000000E+00 0.  1.
         11    1    1    2    0    0 -0.48912232243E+02 -0.57620438612E+02 -0.17119099726E+03  0.18713331866E+03  0.00000000000E+00 0. -1.
</event>
<event>
 7    1  0.2842702E-009  0.1855665E+03  0.7561462E-02  0.1162522E+00
          2   -1    0    0  501    0  0.00000000000E+00  0.00000000000E+00  0.95812666457E+03  0.95812666457E+03  0.00000000000E+00 0. -1.
         -2   -1    0    0    0  501 -0.00000000000E+00 -0.00000000000E+00 -0.36925293435E+02  0.36925293435E+02  0.00000000000E+00 0.  1.
         25    2    1    2    0    0  0.15317796820E+03  0.22907926712E+01  0.45593297605E+03  0.49698258956E+03  0.12509227792E+03 0.  0.
          5    1    3    3  502    0  0.80737849544E+02  0.60039199162E+02  0.18520274274E+03  0.21080994783E+03  0.41800000000E+01 0. -1.
         -5    1    3    3    0  502  0.72440118661E+02 -0.57748406491E+02  0.27073023332E+03  0.28617264173E+03  0.41800000000E+01 0. -1.
        -11    1    1    2    0    0 -0.25497407889E+02 -0.37410672741E+02  0.12442528400E+03  0.13240591959E+03  0.00000000000E+00 0. -1.
         11    1    1    2    0    0 -0.12768056032E+03  0.35119880070E+02  0.34084311108E+03  0.36566344885E+03  0.00000000000E+00 0.  1.
</event>
<event>
 7    1  0.2842702E-009  0.1369448E+03  0.7561462E-02  0.1217500E+00
         -2   -1    0    0    0  501 -0.00000000000E+00  0.00000000000E+00  0.19418054215E+02  0.19418054215E+02  0.00000000000E+00 0. -1.
          2   -1    0    0  501    0  0.00000000000E+00 -0.00000000000E+00 -0.13566122681E+04  0.13566122681E+04  0.00000000000E+00 0.  1.
         25    2    1    2    0    0  0.11510253700E+03  0.31156859680E+02 -0.77390264061E+03  0.79296435481E+03  0.12509127439E+03 0.  0.
          5    1    3    3  502    0  0.11578303935E+03  0.32130405349E+02 -0.37012406652E+03  0.38916239819E+03  0.41800000000E+01 0. -1.
         -5    1    3    3    0  502 -0.68050235123E+00 -0.97354566871E+00 -0.40377857409E+03  0.40380195662E+03  0.41800000000E+01 0. -1.
        -11    1    1    2    0    0 -0.77746136791E+02  0.25174746670E+02 -0.34514453989E+03  0.35468716226E+03  0.00000000000E+00 0. -1.
         11    1    1    2    0    0 -0.37356400207E+02 -0.56331606350E+02 -0.21814703339E+03  0.22837880525E+03  0.00000000000E+00 0.  1.
</event>
<event>
 7    1  0.2842702E-009  0.1128076E+03  0.7561462E-02  0.1255457E+00
          1   -1    0    0  501    0  0.00000000000E+00  0.00000000000E+00  0.22712460473E+03  0.22712460473E+03  0.00000000000E+00 0. -1.
         -1   -1    0    0    0  501 -0.00000000000E+00 -0.00000000000E+00 -0.79114182091E+02  0.79114182091E+02  0.00000000000E+00 0.  1.
         25    2    1    2    0    0 -0.40313943866E+02 -0.66222416972E+02  0.64344607619E+02  0.16061447893E+03  0.12508461030E+03 0.  0.
          5    1    3    3  502    0 -0.31161245399E+02  0.27121670685E+02 -0.77538930915E+01  0.42239833021E+02  0.41800000000E+01 0. -1.
         -5    1    3    3    0  502 -0.91526984677E+01 -0.93344087657E+02  0.72098500710E+02  0.11837464591E+03  0.41800000000E+01 0. -1.
        -11    1    1    2    0    0  0.16947858407E+02  0.64599882872E+02  0.97680393306E+02  0.11832934551E+03  0.00000000000E+00 0. -1.
         11    1    1    2    0    0  0.23366085460E+02  0.16225340996E+01 -0.14014578290E+02  0.27294962379E+02  0.00000000000E+00 0.  1.
</event>
<event>
 7    1  0.2842702E-009  0.1631030E+03  0.7561462E-02  0.1185237E+00
          1   -1    0    0  501    0  0.00000000000E+00  0.00000000000E+00  0.40770694571E+03  0.40770694571E+03  0.00000000000E+00 0. -1.
         -1   -1    0    0    0  501 -0.00000000000E+00 -0.00000000000E+00 -0.87269994023E+02  0.87269994023E+02  0.00000000000E+00 0.  1.
         25    2    1    2    0    0 -0.71515894597E+02 -0.13315391914E+03  0.13018480684E+03  0.23547137981E+03  0.12511673515E+03 0.  0.
          5    1    3    3  502    0 -0.50872960962E+02 -0.52530670667E+02 -0.84382708762E+01  0.73730633614E+02  0.41800000000E+01 0. -1.
         -5    1    3    3    0  502 -0.20642933635E+02 -0.80623248471E+02  0.13862307772E+03  0.16174074620E+03  0.41800000000E+01 0. -1.
        -11    1    1    2    0    0  0.88183736986E+02  0.11599335753E+03  0.18413749169E+03  0.23481364165E+03  0.00000000000E+00 0. -1.
         11    1    1    2    0    0 -0.16667842389E+02  0.17160561612E+02  0.61146531480E+01  0.24691918270E+02  0.00000000000E+00 0.  1.
</event>
<event>
 7    1  0.2842702E-009  0.1336282E+03  0.7561462E-02  0.1222169E+00
          1   -1    0    0  501    0  0.00000000000E+00  0.00000000000E+00  0.10400833168E+03  0.10400833168E+03  0.00000000000E+00 0. -1.
         -1   -1    0    0    0  501 -0.00000000000E+00 -0.00000000000E+00 -0.18242101166E+03  0.18242101166E+03  0.00000000000E+00 0.  1.
         25    2    1    2    0    0 -0.60672568675E+02 -0.86781967925E+01 -0.31553474632E+02  0.14280435919E+03  0.12506394985E+03 0.  0.
          5    1    3    3  502    0  0.37916257050E+02  0.84546607890E+01 -0.10568806427E+02  0.40475868206E+02  0.41800000000E+01 0.  1.
         -5    1    3    3    0  502 -0.98588825725E+02 -0.17132857581E+02 -0.20984668205E+02  0.10232849098E+03  0.41800000000E+01 0.  1.
        -11    1    1    2    0    0 -0.20366754015E+02 -0.31552766185E+02  0.71858149203E+01  0.38236339510E+02  0.00000000000E+00 0. -1.
         11    1    1    2    0    0  0.81039322690E+02  0.40230962977E+02 -0.54045020267E+02  0.10538864464E+03  0.00000000000E+00 0.  1.
</event>
<event>
 7    1  0.2842702E-009  0.9874156E+02  0.7561462E-02  0.1282965E+00
          2   -1    0    0  501    0  0.00000000000E+00  0.00000000000E+00  0.48245897266E+03  0.48245897266E+03  0.00000000000E+00 0. -1.
         -2   -1    0    0    0  501 -0.00000000000E+00 -0.00000000000E+00 -0.45046419110E+02  0.45046419110E+02  0.00000000000E+00 0.  1.
         25    2    1    2    0    0  0.51054501881E+01  0.59345950164E+02  0.38470555889E+03  0.40889482359E+03  0.12509437353E+03 0.  0.
          5    1    3    3  502    0  0.56042442709E+02  0.40322464528E+01  0.10422111265E+03  0.11847585036E+03  0.41800000000E+01 0.  1.
         -5    1    3    3    0  502 -0.50936992521E+02  0.55313703711E+02  0.28048444625E+03  0.29041897323E+03  0.41800000000E+01 0.  1.
        -11    1    1    2    0    0  0.95021143559E+01 -0.42425414808E+02  0.75222643444E+02  0.86882979263E+02  0.00000000000E+00 0. -1.
         11    1    1    2    0    0 -0.14607564544E+02 -0.16920535355E+02 -0.22515648787E+02  0.31727588923E+02  0.00000000000E+00 0.  1.
</event>
<event>
 7    1  0.2842702E-009  0.1674613E+03  0.7561462E-02  0.1180521E+00
          2   -1    0    0  501    0  0.00000000000E+00  0.00000000000E+00  0.32497300019E+03  0.32497300019E+03  0.00000000000E+00 0. -1.
         -2   -1    0    0    0  501 -0.00000000000E+00 -0.00000000000E+00 -0.91263989346E+02  0.91263989346E+02  0.00000000000E+00 0.  1.
         25    2    1    2    0    0 -0.59874988329E+02 -0.11930625916E+03  0.13956997729E+03  0.23011276884E+03  0.12511238996E+03 0.  0.
          5    1    3    3  502    0 -0.96456336392E+02 -0.99143099797E+02  0.12243060723E+03  0.18476987053E+03  0.41800000000E+01 0.  1.
         -5    1    3    3    0  502  0.36581348063E+02 -0.20163159360E+02  0.17139370055E+02  0.45342898312E+02  0.41800000000E+01 0.  1.
        -11    1    1    2    0    0  0.62120467881E+02  0.37171598711E+02  0.19147852695E+02  0.74882044199E+02  0.00000000000E+00 0.  1.
         11    1    1    2    0    0 -0.22454795521E+01  0.82134660445E+02  0.74991180859E+02  0.11124217650E+03  0.00000000000E+00 0. -1.
</event>
<event>
 7    1  0.2934395E-009  0.1117191E+03  0.7561462E-02  0.1257419E+00
          1   -1    0    0  501    0  0.00000000000E+00  0.00000000000E+00  0.11325519720E+04  0.11325519720E+04  0.00000000000E+00 0. -1.
         -1   -1    0    0    0  501 -0.00000000000E+00 -0.00000000000E+00 -0.17895090799E+02  0.17895090799E+02  0.00000000000E+00 0.  1.
         25    2    1    2    0    0  0.66264390198E+02  0.60531649533E+02  0.53638495731E+03  0.55804118506E+03  0.12508433870E+03 0.  0.
          5    1    3    3  502    0  0.52420985696E+02  0.66036944502E+02  0.15628897436E+03  0.17763038504E+03  0.41800000000E+01 0.  1.
         -5    1    3    3    0  502  0.13843404502E+02 -0.55052949682E+01  0.38009598295E+03  0.38041080002E+03  0.41800000000E+01 0.  1.
        -11    1    1    2    0    0 -0.54924248483E+02  0.67314823574E+01  0.17929134897E+03  0.18763628045E+03  0.00000000000E+00 0.  1.
         11    1    1    2    0    0 -0.11340141715E+02 -0.67263131891E+02  0.39898057490E+03  0.40476959727E+03  0.00000000000E+00 0. -1.
</event>
<event>
 7    1  0.2842702E-009  0.1306254E+03  0.7561462E-02  0.1226531E+00
          2   -1    0    0  501    0  0.00000000000E+00  0.00000000000E+00  0.97745136648E+02  0.97745136648E+02  0.00000000000E+00 0. -1.
         -2   -1    0    0    0  501 -0.00000000000E+00 -0.00000000000E+00 -0.30004857578E+03  0.30004857578E+03  0.00000000000E+00 0.  1.
         25    2    1    2    0    0  0.64907065953E+02 -0.88831975904E+02 -0.22408267084E+02  0.16808992039E+03  0.12509214103E+03 0.  0.
          5    1    3    3  502    0  0.70604409058E+02 -0.74621086115E+02  0.34937761122E+02  0.10858825270E+03  0.41800000000E+01 0. -1.
         -5    1    3    3    0  502 -0.56973431045E+01 -0.14210889789E+02 -0.57346028205E+02  0.59501667691E+02  0.41800000000E+01 0. -1.
        -11    1    1    2    0    0 -0.61491918998E+02  0.10736138964E+03 -0.16064693768E+03  0.20276874186E+03  0.00000000000E+00 0. -1.
         11    1    1    2    0    0 -0.34151469552E+01 -0.18529413738E+02 -0.19248234369E+02  0.26935050186E+02  0.00000000000E+00 0.  1.
</event>
<event>
 7    1  0.2842702E-009  0.2276246E+03  0.7561462E-02  0.1128323E+00
          2   -1    0    0  501    0  0.00000000000E+00  0.00000000000E+00  0.15555401700E+03  0.15555401700E+03  0.00000000000E+00 0. -1.
         -2   -1    0    0    0  501 -0.00000000000E+00 -0.00000000000E+00 -0.41001623145E+03  0.41001623145E+03  0.00000000000E+00 0.  1.
         25    2    1    2    0    0  0.12826105240E+02 -0.22547375297E+03 -0.96644716210E+02  0.27566800389E+03  0.12509886067E+03 0.  0.
          5    1    3    3  502    0 -0.59049972729E+01 -0.45778238123E+02  0.29806306206E+02  0.55103578541E+02  0.41800000000E+01 0.  1.
         -5    1    3    3    0  502  0.18731102513E+02 -0.17969551485E+03 -0.12645102242E+03  0.22056442535E+03  0.41800000000E+01 0.  1.
        -11    1    1    2    0    0 -0.21020003583E+02  0.20583779658E+03 -0.16780181078E+03  0.26639911178E+03  0.00000000000E+00 0.  1.
         11    1    1    2    0    0  0.81938983425E+01  0.19635956391E+02  0.99843125484E+01  0.23503132781E+02  0.00000000000E+00 0. -1.
</event>
<event>
 7    1  0.2842702E-009  0.1261627E+03  0.7561462E-02  0.1233263E+00
         -3   -1    0    0    0  501 -0.00000000000E+00  0.00000000000E+00  0.53736236434E+02  0.53736236434E+02  0.00000000000E+00 0.  1.
          3   -1    0    0  501    0  0.00000000000E+00 -0.00000000000E+00 -0.44432375926E+03  0.44432375926E+03  0.00000000000E+00 0. -1.
         25    2    1    2    0    0 -0.55810001010E+02  0.49784404524E+02 -0.33895835027E+03  0.36896248917E+03  0.12508921638E+03 0.  0.
          5    1    3    3  502    0 -0.91457352598E+02  0.58125468898E+02 -0.23989977396E+03  0.26327246613E+03  0.41800000000E+01 0.  1.
         -5    1    3    3    0  502  0.35647351587E+02 -0.83410643733E+01 -0.99058576310E+02  0.10569002304E+03  0.41800000000E+01 0.  1.
        -11    1    1    2    0    0  0.37711400190E+02  0.14382544806E+02  0.62084781954E+01  0.40835676815E+02  0.00000000000E+00 0.  1.
         11    1    1    2    0    0  0.18098600820E+02 -0.64166949331E+02 -0.57837650752E+02  0.88261829704E+02  0.00000000000E+00 0. -1.
</event>
<event>
 7    1  0.2892179E-009  0.9888047E+02  0.7561462E-02  0.1282668E+00
         -1   -1    0    0    0  501 -0.00000000000E+00  0.00000000000E+00  0.56968732769E+02  0.56968732769E+02  0.00000000000E+00 0.  1.
          1   -1    0    0  501    0  0.00000000000E+00 -0.00000000000E+00 -0.28004895249E+03  0.28004895249E+03  0.00000000000E+00 0. -1.
         25    2    1    2    0    0 -0.47950139645E+02  0.18355744941E+02 -0.17685953158E+03  0.22262771816E+03  0.12509059804E+03 0.  0.
          5    1    3    3  502    0  0.25205804805E+02 -0.35882394741E+02 -0.56888690555E+02  0.71949109524E+02  0.41800000000E+01 0.  1.
         -5    1    3    3    0  502 -0.73155944449E+02  0.54238139682E+02 -0.11997084102E+03  0.15067860864E+03  0.41800000000E+01 0.  1.
        -11    1    1    2    0    0  0.18819242257E+02  0.10494238247E+02  0.24510526987E+02  0.32635239369E+02  0.00000000000E+00 0.  1.
         11    1    1    2    0    0  0.29130897387E+02 -0.28849983188E+02 -0.70731215128E+02  0.81754727729E+02  0.00000000000E+00 0. -1.
</event>
<event>
 7    1  0.2842702E-009  0.8748523E+02  0.7561462E-02  0.1309058E+00
          1   -1    0    0  501    0  0.00000000000E+00  0.00000000000E+00  0.14690175597E+03  0.14690175597E+03  0.00000000000E+00 0. -1.
         -1   -1    0    0    0  501 -0.00000000000E+00 -0.00000000000E+00 -0.11491792652E+03  0.11491792652E+03  0.00000000000E+00 0.  1.
         25    2    1    2    0    0  0.58700635294E+02  0.11678394637E+02  0.54943781215E+02  0.14915920344E+03  0.12508996519E+03 0.  0.
          5    1    3    3  502    0  0.31386310907E+02  0.54765122823E+02 -0.12508379614E+02  0.64484503183E+02  0.41800000000E+01 0. -1.
         -5    1    3    3    0  502  0.27314324387E+02 -0.43086728186E+02  0.67452160829E+02  0.84674700253E+02  0.41800000000E+01 0. -1.
        -11    1    1    2    0    0 -0.21014987120E+02 -0.86232798197E+01 -0.57266254883E+02  0.61606936191E+02  0.00000000000E+00 0.  1.
         11    1    1    2    0    0 -0.37685648174E+02 -0.30551148172E+01  0.34306303121E+02  0.51053542861E+02  0.00000000000E+00 0. -1.
</event>
<event>
 7    1  0.2842702E-009  0.2100821E+03  0.7561462E-02  0.1141501E+00
         -2   -1    0    0    0  501 -0.00000000000E+00  0.00000000000E+00  0.13211116803E+03  0.13211116803E+03  0.00000000000E+00 0.  1.
          2   -1    0    0  501    0  0.00000000000E+00 -0.00000000000E+00 -0.47986456591E+03  0.47986456591E+03  0.00000000000E+00 0. -1.
         25    2    1    2    0    0  0.49855894981E+00 -0.18008472112E+03 -0.34653681630E+03  0.41008063110E+03  0.12509038175E+03 0.  0.
          5    1    3    3  502    0  0.46077169420E+02 -0.17278019462E+02 -0.64672339148E+02  0.81373333157E+02  0.41800000000E+01 0.  1.
         -5    1    3    3    0  502 -0.45578610470E+02 -0.16280670166E+03 -0.28186447716E+03  0.32870729794E+03  0.41800000000E+01 0.  1.
        -11    1    1    2    0    0  0.43602833894E+02  0.11547288728E+03  0.39759145193E+01  0.12349495016E+03  0.00000000000E+00 0. -1.
         11    1    1    2    0    0 -0.44101392844E+02  0.64611833849E+02 -0.51924960932E+01  0.78400152677E+02  0.00000000000E+00 0.  1.
</event>
<event>
 7    1  0.2842702E-009  0.9904950E+02  0.7561462E-02  0.1282307E+00
         -1   -1    0    0    0  501 -0.00000000000E+00  0.00000000000E+00  0.18374534810E+03  0.18374534810E+03  0.00000000000E+00 0.  1.
          1   -1    0    0  501    0  0.00000000000E+00 -0.00000000000E+00 -0.83459995293E+02  0.83459995293E+02  0.00000000000E+00 0. -1.
         25    2    1    2    0    0 -0.29964666648E+02 -0.50774971710E+02  0.51090799051E+02  0.14742717552E+03  0.12509405795E+03 0.  0.
          5    1    3    3  502    0 -0.40007019139E+02  0.80759667301E+01  0.72963768093E+02  0.83707626136E+02  0.41800000000E+01 0. -1.
         -5    1    3    3    0  502  0.10042352491E+02 -0.58850938440E+02 -0.21872969041E+02  0.63719549383E+02  0.41800000000E+01 0. -1.
        -11    1    1    2    0    0  0.56099543030E+02  0.40269602511E+02  0.58089697022E+02  0.90239750192E+02  0.00000000000E+00 0. -1.
         11    1    1    2    0    0 -0.26134876382E+02  0.10505369199E+02 -0.88951432649E+01  0.29538417683E+02  0.00000000000E+00 0.  1.
</event>
<event>
 7    1  0.2842702E-009  0.1035424E+03  0.7561462E-02  0.1273018E+00
          2   -1    0    0  501    0  0.00000000000E+00  0.00000000000E+00  0.51797615239E+03  0.51797615239E+03  0.00000000000E+00 0. -1.
         -2   -1    0    0    0  501 -0.00000000000E+00 -0.00000000000E+00 -0.25382428991E+02  0.25382428991E+02  0.00000000000E+00 0.  1.
         25    2    1    2    0    0 -0.31558723641E+02  0.73686958114E+00  0.25534654285E+03  0.28607928213E+03  0.12507199008E+03 0.  0.
          5    1    3    3  502    0 -0.68869318181E+02 -0.66533264692E+01  0.76700687119E+02  0.10338141779E+03  0.41800000000E+01 0. -1.
         -5    1    3    3    0  502  0.37310594540E+02  0.73901960503E+01  0.17864585573E+03  0.18269786434E+03  0.41800000000E+01 0. -1.
        -11    1    1    2    0    0 -0.56657238707E+01  0.42256810561E+02  0.10461391750E+03  0.11296818225E+03  0.00000000000E+00 0.  1.
         11    1    1    2    0    0  0.37224447512E+02 -0.42993680142E+02  0.13263326304E+03  0.14431111700E+03  0.00000000000E+00 0. -1.
</event>
<event>
 7    1  0.2842702E-009  0.1332385E+03  0.7561462E-02  0.1222728E+00
          2   -1    0    0  501    0  0.00000000000E+00  0.00000000000E+00  0.61252469015E+03  0.61252469015E+03  0.00000000000E+00 0. -1.
         -2   -1    0    0    0  501 -0.00000000000E+00 -0.00000000000E+00 -0.31748768817E+02  0.31748768817E+02  0.00000000000E+00 0.  1.
         25    2    1    2    0    0  0.65367010317E+02 -0.54367084657E+02  0.36813764760E+03  0.39799699319E+03  0.12509057948E+03 0.  0.
          5    1    3    3  502    0 -0.28875234466E+02  0.14284731095E+02  0.55628038071E+02  0.64418815012E+02  0.41800000000E+01 0.  1.
         -5    1    3    3    0  502  0.94242244783E+02 -0.68651815752E+02  0.31250960953E+03  0.33357817818E+03  0.41800000000E+01 0.  1.
        -11    1    1    2    0    0 -0.80198010663E+02  0.24306640933E+02  0.10987735456E+03  0.13818670976E+03  0.00000000000E+00 0.  1.
         11    1    1    2    0    0  0.14831000346E+02  0.30060443724E+02  0.10276091917E+03  0.10808975602E+03  0.00000000000E+00 0. -1.
</event>
<event>
 7    1  0.2842702E-009  0.1300211E+03  0.7561462E-02  0.1227424E+00
         -1   -1    0    0    0  501 -0.00000000000E+00  0.00000000000E+00  0.23928169594E+03  0.23928169594E+03  0.00000000000E+00 0.  1.
          1   -1    0    0  501    0  0.00000000000E+00 -0.00000000000E+00 -0.16286954107E+03  0.16286954107E+03  0.00000000000E+00 0. -1.
         25    2    1    2    0    0 -0.11620156295E+03 -0.30987771635E+02  0.15420615431E+03  0.23214215324E+03  0.12508955218E+03 0.  0.
          5    1    3    3  502    0 -0.28198773363E+02 -0.28449331907E+02  0.13640182442E+03  0.14222329419E+03  0.41800000000E+01 0. -1.
         -5    1    3    3    0  502 -0.88002789588E+02 -0.25384397282E+01  0.17804329889E+02  0.89918859058E+02  0.41800000000E+01 0. -1.
        -11    1    1    2    0    0  0.10304418881E+03  0.57941344569E+01 -0.19328879310E+02  0.10500134484E+03  0.00000000000E+00 0.  1.
         11    1    1    2    0    0  0.13157374137E+02  0.25193637178E+02 -0.58465120128E+02  0.65007738925E+02  0.00000000000E+00 0. -1.
</event>
<event>
 7    1  0.2842702E-009  0.1007307E+03  0.7561462E-02  0.1278767E+00
          1   -1    0    0  501    0  0.00000000000E+00  0.00000000000E+00  0.54419107562E+03  0.54419107562E+03  0.00000000000E+00 0. -1.
         -1   -1    0    0    0  501 -0.00000000000E+00 -0.00000000000E+00 -0.24825627434E+02  0.24825627434E+02  0.00000000000E+00 0.  1.
         25    2    1    2    0    0  0.27478977756E+02 -0.14057711725E+01  0.37697898324E+03  0.39814297206E+03  0.12509037524E+03 0.  0.
          5    1    3    3  502    0  0.66417007970E+02  0.22342463244E+02  0.13815094894E+03  0.15496309788E+03  0.41800000000E+01 0. -1.
         -5    1    3    3    0  502 -0.38938030214E+02 -0.23748234416E+02  0.23882803431E+03  0.24317987418E+03  0.41800000000E+01 0. -1.
        -11    1    1    2    0    0  0.16558851702E+02  0.29070970149E+02  0.94238915253E+02  0.10000145011E+03  0.00000000000E+00 0. -1.
         11    1    1    2    0    0 -0.44037829458E+02 -0.27665198976E+02  0.48147549685E+02  0.70872280889E+02  0.00000000000E+00 0.  1.
</event>
<event>
 7    1  0.2842702E-009  0.1508325E+03  0.7561462E-02  0.1199454E+00
         -2   -1    0    0    0  501 -0.00000000000E+00  0.00000000000E+00  0.17835411713E+03  0.17835411713E+03  0.00000000000E+00 0.  1.
          2   -1    0    0  501    0  0.00000000000E+00 -0.00000000000E+00 -0.34638985280E+03  0.34638985280E+03  0.00000000000E+00 0. -1.
         25    2    1    2    0    0  0.75973134018E+02  0.90478055583E+02 -0.28730353490E+03  0.33488890672E+03  0.12509621514E+03 0.  0.
          5    1    3    3  502    0  0.92835802774E+02  0.26326886774E+02 -0.22015546545E+03  0.24041109087E+03  0.41800000000E+01 0. -1.
         -5    1    3    3    0  502 -0.16862668755E+02  0.64151168809E+02 -0.67148069446E+02  0.94477815848E+02  0.41800000000E+01 0. -1.
        -11    1    1    2    0    0 -0.75789307527E+02 -0.35593685040E+02  0.10273461715E+03  0.13253426391E+03  0.00000000000E+00 0.  1.
         11    1    1    2    0    0 -0.18382649127E+00 -0.54884370542E+02  0.16533182089E+02  0.57320799296E+02  0.00000000000E+00 0. -1.
</event>
<event>
 7    1  0.2842702E-009  0.1168116E+03  0.7561462E-02  0.1248451E+00
          1   -1    0    0  501    0  0.00000000000E+00  0.00000000000E+00  0.16302560519E+03  0.16302560519E+03  0.00000000000E+00 0. -1.
         -1   -1    0    0    0  501 -0.00000000000E+00 -0.00000000000E+00 -0.13139294105E+03  0.13139294105E+03  0.00000000000E+00 0.  1.
         25    2    1    2    0    0  0.89923807014E+02  0.15107345944E+02 -0.21685469545E+02  0.15633023846E+03  0.12511738847E+03 0.  0.
          5    1    3    3  502    0 -0.23262717875E+02 -0.48889328936E+01 -0.32862205846E+02  0.40773185807E+02  0.41800000000E+01 0. -1.
         -5    1    3    3    0  502  0.11318652489E+03  0.19996278838E+02  0.11176736301E+02  0.11555705265E+03  0.41800000000E+01 0. -1.
        -11    1    1    2    0    0 -0.33123981723E+02 -0.17809697556E+02  0.69451083848E+02  0.78979975563E+02  0.00000000000E+00 0. -1.
         11    1    1    2    0    0 -0.56799825290E+02  0.27023516119E+01 -0.16132950160E+02  0.59108332222E+02  0.00000000000E+00 0.  1.
</event>
<event>
 7    1  0.2842702E-009  0.1572163E+03  0.7561462E-02  0.1191876E+00
         -2   -1    0    0    0  501 -0.00000000000E+00  0.00000000000E+00  0.67659089283E+02  0.67659089283E+02  0.00000000000E+00 0.  1.
          2   -1    0    0  501    0  0.00000000000E+00 -0.00000000000E+00 -0.49832928809E+03  0.49832928809E+03  0.00000000000E+00 0. -1.
         25    2    1    2    0    0  0.37506441868E+02  0.13561950146E+03 -0.22657991418E+03  0.29459435543E+03  0.12509194371E+03 0.  0.
          5    1    3    3  502    0  0.10286327790E+02  0.19103172733E+02 -0.15187273850E+03  0.15347162881E+03  0.41800000000E+01 0. -1.
         -5    1    3    3    0  502  0.27220114078E+02  0.11651632873E+03 -0.74707175680E+02  0.14112272662E+03  0.41800000000E+01 0. -1.
        -11    1    1    2    0    0 -0.63580280791E+02 -0.43916998621E+02 -0.56645277802E+02  0.95811493938E+02  0.00000000000E+00 0. -1.
         11    1    1    2    0    0  0.26073838923E+02 -0.91702502844E+02 -0.14744500682E+03  0.17558252801E+03  0.00000000000E+00 0.  1.
</event>
<event>
 7    1  0.2842702E-009  0.3197347E+03  0.7561462E-02  0.1075771E+00
         -2   -1    0    0    0  501 -0.00000000000E+00  0.00000000000E+00  0.70001329274E+02  0.70001329274E+02  0.00000000000E+00 0.  1.
          2   -1    0    0  501    0  0.00000000000E+00 -0.00000000000E+00 -0.16839238457E+04  0.16839238457E+04  0.00000000000E+00 0. -1.
         25    2    1    2    0    0 -0.11093706958E+03  0.29420967679E+03 -0.61051376646E+03  0.69802533195E+03  0.12508372271E+03 0.  0.
          5    1    3    3  502    0 -0.23935902625E+02  0.17160933511E+03 -0.42650694876E+03  0.46037847590E+03  0.41800000000E+01 0. -1.
         -5    1    3    3    0  502 -0.87001166957E+02  0.12260034167E+03 -0.18400681770E+03  0.23764685605E+03  0.41800000000E+01 0. -1.
        -11    1    1    2    0    0  0.43647122539E+02 -0.78781014414E+02 -0.16892694315E+03  0.19143623393E+03  0.00000000000E+00 0.  1.
         11    1    1    2    0    0  0.67289947043E+02 -0.21542866237E+03 -0.83448180681E+03  0.86446360909E+03  0.00000000000E+00 0. -1.
</event>
<event>
 7    1  0.2842702E-009  0.1025155E+03  0.7561462E-02  0.1275093E+00
         -2   -1    0    0    0  501 -0.00000000000E+00  0.00000000000E+00  0.97408784828E+01  0.97408784828E+01  0.00000000000E+00 0.  1.
          2   -1    0    0  501    0  0.00000000000E+00 -0.00000000000E+00 -0.19122303028E+04  0.19122303028E+04  0.00000000000E+00 0. -1.
         25    2    1    2    0    0  0.53416991888E+02  0.30576861368E+02 -0.14254447115E+04  0.14322460296E+04  0.12509094458E+03 0.  0.
          5    1    3    3  502    0  0.70520086818E+02  0.15831489242E+02 -0.39712997928E+03  0.40367488346E+03  0.41800000000E+01 0. -1.
         -5    1    3    3    0  502 -0.17103094930E+02  0.14745372126E+02 -0.10283147322E+04  0.10285711462E+04  0.41800000000E+01 0. -1.
        -11    1    1    2    0    0 -0.17858911986E+02 -0.60571907872E+02 -0.24072847363E+03  0.24887365224E+03  0.00000000000E+00 0. -1.
         11    1    1    2    0    0 -0.35558079901E+02  0.29995046504E+02 -0.23631623917E+03  0.24085149939E+03  0.00000000000E+00 0.  1.
</event>
<event>
 7    1  0.2842702E-009  0.1615885E+03  0.7561462E-02  0.1186915E+00
          2   -1    0    0  501    0  0.00000000000E+00  0.00000000000E+00  0.33944833479E+03  0.33944833479E+03  0.00000000000E+00 0. -1.
         -2   -1    0    0    0  501 -0.00000000000E+00 -0.00000000000E+00 -0.91684152761E+02  0.91684152761E+02  0.00000000000E+00 0.  1.
         25    2    1    2    0    0 -0.10768799295E+03  0.74488619964E+02  0.19036981582E+03  0.26274494258E+03  0.12509588222E+03 0.  0.
          5    1    3    3  502    0 -0.79951256364E+02  0.10408015685E+03  0.17584340337E+03  0.21946128896E+03  0.41800000000E+01 0.  1.
         -5    1    3    3    0  502 -0.27736736582E+02 -0.29591536891E+02  0.14526412448E+02  0.43283653616E+02  0.41800000000E+01 0.  1.
        -11    1    1    2    0    0  0.11468718529E+03 -0.49096132975E+02  0.26048476865E+02  0.12744451299E+03  0.00000000000E+00 0.  1.
         11    1    1    2    0    0 -0.69991923484E+01 -0.25392486989E+02  0.31345889343E+02  0.40943031980E+02  0.00000000000E+00 0. -1.
</event>
<event>
 7    1  0.2842702E-009  0.1570966E+03  0.7561462E-02  0.1192014E+00
         -2   -1    0    0    0  501 -0.00000000000E+00  0.00000000000E+00  0.49465443639E+03  0.49465443639E+03  0.00000000000E+00 0.  1.
          2   -1    0    0  501    0  0.00000000000E+00 -0.00000000000E+00 -0.56649293841E+02  0.56649293841E+02  0.00000000000E+00 0. -1.
         25    2    1    2    0    0  0.78402858960E+02 -0.90947129450E+02  0.29927319598E+03  0.34587679891E+03  0.12509166857E+03 0.  0.
          5    1    3    3  502    0 -0.19412670303E+02  0.17021882940E+02  0.63716452731E+02  0.68875648931E+02  0.41800000000E+01 0.  1.
         -5    1    3    3    0  502  0.97815529263E+02 -0.10796901239E+03  0.23555674325E+03  0.27700114998E+03  0.41800000000E+01 0.  1.
        -11    1    1    2    0    0 -0.56449132811E+02  0.86414919859E+01  0.91956831169E+02  0.10824619521E+03  0.00000000000E+00 0.  1.
         11    1    1    2    0    0 -0.21953726148E+02  0.82305637464E+02  0.46775115405E+02  0.97180736112E+02  0.00000000000E+00 0. -1.
</event>
<event>
 7    1  0.2842702E-009  0.9925392E+02  0.7561462E-02  0.1281873E+00
          1   -1    0    0  501    0  0.00000000000E+00  0.00000000000E+00  0.68746849076E+03  0.68746849076E+03  0.00000000000E+00 0. -1.
         -1   -1    0    0    0  501 -0.00000000000E+00 -0.00000000000E+00 -0.25168304679E+02  0.25168304679E+02  0.00000000000E+00 0.  1.
         25    2    1    2    0    0 -0.52507897869E+02  0.48732354017E+02  0.30480618356E+03  0.33716948232E+03  0.12507809003E+03 0.  0.
          5    1    3    3  502    0 -0.15063407475E+02 -0.16954399836E+02  0.22851912170E+03  0.22967981910E+03  0.41800000000E+01 0. -1.
         -5    1    3    3    0  502 -0.37444490395E+02  0.65686753853E+02  0.76287061858E+02  0.10748966322E+03  0.41800000000E+01 0. -1.
        -11    1    1    2    0    0 -0.16167459944E+02 -0.18829244931E+02  0.27344933857E+02  0.36927938385E+02  0.00000000000E+00 0.  1.
         11    1    1    2    0    0  0.68675357813E+02 -0.29903109086E+02  0.33014906866E+03  0.33853937473E+03  0.00000000000E+00 0. -1.
</event>
<event>
 7    1  0.2842702E-009  0.1474141E+03  0.7561462E-02  0.1203687E+00
          1   -1    0    0  501    0  0.00000000000E+00  0.00000000000E+00  0.49091438190E+03  0.49091438190E+03  0.00000000000E+00 0. -1.
         -1   -1    0    0    0  501 -0.00000000000E+00 -0.00000000000E+00 -0.46757671221E+02  0.46757671221E+02  0.00000000000E+00 0.  1.
         25    2    1    2    0    0  0.10452193311E+03 -0.15237397376E+02  0.26778001637E+03  0.31386744005E+03  0.12509844115E+03 0.  0.
          5    1    3    3  502    0  0.76051082016E+02 -0.68917179168E+02  0.16265725271E+03  0.19237515151E+03  0.41800000000E+01 0.  1.
         -5    1    3    3    0  502  0.28470851090E+02  0.53679781792E+02  0.10512276366E+03  0.12149228854E+03  0.41800000000E+01 0.  1.
        -11    1    1    2    0    0 -0.71958548966E+02 -0.27881399815E+02  0.68653213261E+02  0.10328924879E+03  0.00000000000E+00 0.  1.
         11    1    1    2    0    0 -0.32563384139E+02  0.43118797190E+02  0.10772348105E+03  0.12051536428E+03  0.00000000000E+00 0. -1.
</event>
<event>
 7    1  0.2842702E-009  0.1305975E+03  0.7561462E-02  0.1226572E+00
         -1   -1    0    0    0  501 -0.00000000000E+00  0.00000000000E+00  0.80430893916E+02  0.80430893916E+02  0.00000000000E+00 0.  1.
          1   -1    0    0  501    0  0.00000000000E+00 -0.00000000000E+00 -0.22212962427E+03  0.22212962427E+03  0.00000000000E+00 0. -1.
         25    2    1    2    0    0  0.78620831567E+02 -0.21772804611E+02 -0.96631003324E+02  0.17787869497E+03  0.12509192278E+03 0.  0.
          5    1    3    3  502    0  0.73198181941E+02 -0.67894557652E+02 -0.49251825591E+02  0.11140403728E+03  0.41800000000E+01 0. -1.
         -5    1    3    3    0  502  0.54226496267E+01  0.46121753040E+02 -0.47379177732E+02  0.66474657691E+02  0.41800000000E+01 0. -1.
        -11    1    1    2    0    0 -0.72181052214E+02  0.48623146909E+02 -0.42776937009E+02  0.96975156891E+02  0.00000000000E+00 0. -1.
         11    1    1    2    0    0 -0.64397793533E+01 -0.26850342298E+02 -0.22907900172E+01  0.27706666320E+02  0.00000000000E+00 0.  1.
</event>
<event>
 7    1  0.2842702E-009  0.1487143E+03  0.7561462E-02  0.1202062E+00
          1   -1    0    0  501    0  0.00000000000E+00  0.00000000000E+00  0.45883710955E+03  0.45883710955E+03  0.00000000000E+00 0. -1.
         -1   -1    0    0    0  501 -0.00000000000E+00 -0.00000000000E+00 -0.84876093646E+02  0.84876093646E+02  0.00000000000E+00 0.  1.
         25    2    1    2    0    0  0.12496422986E+03 -0.43003794264E+02  0.33185674727E+03  0.37847514952E+03  0.12509657481E+03 0.  0.
          5    1    3    3  502    0  0.11188804458E+03 -0.52485551882E+02  0.33860480665E+03  0.36047795379E+03  0.41800000000E+01 0. -1.
         -5    1    3    3    0  502  0.13076185272E+02  0.94817576186E+01 -0.67480593830E+01  0.17997195733E+02  0.41800000000E+01 0. -1.
        -11    1    1    2    0    0 -0.47301379478E+02  0.61172540796E+02  0.35850295387E+02  0.85233467179E+02  0.00000000000E+00 0. -1.
         11    1    1    2    0    0 -0.77662850378E+02 -0.18168746532E+02  0.62539732474E+01  0.80004586499E+02  0.00000000000E+00 0.  1.
</event>
<event>
 7    1  0.2842702E-009  0.2391305E+03  0.7561462E-02  0.1120373E+00
         -1   -1    0    0    0  501 -0.00000000000E+00  0.00000000000E+00  0.64649494628E+03  0.64649494628E+03  0.00000000000E+00 0.  1.
          1   -1    0    0  501    0  0.00000000000E+00 -0.00000000000E+00 -0.10739394733E+03  0.10739394733E+03  0.00000000000E+00 0. -1.
         25    2    1    2    0    0  0.22743397382E+03  0.17563745651E+02  0.17112961893E+03  0.31139664438E+03  0.12509127086E+03 0.  0.
          5    1    3    3  502    0  0.40465060639E+02 -0.36135132941E+02  0.79477178234E+02  0.96318550784E+02  0.41800000000E+01 0.  1.
         -5    1    3    3    0  502  0.18696891318E+03  0.53698878592E+02  0.91652440694E+02  0.21507809359E+03  0.41800000000E+01 0.  1.
        -11    1    1    2    0    0 -0.81428299245E+02 -0.17421502470E+02  0.63153218996E+02  0.10451031402E+03  0.00000000000E+00 0. -1.
         11    1    1    2    0    0 -0.14600567458E+03 -0.14224318065E+00  0.30481816102E+03  0.33798193521E+03  0.00000000000E+00 0.  1.
</event>
<event>
 7    1  0.2842702E-009  0.1215844E+03  0.7561462E-02  0.1240506E+00
         -1   -1    0    0    0  501 -0.00000000000E+00  0.00000000000E+00  0.58363781256E+02  0.58363781256E+02  0.00000000000E+00 0.  1.
          1   -1    0    0  501    0  0.00000000000E+00 -0.00000000000E+00 -0.30540907972E+03  0.30540907972E+03  0.00000000000E+00 0. -1.
         25    2    1    2    0    0 -0.44631587085E+02 -0.58001316658E+02 -0.10384604459E+03  0.17829188735E+03  0.12509142584E+03 0.  0.
          5    1    3    3  502    0 -0.44688879504E+02  0.27077193827E+02 -0.13516132214E+02  0.54133433356E+02  0.41800000000E+01 0. -1.
         -5    1    3    3    0  502  0.57292419037E-01 -0.85078510485E+02 -0.90329912378E+02  0.12415845400E+03  0.41800000000E+01 0. -1.
        -11    1    1    2    0    0  0.40534653885E+02 -0.64003828314E+01 -0.99265324171E+02  0.10741334949E+03  0.00000000000E+00 0. -1.
         11    1    1    2    0    0  0.40969332002E+01  0.64401699489E+02 -0.43933929702E+02  0.78067624133E+02  0.00000000000E+00 0.  1.
</event>
<event>
 7    1  0.2842702E-009  0.1360682E+03  0.7561462E-02  0.1218720E+00
          2   -1    0    0  501    0  0.00000000000E+00  0.00000000000E+00  0.37002374041E+03  0.37002374041E+03  0.00000000000E+00 0.  1.
         -2   -1    0    0    0  501 -0.00000000000E+00 -0.00000000000E+00 -0.63205012792E+02  0.63205012792E+02  0.00000000000E+00 0. -1.
         25    2    1    2    0    0  0.77017620914E+02  0.30576943353E+02  0.68114843601E+02  0.16478331741E+03  0.12508895388E+03 0.  0.
          5    1    3    3  502    0  0.10269284987E+03 -0.79358534543E+01  0.53010835389E+02  0.11591557382E+03  0.41800000000E+01 0. -1.
         -5    1    3    3    0  502 -0.25675228957E+02  0.38512796808E+02  0.15104008212E+02  0.48867743594E+02  0.41800000000E+01 0. -1.
        -11    1    1    2    0    0 -0.83394913923E+02  0.77216626791E+01  0.17068303519E+03  0.19012373404E+03  0.00000000000E+00 0.  1.
         11    1    1    2    0    0  0.63772930085E+01 -0.38298606032E+02  0.68020848833E+02  0.78321701757E+02  0.00000000000E+00 0. -1.
</event>
<event>
 7    1  0.2842702E-009  0.1342987E+03  0.7561462E-02  0.1221213E+00
         -2   -1    0    0    0  501 -0.00000000000E+00  0.00000000000E+00  0.27689808841E+02  0.27689808841E+02  0.00000000000E+00 0. -1.
          2   -1    0    0  501    0  0.00000000000E+00 -0.00000000000E+00 -0.86025879435E+03  0.86025879435E+03  0.00000000000E+00 0.  1.
         25    2    1    2    0    0  0.63927044409E+02  0.83649135819E+02 -0.36813101858E+03  0.40280446971E+03  0.12508856481E+03 0.  0.
          5    1    3    3  502    0  0.98586778708E+02  0.38395969249E+02 -0.22436724565E+03  0.24809622470E+03  0.41800000000E+01 0.  1.
         -5    1    3    3    0  502 -0.34659734299E+02  0.45253166570E+02 -0.14376377293E+03  0.15470824501E+03  0.41800000000E+01 0.  1.
        -11    1    1    2    0    0 -0.57149648508E+02 -0.70380955045E+02 -0.46103082868E+03  0.46986060289E+03  0.00000000000E+00 0.  1.
         11    1    1    2    0    0 -0.67773959012E+01 -0.13268180774E+02 -0.34071382512E+01  0.15283530591E+02  0.00000000000E+00 0. -1.
</event>
<event>
 7    1  0.2842702E-009  0.1413515E+03  0.7561462E-02  0.1211522E+00
         -1   -1    0    0    0  501 -0.00000000000E+00  0.00000000000E+00  0.19060419730E+03  0.19060419730E+03  0.00000000000E+00 0.  1.
          1   -1    0    0  501    0  0.00000000000E+00 -0.00000000000E+00 -0.20583586836E+03  0.20583586836E+03  0.00000000000E+00 0. -1.
         25    2    1    2    0    0  0.13470804373E+03 -0.11282750820E+02 -0.10177765965E+03  0.21042627240E+03  0.12508783554E+03 0.  0.
          5    1    3    3  502    0  0.34220680999E+02 -0.27780020078E+02 -0.99023468629E+02  0.10847075303E+03  0.41800000000E+01 0. -1.
         -5    1    3    3    0  502  0.10048736274E+03  0.16497269258E+02 -0.27541910227E+01  0.10195551937E+03  0.41800000000E+01 0. -1.
        -11    1    1    2    0    0 -0.12315478597E+03  0.47693874188E+01  0.10593818220E+03  0.16251998896E+03  0.00000000000E+00 0.  1.
         11    1    1    2    0    0 -0.11553257766E+02  0.65133634012E+01 -0.19392193602E+02  0.23493804300E+02  0.00000000000E+00 0. -1.
</event>
<event>
 7    1  0.2842702E-009  0.1025300E+03  0.7561462E-02  0.1275064E+00
         -1   -1    0    0    0  501 -0.00000000000E+00  0.00000000000E+00  0.23990081467E+02  0.23990081467E+02  0.00000000000E+00 0.  1.
          1   -1    0    0  501    0  0.00000000000E+00 -0.00000000000E+00 -0.86400678714E+03  0.86400678714E+03  0.00000000000E+00 0. -1.
         25    2    1    2    0    0 -0.17085462805E+02  0.87439701359E+02 -0.46735216617E+03  0.49194203975E+03  0.12510519107E+03 0.  0.
          5    1    3    3  502    0 -0.72679356567E+01  0.87731763718E+02 -0.14687775646E+03  0.17128990921E+03  0.41800000000E+01 0. -1.
         -5    1    3    3    0  502 -0.98175271484E+01 -0.29206235875E+00 -0.32047440971E+03  0.32065213054E+03  0.41800000000E+01 0. -1.
        -11    1    1    2    0    0  0.32055865747E+02 -0.21409072872E+02 -0.36318704100E+02  0.52962016555E+02  0.00000000000E+00 0.  1.
         11    1    1    2    0    0 -0.14970402942E+02 -0.66030628487E+02 -0.33634583540E+03  0.34309281231E+03  0.00000000000E+00 0. -1.
</event>
<event>
 7    1  0.2842702E-009  0.9953397E+02  0.7561462E-02  0.1281279E+00
         -1   -1    0    0    0  501 -0.00000000000E+00  0.00000000000E+00  0.73044930937E+02  0.73044930937E+02  0.00000000000E+00 0.  1.
          1   -1    0    0  501    0  0.00000000000E+00 -0.00000000000E+00 -0.25477212104E+03  0.25477212104E+03  0.00000000000E+00 0. -1.
         25    2    1    2    0    0 -0.43635997727E+02 -0.67569642600E+02 -0.11672243187E+03  0.18905255910E+03  0.12508791750E+03 0.  0.
          5    1    3    3  502    0 -0.32026484611E+02 -0.40624421641E+02  0.15011276220E+02  0.54026383962E+02  0.41800000000E+01 0. -1.
         -5    1    3    3    0  502 -0.11609513116E+02 -0.26945220958E+02 -0.13173370809E+03  0.13502617514E+03  0.41800000000E+01 0. -1.
        -11    1    1    2    0    0  0.23685107539E+02 -0.17948958226E+02 -0.35114457143E+02  0.46001896928E+02  0.00000000000E+00 0. -1.
         11    1    1    2    0    0  0.19950890188E+02  0.85518600826E+02 -0.29890301089E+02  0.92762595941E+02  0.00000000000E+00 0.  1.
</event>
<event>
 7    1  0.2842702E-009  0.5578049E+02  0.7561462E-02  0.1416444E+00
         -1   -1    0    0    0  501 -0.00000000000E+00  0.00000000000E+00  0.10161314138E+03  0.10161314138E+03  0.00000000000E+00 0.  1.
          1   -1    0    0  501    0  0.00000000000E+00 -0.00000000000E+00 -0.12201625363E+03  0.12201625363E+03  0.00000000000E+00 0. -1.
         25    2    1    2    0    0 -0.25823314621E+02  0.71041398960E+01 -0.14812050807E+02  0.12878931889E+03  0.12509987781E+03 0.  0.
          5    1    3    3  502    0  0.15644395499E+02  0.16001050131E+02 -0.61498489435E+02  0.65576804730E+02  0.41800000000E+01 0.  1.
         -5    1    3    3    0  502 -0.41467710119E+02 -0.88969102353E+01  0.46686438628E+02  0.63212514157E+02  0.41800000000E+01 0.  1.
        -11    1    1    2    0    0 -0.60912548897E+01 -0.12411877569E+02  0.38067525545E+02  0.40500550515E+02  0.00000000000E+00 0.  1.
         11    1    1    2    0    0  0.31914569510E+02  0.53077376735E+01 -0.43658586987E+02  0.54339525614E+02  0.00000000000E+00 0. -1.
</event>
<event>
 7    1  0.2842702E-009  0.2324668E+03  0.7561462E-02  0.1124915E+00
         -1   -1    0    0    0  501 -0.00000000000E+00  0.00000000000E+00  0.17362812945E+03  0.17362812945E+03  0.00000000000E+00 0.  1.
          1   -1    0    0  501    0  0.00000000000E+00 -0.00000000000E+00 -0.54683849088E+03  0.54683849088E+03  0.00000000000E+00 0. -1.
         25    2    1    2    0    0  0.18366541522E+03 -0.11098422929E+03 -0.41387737094E+03  0.48269333444E+03  0.12509153865E+03 0.  0.
          5    1    3    3  502    0  0.10410161762E+03 -0.11339599689E+03 -0.18713663354E+03  0.24234972853E+03  0.41800000000E+01 0. -1.
         -5    1    3    3    0  502  0.79563797594E+02  0.24117675968E+01 -0.22674073739E+03  0.24034360591E+03  0.41800000000E+01 0. -1.
        -11    1    1    2    0    0 -0.97889012401E+02  0.10749214339E+03  0.43889319375E+02  0.15186537458E+03  0.00000000000E+00 0.  1.
         11    1    1    2    0    0 -0.85776402817E+02  0.34920859024E+01 -0.32223098707E+01  0.85907911307E+02  0.00000000000E+00 0. -1.
</event>
<event>
 7    1  0.2842702E-009  0.1055826E+03  0.7561462E-02  0.1268976E+00
         -2   -1    0    0    0  501 -0.00000000000E+00  0.00000000000E+00  0.11558692355E+03  0.11558692355E+03  0.00000000000E+00 0.  1.
          2   -1    0    0  501    0  0.00000000000E+00 -0.00000000000E+00 -0.20832974382E+03  0.20832974382E+03  0.00000000000E+00 0. -1.
         25    2    1    2    0    0  0.17273976432E+02 -0.44683125406E+02  0.54242281369E+02  0.14450959506E+03  0.12508327633E+03 0.  0.
          5    1    3    3  502    0 -0.43157218742E+02 -0.18483768257E+02 -0.14400627025E+02  0.49285349519E+02  0.41800000000E+01 0. -1.
         -5    1    3    3    0  502  0.60431195175E+02 -0.26199357150E+02  0.68642908395E+02  0.95224245537E+02  0.41800000000E+01 0. -1.
        -11    1    1    2    0    0 -0.45977987560E+02  0.50974442477E+02 -0.12535084963E+03  0.14291677518E+03  0.00000000000E+00 0.  1.
         11    1    1    2    0    0  0.28704011128E+02 -0.62913170708E+01 -0.21634252012E+02  0.36490297140E+02  0.00000000000E+00 0. -1.
</event>
<event>
 7    1  0.2842702E-009  0.1962002E+03  0.7561462E-02  0.1152985E+00
          2   -1    0    0  501    0  0.00000000000E+00  0.00000000000E+00  0.13016800373E+04  0.13016800373E+04  0.00000000000E+00 0.  1.
         -2   -1    0    0    0  501 -0.00000000000E+00 -0.00000000000E+00 -0.29706806214E+02  0.29706806214E+02  0.00000000000E+00 0. -1.
         25    2    1    2    0    0 -0.11305113304E+03 -0.11896550939E+03  0.64564643697E+03  0.67782008028E+03  0.12508952216E+03 0.  0.
          5    1    3    3  502    0  0.18863486733E+02  0.99628378120E+01  0.75100789913E+02  0.78183695964E+02  0.41800000000E+01 0.  1.
         -5    1    3    3    0  502 -0.13191461977E+03 -0.12892834720E+03  0.57054564706E+03  0.59963638432E+03  0.41800000000E+01 0.  1.
        -11    1    1    2    0    0  0.56815716835E+02  0.25508187112E+01  0.21541125856E+03  0.22279260013E+03  0.00000000000E+00 0. -1.
         11    1    1    2    0    0  0.56235416201E+02  0.11641469068E+03  0.41091553551E+03  0.43077416307E+03  0.00000000000E+00 0.  1.
</event>
<event>
 7    1  0.2842702E-009  0.1067622E+03  0.7561462E-02  0.1266686E+00
          1   -1    0    0  501    0  0.00000000000E+00  0.00000000000E+00  0.48510952578E+03  0.48510952578E+03  0.00000000000E+00 0. -1.
         -1   -1    0    0    0  501 -0.00000000000E+00 -0.00000000000E+00 -0.34715254742E+02  0.34715254742E+02  0.00000000000E+00 0.  1.
         25    2    1    2    0    0  0.11894212195E+02 -0.47988716970E+02  0.14749039384E+03  0.19961081923E+03  0.12508666451E+03 0.  0.
          5    1    3    3  502    0 -0.47522971323E+02 -0.62263004086E+01  0.18546911613E+02  0.51562194974E+02  0.41800000000E+01 0.  1.
         -5    1    3    3    0  502  0.59417183518E+02 -0.41762416561E+02  0.12894348223E+03  0.14804862426E+03  0.41800000000E+01 0.  1.
        -11    1    1    2    0    0 -0.37188185313E+02 -0.13609847282E+01  0.19888468134E+03  0.20233618035E+03  0.00000000000E+00 0.  1.
         11    1    1    2    0    0  0.25293973118E+02  0.49349701698E+02  0.10401919585E+03  0.11787778094E+03  0.00000000000E+00 0. -1.
</event>
<event>
 7    1  0.3196414E-009  0.1193385E+03  0.7561462E-02  0.1244192E+00
         -1   -1    0    0    0  501 -0.00000000000E+00  0.00000000000E+00  0.48428939174E+02  0.48428939174E+02  0.00000000000E+00 0.  1.
          1   -1    0    0  501    0  0.00000000000E+00 -0.00000000000E+00 -0.33365282964E+03  0.33365282964E+03  0.00000000000E+00 0. -1.
         25    2    1    2    0    0  0.63107369589E+02 -0.54000838764E+01 -0.18915665870E+03  0.23548283644E+03  0.12514081557E+03 0.  0.
          5    1    3    3  502    0  0.52376538440E+02  0.56423341076E+02 -0.11140909704E+03  0.13548562470E+03  0.41800000000E+01 0. -1.
         -5    1    3    3    0  502  0.10730831149E+02 -0.61823424953E+02 -0.77747561665E+02  0.99997211735E+02  0.41800000000E+01 0. -1.
        -11    1    1    2    0    0 -0.33473892960E+02 -0.35102620262E+02 -0.14141957878E+02  0.50524156913E+02  0.00000000000E+00 0.  1.
         11    1    1    2    0    0 -0.29633476629E+02  0.40502704139E+02 -0.81925273879E+02  0.96074775461E+02  0.00000000000E+00 0. -1.
</event>
<event>
 7    1  0.2842702E-009  0.1210551E+03  0.7561462E-02  0.1241367E+00
         -2   -1    0    0    0  501 -0.00000000000E+00  0.00000000000E+00  0.57531253834E+02  0.57531253834E+02  0.00000000000E+00 0.  1.
          2   -1    0    0  501    0  0.00000000000E+00 -0.00000000000E+00 -0.27361588748E+03  0.27361588748E+03  0.00000000000E+00 0. -1.
         25    2    1    2    0    0  0.54099047196E+02  0.10452541831E+02 -0.15730731946E+03  0.20839603300E+03  0.12508937316E+03 0.  0.
          5    1    3    3  502    0  0.91838114898E+02 -0.10871410585E+02 -0.97911370044E+02  0.13474618993E+03  0.41800000000E+01 0.  1.
         -5    1    3    3    0  502 -0.37739067702E+02  0.21323952416E+02 -0.59395949420E+02  0.73649843077E+02  0.41800000000E+01 0.  1.
        -11    1    1    2    0    0 -0.56028133826E+02  0.31308863235E+02 -0.24537209428E+02  0.68712963432E+02  0.00000000000E+00 0.  1.
         11    1    1    2    0    0  0.19290866302E+01 -0.41761405066E+02 -0.34240104759E+02  0.54038144881E+02  0.00000000000E+00 0. -1.
</event>
<event>
 7    1  0.2842702E-009  0.2247155E+03  0.7561462E-02  0.1130416E+00
          1   -1    0    0  501    0  0.00000000000E+00  0.00000000000E+00  0.61942561685E+03  0.61942561685E+03  0.00000000000E+00 0. -1.
         -1   -1    0    0    0  501 -0.00000000000E+00 -0.00000000000E+00 -0.96398771819E+02  0.96398771819E+02  0.00000000000E+00 0.  1.
         25    2    1    2    0    0  0.18362520372E+03 -0.97139026842E+02  0.36919469174E+03  0.44170985665E+03  0.12509464846E+03 0.  0.
          5    1    3    3  502    0  0.14994156944E+02  0.17626505981E+02  0.10665180628E+03  0.10921354604E+03  0.41800000000E+01 0. -1.
         -5    1    3    3    0  502  0.16863104678E+03 -0.11476553282E+03  0.26254288546E+03  0.33249631061E+03  0.41800000000E+01 0. -1.
        -11    1    1    2    0    0 -0.47212411737E+02  0.67375998946E+02  0.30250892575E+02  0.87656451888E+02  0.00000000000E+00 0. -1.
         11    1    1    2    0    0 -0.13641279199E+03  0.29763027897E+02  0.12358126072E+03  0.18645808014E+03  0.00000000000E+00 0.  1.
</event>
<event>
 7    1  0.2842702E-009  0.9164467E+02  0.7561462E-02  0.1298917E+00
         -1   -1    0    0    0  501 -0.00000000000E+00  0.00000000000E+00  0.37948348461E+02  0.37948348461E+02  0.00000000000E+00 0.  1.
          1   -1    0    0  501    0  0.00000000000E+00 -0.00000000000E+00 -0.51751011623E+03  0.51751011623E+03  0.00000000000E+00 0. -1.
         25    2    1    2    0    0  0.39761449849E+02 -0.23276633360E+02 -0.41505282440E+03  0.43593419151E+03  0.12508795999E+03 0.  0.
          5    1    3    3  502    0  0.18201698023E+02 -0.50332364109E+02 -0.65685954267E+02  0.84833753163E+02  0.41800000000E+01 0.  1.
         -5    1    3    3    0  502  0.21559751826E+02  0.27055730749E+02 -0.34936687013E+03  0.35110043835E+03  0.41800000000E+01 0.  1.
        -11    1    1    2    0    0 -0.47992515000E+02 -0.19051775664E+02 -0.14792900343E+02  0.53712955165E+02  0.00000000000E+00 0.  1.
         11    1    1    2    0    0  0.82310651508E+01  0.42328409024E+02 -0.49716043027E+02  0.65811318010E+02  0.00000000000E+00 0. -1.
</event>
<event>
 7    1  0.2842702E-009  0.1232014E+03  0.7561462E-02  0.1237907E+00
         -1   -1    0    0    0  501 -0.00000000000E+00  0.00000000000E+00  0.27001629809E+03  0.27001629809E+03  0.00000000000E+00 0.  1.
          1   -1    0    0  501    0  0.00000000000E+00 -0.00000000000E+00 -0.78552246043E+02  0.78552246043E+02  0.00000000000E+00 0. -1.
         25    2    1    2    0    0 -0.35481335520E+02  0.89096744978E+02  0.11815477545E+03  0.19698973370E+03  0.12508896468E+03 0.  0.
          5    1    3    3  502    0 -0.88907581955E+01  0.86228406287E+02  0.13828039417E+03  0.16325845596E+03  0.41800000000E+01 0. -1.
         -5    1    3    3    0  502 -0.26590577324E+02  0.28683386907E+01 -0.20125618715E+02  0.33731277740E+02  0.41800000000E+01 0. -1.
        -11    1    1    2    0    0 -0.31247645814E+02 -0.24957125603E+02  0.19125669660E+02  0.44329050601E+02  0.00000000000E+00 0.  1.
         11    1    1    2    0    0  0.66728981333E+02 -0.64139619375E+02  0.54183606937E+02  0.10724975983E+03  0.00000000000E+00 0. -1.
</event>
<event>
 7    1  0.2842702E-009  0.9387248E+02  0.7561462E-02  0.1293736E+00
         -1   -1    0    0    0  501 -0.00000000000E+00  0.00000000000E+00  0.75706707602E+02  0.75706707602E+02  0.00000000000E+00 0.  1.
          1   -1    0    0  501    0  0.00000000000E+00 -0.00000000000E+00 -0.16027234111E+03  0.16027234111E+03  0.00000000000E+00 0. -1.
         25    2    1    2    0    0  0.18286850752E+02 -0.94783898978E+01 -0.43016390528E+02  0.13387645568E+03  0.12509295243E+03 0.  0.
          5    1    3    3  502    0 -0.17006005143E+02 -0.59793000700E+02 -0.35792393959E+02  0.71853844775E+02  0.41800000000E+01 0.  1.
         -5    1    3    3    0  502  0.35292855895E+02  0.50314610802E+02 -0.72239965693E+01  0.62022610908E+02  0.41800000000E+01 0.  1.
        -11    1    1    2    0    0  0.15065750768E+02  0.23291978012E+02  0.17567791297E+02  0.32834743443E+02  0.00000000000E+00 0.  1.
         11    1    1    2    0    0 -0.33352601519E+02 -0.13813588114E+02 -0.59117034281E+02  0.69267849590E+02  0.00000000000E+00 0. -1.
</event>
<event>
 7    1  0.2842702E-009  0.1008623E+03  0.7561462E-02  0.1278493E+00
         -1   -1    0    0    0  501 -0.00000000000E+00  0.00000000000E+00  0.88025884265E+02  0.88025884265E+02  0.00000000000E+00 0.  1.
          1   -1    0    0  501    0  0.00000000000E+00 -0.00000000000E+00 -0.14380448407E+03  0.14380448407E+03  0.00000000000E+00 0. -1.
         25    2    1    2    0    0 -0.17879548222E+02  0.15254666584E+02 -0.55064023627E+02  0.13867672891E+03  0.12508719097E+03 0.  0.
          5    1    3    3  502    0 -0.53608799535E+02 -0.20888054185E+02  0.72692986147E+01  0.58142319334E+02  0.41800000000E+01 0.  1.
         -5    1    3    3    0  502  0.35729251313E+02  0.36142720768E+02 -0.62333322242E+02  0.80534409576E+02  0.41800000000E+01 0.  1.
        -11    1    1    2    0    0  0.52275172999E+02 -0.24050663135E+02  0.17163755632E+01  0.57567995052E+02  0.00000000000E+00 0.  1.
         11    1    1    2    0    0 -0.34395624777E+02  0.87959965511E+01 -0.24309517416E+01  0.35585644373E+02  0.00000000000E+00 0. -1.
</event>
<event>
 7    1  0.2842702E-009  0.8064704E+02  0.7561462E-02  0.1327225E+00
          2   -1    0    0  501    0  0.00000000000E+00  0.00000000000E+00  0.12173295213E+03  0.12173295213E+03  0.00000000000E+00 0.  1.
         -2   -1    0    0    0  501 -0.00000000000E+00 -0.00000000000E+00 -0.10917369191E+03  0.10917369191E+03  0.00000000000E+00 0. -1.
         25    2    1    2    0    0  0.24360729847E+02  0.29449153968E+02 -0.35363592420E+01  0.13084880497E+03  0.12509278994E+03 0.  0.
          5    1    3    3  502    0  0.50117469380E+02 -0.29269717000E+02 -0.24676325065E+02  0.63204987849E+02  0.41800000000E+01 0. -1.
         -5    1    3    3    0  502 -0.25756739533E+02  0.58718870968E+02  0.21139965823E+02  0.67643817116E+02  0.41800000000E+01 0. -1.
        -11    1    1    2    0    0 -0.19847075284E+02 -0.19037144467E+02  0.53941294524E+02  0.60547357678E+02  0.00000000000E+00 0.  1.
         11    1    1    2    0    0 -0.45136545632E+01 -0.10412009501E+02 -0.37845675060E+02  0.39510481395E+02  0.00000000000E+00 0. -1.
</event>
<event>
 7    1  0.2842702E-009  0.1518201E+03  0.7561462E-02  0.1198254E+00
         -1   -1    0    0    0  501 -0.00000000000E+00  0.00000000000E+00  0.22236152839E+03  0.22236152839E+03  0.00000000000E+00 0.  1.
          1   -1    0    0  501    0  0.00000000000E+00 -0.00000000000E+00 -0.13416232920E+03  0.13416232920E+03  0.00000000000E+00 0. -1.
         25    2    1    2    0    0  0.12221378138E+03 -0.44752319482E+01 -0.10465463362E+02  0.17525267826E+03  0.12509092395E+03 0.  0.
          5    1    3    3  502    0  0.60557554711E+02 -0.62058943999E+02  0.12531737314E+02  0.87710015408E+02  0.41800000000E+01 0. -1.
         -5    1    3    3    0  502  0.61656226665E+02  0.57583712051E+02 -0.22997200676E+02  0.87542662851E+02  0.41800000000E+01 0. -1.
        -11    1    1    2    0    0 -0.20076406369E+02 -0.18912026635E+02 -0.10910407266E+02  0.29660813051E+02  0.00000000000E+00 0. -1.
         11    1    1    2    0    0 -0.10213737501E+03  0.23387258583E+02  0.10957506981E+03  0.15161036627E+03  0.00000000000E+00 0.  1.
</event>
<event>
 7    1  0.2842702E-009  0.1096953E+03  0.7561462E-02  0.1261135E+00
          2   -1    0    0  501    0  0.00000000000E+00  0.00000000000E+00  0.11490623764E+04  0.11490623764E+04  0.00000000000E+00 0. -1.
         -2   -1    0    0    0  501 -0.00000000000E+00 -0.00000000000E+00 -0.10923454839E+02  0.10923454839E+02  0.00000000000E+00 0.  1.
         25    2    1    2    0    0  0.11638862724E+01  0.21566480252E+02  0.74555710328E+03  0.75628649587E+03  0.12508957543E+03 0.  0.
          5    1    3    3  502    0  0.52843714728E+02 -0.22181578421E+02  0.28234157638E+03  0.28812969087E+03  0.41800000000E+01 0. -1.
         -5    1    3    3    0  502 -0.51679828456E+02  0.43748058673E+02  0.46321552690E+03  0.46815680500E+03  0.41800000000E+01 0. -1.
        -11    1    1    2    0    0  0.28895314400E+02 -0.46693138462E+02  0.22928912916E+03  0.23577254531E+03  0.00000000000E+00 0.  1.
         11    1    1    2    0    0 -0.30059200672E+02  0.25126658210E+02  0.16329268916E+03  0.16792679010E+03  0.00000000000E+00 0. -1.
</event>
<event>
 7    1  0.2842702E-009  0.2193433E+03  0.7561462E-02  0.1134374E+00
         -2   -1    0    0    0  501 -0.00000000000E+00  0.00000000000E+00  0.15149797180E+03  0.15149797180E+03  0.00000000000E+00 0.  1.
          2   -1    0    0  501    0  0.00000000000E+00 -0.00000000000E+00 -0.38722861684E+03  0.38722861684E+03  0.00000000000E+00 0. -1.
         25    2    1    2    0    0 -0.60927704790E+02 -0.19914601488E+03 -0.18532192443E+03  0.30555265260E+03  0.12508751888E+03 0.  0.
          5    1    3    3  502    0  0.37581131565E+01 -0.13834023481E+03 -0.16309587620E+03  0.21393896610E+03  0.41800000000E+01 0. -1.
         -5    1    3    3    0  502 -0.64685817947E+02 -0.60805780075E+02 -0.22226048227E+02  0.91613686498E+02  0.41800000000E+01 0. -1.
        -11    1    1    2    0    0 -0.41131435933E+01  0.27387625564E+02 -0.40735958651E+02  0.49258687675E+02  0.00000000000E+00 0.  1.
         11    1    1    2    0    0  0.65040848384E+02  0.17175838932E+03 -0.96727619521E+01  0.18391524837E+03  0.00000000000E+00 0. -1.
</event>
<event>
 7    1  0.3996963E-009  0.2314079E+03  0.7561462E-02  0.1125653E+00
          2   -1    0    0  501    0  0.00000000000E+00  0.00000000000E+00  0.19620563855E+04  0.19620563855E+04  0.00000000000E+00 0.  1.
         -2   -1    0    0    0  501 -0.00000000000E+00 -0.00000000000E+00 -0.35112292014E+02  0.35112292014E+02  0.00000000000E+00 0. -1.
         25    2    1    2    0    0 -0.14534968178E+03 -0.17048511192E+03  0.13037845822E+04  0.13287934313E+04  0.12508414284E+03 0.  0.
          5    1    3    3  502    0 -0.30072713713E+02 -0.58010835202E+02  0.72662423067E+03  0.72956827652E+03  0.41800000000E+01 0.  1.
         -5    1    3    3    0  502 -0.11527696807E+03 -0.11247427672E+03  0.57716035156E+03  0.59922515477E+03  0.41800000000E+01 0.  1.
        -11    1    1    2    0    0  0.59873006769E+02  0.19932562854E+02  0.11020433988E+03  0.12699244281E+03  0.00000000000E+00 0. -1.
         11    1    1    2    0    0  0.85476675012E+02  0.15055254906E+03  0.51295517138E+03  0.54138280343E+03  0.00000000000E+00 0.  1.
</event>
<event>
 7    1  0.2842702E-009  0.1008055E+03  0.7561462E-02  0.1278611E+00
          2   -1    0    0  501    0  0.00000000000E+00  0.00000000000E+00  0.85389604731E+03  0.85389604731E+03  0.00000000000E+00 0. -1.
         -2   -1    0    0    0  501 -0.00000000000E+00 -0.00000000000E+00 -0.16694451507E+02  0.16694451507E+02  0.00000000000E+00 0.  1.
         25    2    1    2    0    0  0.27947236800E+02  0.38501493160E+02  0.52715399316E+03  0.54387907704E+03  0.12509878062E+03 0.  0.
          5    1    3    3  502    0  0.15097482207E+02  0.71010685150E+02  0.47753110017E+03  0.48303610155E+03  0.41800000000E+01 0.  1.
         -5    1    3    3    0  502  0.12849754593E+02 -0.32509191990E+02  0.49622892993E+02  0.60842975485E+02  0.41800000000E+01 0.  1.
        -11    1    1    2    0    0 -0.21446644713E+02  0.23228859610E+02  0.17820614389E+03  0.18098886211E+03  0.00000000000E+00 0. -1.
         11    1    1    2    0    0 -0.65005920877E+01 -0.61730352770E+02  0.13184145876E+03  0.14572255967E+03  0.00000000000E+00 0.  1.
</event>
<event>
 7    1  0.2842702E-009  0.1026658E+03  0.7561462E-02  0.1274788E+00
         -1   -1    0    0    0  501 -0.00000000000E+00  0.00000000000E+00  0.59375423333E+02  0.59375423333E+02  0.00000000000E+00 0.  1.
          1   -1    0    0  501    0  0.00000000000E+00 -0.00000000000E+00 -0.20819025672E+03  0.20819025672E+03  0.00000000000E+00 0. -1.
         25    2    1    2    0    0  0.57794558267E+01  0.95974626362E+01 -0.57059442301E+02  0.13794149780E+03  0.12508622410E+03 0.  0.
          5    1    3    3  502    0  0.51501617221E+02  0.41322762359E+02 -0.47191919841E+02  0.81268302330E+02  0.41800000000E+01 0. -1.
         -5    1    3    3    0  502 -0.45722161395E+02 -0.31725299722E+02 -0.98675224599E+01  0.56673195468E+02  0.41800000000E+01 0. -1.
        -11    1    1    2    0    0 -0.35475475804E+02  0.20588728761E+02 -0.18467678651E+02  0.44982888861E+02  0.00000000000E+00 0. -1.
         11    1    1    2    0    0  0.29696019977E+02 -0.30186191397E+02 -0.73287712434E+02  0.84641293394E+02  0.00000000000E+00 0.  1.
</event>
<event>
 7    1  0.2842702E-009  0.1892938E+03  0.7561462E-02  0.1159100E+00
          1   -1    0    0  501    0  0.00000000000E+00  0.00000000000E+00  0.10963891814E+04  0.10963891814E+04  0.00000000000E+00 0. -1.
         -1   -1    0    0    0  501 -0.00000000000E+00 -0.00000000000E+00 -0.45852742909E+02  0.45852742909E+02  0.00000000000E+00 0.  1.
         25    2    1    2    0    0 -0.95881304084E+02 -0.13227795603E+03  0.81637652286E+03  0.84190785542E+03  0.12509007881E+03 0.  0.
          5    1    3    3  502    0  0.19298388145E+02 -0.68456899260E+01  0.25873907671E+02  0.33259927145E+02  0.41800000000E+01 0. -1.
         -5    1    3    3    0  502 -0.11517969223E+03 -0.12543226610E+03  0.79050261519E+03  0.80864792828E+03  0.41800000000E+01 0. -1.
        -11    1    1    2    0    0 -0.40463889324E+01  0.68888559320E+02  0.73789324508E+02  0.10102906156E+03  0.00000000000E+00 0.  1.
         11    1    1    2    0    0  0.99927693017E+02  0.63389396708E+02  0.16037059109E+03  0.19930500730E+03  0.00000000000E+00 0. -1.
</event>
<event>
 7    1  0.2842702E-009  0.1043902E+03  0.7561462E-02  0.1271326E+00
          2   -1    0    0  501    0  0.00000000000E+00  0.00000000000E+00  0.28863128132E+03  0.28863128132E+03  0.00000000000E+00 0. -1.
         -2   -1    0    0    0  501 -0.00000000000E+00 -0.00000000000E+00 -0.66980956765E+02  0.66980956765E+02  0.00000000000E+00 0.  1.
         25    2    1    2    0    0  0.22695116348E+01  0.80519421556E+02  0.15344614629E+03  0.21373122728E+03  0.12508712872E+03 0.  0.
          5    1    3    3  502    0  0.70356670337E+00  0.10396481889E+03  0.66306610937E+02  0.12338240404E+03  0.41800000000E+01 0.  1.
         -5    1    3    3    0  502  0.15659449314E+01 -0.23445397331E+02  0.87139535356E+02  0.90348823244E+02  0.41800000000E+01 0.  1.
        -11    1    1    2    0    0  0.10785387600E+01 -0.63918147588E+02  0.92393024706E+02  0.11235285422E+03  0.00000000000E+00 0. -1.
         11    1    1    2    0    0 -0.33480503948E+01 -0.16601273968E+02 -0.24188846445E+02  0.29528156582E+02  0.00000000000E+00 0.  1.
</event>
<event>
 7    1  0.2842702E-009  0.1100895E+03  0.7561462E-02  0.1260404E+00
          1   -1    0    0  501    0  0.00000000000E+00  0.00000000000E+00  0.34849907004E+03  0.34849907004E+03  0.00000000000E+00 0. -1.
         -1   -1    0    0    0  501 -0.00000000000E+00 -0.00000000000E+00 -0.37330492303E+02  0.37330492303E+02  0.00000000000E+00 0.  1.
         25    2    1    2    0    0 -0.23894696096E+01  0.32820773665E+02  0.20304960444E+03  0.24074783813E+03  0.12508983551E+03 0.  0.
          5    1    3    3  502    0 -0.44484561274E+02  0.62710833284E+02  0.11035252518E+03  0.13456105312E+03  0.41800000000E+01 0. -1.
         -5    1    3    3    0  502  0.42095091664E+02 -0.29890059619E+02  0.92697079266E+02  0.10618678501E+03  0.41800000000E+01 0. -1.
        -11    1    1    2    0    0 -0.33509829587E+02 -0.42575859076E+02  0.39582349711E+02  0.67099738179E+02  0.00000000000E+00 0.  1.
         11    1    1    2    0    0  0.35899299197E+02  0.97550854104E+01  0.68536623584E+02  0.77981986038E+02  0.00000000000E+00 0. -1.
</event>
<event>
 7    1  0.2842702E-009  0.1053010E+03  0.7561462E-02  0.1269528E+00
         -2   -1    0    0    0  501 -0.00000000000E+00  0.00000000000E+00  0.15565009730E+02  0.15565009730E+02  0.00000000000E+00 0. -1.
          2   -1    0    0  501    0  0.00000000000E+00 -0.00000000000E+00 -0.92639575242E+03  0.92639575242E+03  0.00000000000E+00 0.  1.
         25    2    1    2    0    0  0.72731615665E+01 -0.23759059727E+02 -0.68290907311E+03  0.69471298695E+03  0.12507573826E+03 0.  0.
          5    1    3    3  502    0 -0.51566970257E+02 -0.27554872137E+02 -0.20674210319E+03  0.21489111901E+03  0.41800000000E+01 0.  1.
         -5    1    3    3    0  502  0.58840131824E+02  0.37958124099E+01 -0.47616696992E+03  0.47982186793E+03  0.41800000000E+01 0.  1.
        -11    1    1    2    0    0  0.39783319388E+02  0.22705614196E+02 -0.82052129710E+02  0.93972386409E+02  0.00000000000E+00 0. -1.
         11    1    1    2    0    0 -0.47056480954E+02  0.10534455311E+01 -0.14586953988E+03  0.15327538880E+03  0.00000000000E+00 0.  1.
</event>
<event>
 7    1  0.2842702E-009  0.2768594E+03  0.7561462E-02  0.1097417E+00
         -2   -1    0    0    0  501 -0.00000000000E+00  0.00000000000E+00  0.12645314206E+03  0.12645314206E+03  0.00000000000E+00 0.  1.
          2   -1    0    0  501    0  0.00000000000E+00 -0.00000000000E+00 -0.68274686727E+03  0.68274686727E+03  0.00000000000E+00 0. -1.
         25    2    1    2    0    0 -0.25731189605E+03 -0.59921860879E+02 -0.19236080969E+03  0.34993185430E+03  0.12509828253E+03 0.  0.
          5    1    3    3  502    0 -0.71871037744E+02  0.25717418838E+02 -0.11955251949E+02  0.77377206898E+02  0.41800000000E+01 0.  1.
         -5    1    3    3    0  502 -0.18544085831E+03 -0.85639279716E+02 -0.18040555774E+03  0.27255464741E+03  0.41800000000E+01 0.  1.
        -11    1    1    2    0    0  0.24097750870E+02 -0.14552006148E+02 -0.12101038458E+02  0.30641436189E+02  0.00000000000E+00 0.  1.
         11    1    1    2    0    0  0.23321414518E+03  0.74473867027E+02 -0.35183187706E+03  0.42862671884E+03  0.00000000000E+00 0. -1.
</event>
<event>
 7    1  0.2842702E-009  0.1233751E+03  0.7561462E-02  0.1237631E+00
         -2   -1    0    0    0  501 -0.00000000000E+00  0.00000000000E+00  0.19295831331E+03  0.19295831331E+03  0.00000000000E+00 0.  1.
          2   -1    0    0  501    0  0.00000000000E+00 -0.00000000000E+00 -0.96958734705E+02  0.96958734705E+02  0.00000000000E+00 0. -1.
         25    2    1    2    0    0  0.51618987389E+02 -0.64172454335E+02  0.66383397714E+02  0.16381199674E+03  0.12507993856E+03 0.  0.
          5    1    3    3  502    0 -0.25506495582E+02 -0.49956349412E+02 -0.65586615131E+01  0.56627790035E+02  0.41800000000E+01 0.  1.
         -5    1    3    3    0  502  0.77125482970E+02 -0.14216104923E+02  0.72942059227E+02  0.10718420670E+03  0.41800000000E+01 0.  1.
        -11    1    1    2    0    0  0.15135298863E+02  0.36851654266E+02  0.35999488287E+02  0.53694365167E+02  0.00000000000E+00 0.  1.
         11    1    1    2    0    0 -0.66754286251E+02  0.27320800069E+02 -0.63833073947E+01  0.72410686108E+02  0.00000000000E+00 0. -1.
</event>
<event>
 7    1  0.2842702E-009  0.1018281E+03  0.7561462E-02  0.1276498E+00
          1   -1    0    0  501    0  0.00000000000E+00  0.00000000000E+00  0.47483882058E+03  0.47483882058E+03  0.00000000000E+00 0. -1.
         -1   -1    0    0    0  501 -0.00000000000E+00 -0.00000000000E+00 -0.35438610905E+02  0.35438610905E+02  0.00000000000E+00 0.  1.
         25    2    1    2    0    0 -0.36065706041E+02 -0.51471252588E+02  0.18014644623E+03  0.22814683637E+03  0.12509281299E+03 0.  0.
          5    1    3    3  502    0 -0.55788257932E+02 -0.31633186198E+02  0.22668879218E+02  0.68149385009E+02  0.41800000000E+01 0.  1.
         -5    1    3    3    0  502  0.19722551891E+02 -0.19838066390E+02  0.15747756701E+03  0.15999745136E+03  0.41800000000E+01 0.  1.
        -11    1    1    2    0    0  0.17039084996E+02  0.77225544579E+02  0.17697722286E+03  0.19384285533E+03  0.00000000000E+00 0. -1.
         11    1    1    2    0    0  0.19026621045E+02 -0.25754291990E+02  0.82276540592E+02  0.88287739784E+02  0.00000000000E+00 0.  1.
</event>
<event>
 7    1  0.2842702E-009  0.1096279E+03  0.7561462E-02  0.1261261E+00
         -1   -1    0    0    0  501 -0.00000000000E+00  0.00000000000E+00  0.11184797471E+03  0.11184797471E+03  0.00000000000E+00 0.  1.
          1   -1    0    0  501    0  0.00000000000E+00 -0.00000000000E+00 -0.16568890482E+03  0.16568890482E+03  0.00000000000E+00 0. -1.
         25    2    1    2    0    0 -0.42622576382E+02 -0.28600287563E+02 -0.92296286280E+02  0.16370936797E+03  0.12508993659E+03 0.  0.
          5    1    3    3  502    0 -0.41988992636E+01  0.40357491014E+02 -0.70929403044E+02  0.81821821369E+02  0.41800000000E+01 0.  1.
         -5    1    3    3    0  502 -0.38423677118E+02 -0.68957778578E+02 -0.21366883236E+02  0.81887546604E+02  0.41800000000E+01 0.  1.
        -11    1    1    2    0    0  0.45720695837E+02  0.55743614726E+02  0.74128172206E+01  0.72475392166E+02  0.00000000000E+00 0.  1.
         11    1    1    2    0    0 -0.30981194556E+01 -0.27143327162E+02  0.31042538951E+02  0.41352119391E+02  0.00000000000E+00 0. -1.
</event>
<event>
 7    1  0.2842702E-009  0.1464383E+03  0.7561462E-02  0.1204919E+00
         -2   -1    0    0    0  501 -0.00000000000E+00  0.00000000000E+00  0.12220564539E+03  0.12220564539E+03  0.00000000000E+00 0.  1.
          2   -1    0    0  501    0  0.00000000000E+00 -0.00000000000E+00 -0.20848650611E+03  0.20848650611E+03  0.00000000000E+00 0. -1.
         25    2    1    2    0    0 -0.88829293669E+02  0.32712783936E+02  0.12867084351E+02  0.15740042988E+03  0.12509421977E+03 0.  0.
          5    1    3    3  502    0 -0.52854739329E+02  0.79895760190E+02 -0.26695440697E+01  0.95924735243E+02  0.41800000000E+01 0. -1.
         -5    1    3    3    0  502 -0.35974554340E+02 -0.47182976253E+02  0.15536628421E+02  0.61475694635E+02  0.41800000000E+01 0. -1.
        -11    1    1    2    0    0  0.11108148969E+03 -0.30211164276E+02 -0.64264936069E+02  0.13184003112E+03  0.00000000000E+00 0.  1.
         11    1    1    2    0    0 -0.22252196023E+02 -0.25016196606E+01 -0.34883008997E+02  0.41451690501E+02  0.00000000000E+00 0. -1.
</event>
<event>
 7    1  0.2842702E-009  0.8193246E+02  0.7561462E-02  0.1323655E+00
          2   -1    0    0  501    0  0.00000000000E+00  0.00000000000E+00  0.57715249774E+03  0.57715249774E+03  0.00000000000E+00 0. -1.
         -2   -1    0    0    0  501 -0.00000000000E+00 -0.00000000000E+00 -0.31848365578E+02  0.31848365578E+02  0.00000000000E+00 0.  1.
         25    2    1    2    0    0  0.21523974258E+02 -0.20154519458E+02  0.46903144806E+03  0.48632282174E+03  0.12509956655E+03 0.  0.
          5    1    3    3  502    0  0.10519145649E+02 -0.60781001104E+02  0.40428201873E+03  0.40898215803E+03  0.41800000000E+01 0. -1.
         -5    1    3    3    0  502  0.11004828608E+02  0.40626481646E+02  0.64749429329E+02  0.77340663703E+02  0.41800000000E+01 0. -1.
        -11    1    1    2    0    0 -0.23059250765E+02  0.36581478399E+02  0.90879226512E+02  0.10064277132E+03  0.00000000000E+00 0. -1.
         11    1    1    2    0    0  0.15352765070E+01 -0.16426958941E+02 -0.14606542414E+02  0.22035270257E+02  0.00000000000E+00 0.  1.
</event>
<event>
 7    1  0.2842702E-009  0.3398391E+03  0.7561462E-02  0.1066864E+00
         -2   -1    0    0    0  501 -0.00000000000E+00  0.00000000000E+00  0.16844766779E+03  0.16844766779E+03  0.00000000000E+00 0.  1.
          2   -1    0    0  501    0  0.00000000000E+00 -0.00000000000E+00 -0.89571082429E+03  0.89571082429E+03  0.00000000000E+00 0. -1.
         25    2    1    2    0    0 -0.58495483240E+02 -0.32405698354E+03 -0.60771383319E+03  0.70242245152E+03  0.12508615919E+03 0.  0.
          5    1    3    3  502    0 -0.75078151635E+02 -0.30382067568E+03 -0.59655099376E+03  0.67367224403E+03  0.41800000000E+01 0. -1.
         -5    1    3    3    0  502  0.16582668395E+02 -0.20236307859E+02 -0.11162839429E+02  0.28750207495E+02  0.41800000000E+01 0. -1.
        -11    1    1    2    0    0  0.76626107274E+02  0.30237189355E+03 -0.11774366973E+03  0.33341249840E+03  0.00000000000E+00 0. -1.
         11    1    1    2    0    0 -0.18130624035E+02  0.21685089985E+02 -0.18056535898E+01  0.28323542159E+02  0.00000000000E+00 0.  1.
</event>
<event>
 7    1  0.2842702E-009  0.1260321E+03  0.7561462E-02  0.1233465E+00
         -1   -1    0    0    0  501 -0.00000000000E+00  0.00000000000E+00  0.27668501149E+03  0.27668501149E+03  0.00000000000E+00 0.  1.
          1   -1    0    0  501    0  0.00000000000E+00 -0.00000000000E+00 -0.85787812076E+02  0.85787812076E+02  0.00000000000E+00 0. -1.
         25    2    1    2    0    0 -0.70401699613E+02  0.80470609131E+02  0.12534918531E+03  0.20687173648E+03  0.12510627024E+03 0.  0.
          5    1    3    3  502    0 -0.19911222905E+02  0.46625422710E+02  0.13583448034E+03  0.14504780346E+03  0.41800000000E+01 0.  1.
         -5    1    3    3    0  502 -0.50490476708E+02  0.33845186420E+02 -0.10485295028E+02  0.61823933018E+02  0.41800000000E+01 0.  1.
        -11    1    1    2    0    0  0.28071237924E+00  0.18758356732E+02  0.14923280005E+02  0.23972046906E+02  0.00000000000E+00 0.  1.
         11    1    1    2    0    0  0.70120987234E+02 -0.99228965863E+02  0.50624734104E+02  0.13162904019E+03  0.00000000000E+00 0. -1.
</event>
<event>
 7    1  0.2842702E-009  0.1803935E+03  0.7561462E-02  0.1167423E+00
         -4   -1    0    0    0  501 -0.00000000000E+00  0.00000000000E+00  0.10204957822E+03  0.10204957822E+03  0.00000000000E+00 0.  1.
          4   -1    0    0  501    0  0.00000000000E+00 -0.00000000000E+00 -0.39064494982E+03  0.39064494982E+03  0.00000000000E+00 0. -1.
         25    2    1    2    0    0  0.14154450274E+03 -0.74875518688E+02 -0.21318126697E+03  0.29448631711E+03  0.12503898921E+03 0.  0.
          5    1    3    3  502    0  0.56706074451E+02  0.13580669354E+02 -0.13990248414E+03  0.15162516588E+03  0.41800000000E+01 0. -1.
         -5    1    3    3    0  502  0.84838428284E+02 -0.88456188043E+02 -0.73278782830E+02  0.14286115123E+03  0.41800000000E+01 0. -1.
        -11    1    1    2    0    0 -0.21865138058E+02  0.53929633309E+02 -0.43305444851E+02  0.72538618438E+02  0.00000000000E+00 0.  1.
         11    1    1    2    0    0 -0.11967936468E+03  0.20945885379E+02 -0.32108659786E+02  0.12566959249E+03  0.00000000000E+00 0. -1.
</event>
<event>
 7    1  0.2842702E-009  0.1095733E+03  0.7561462E-02  0.1261362E+00
          1   -1    0    0  501    0  0.00000000000E+00  0.00000000000E+00  0.40896262725E+03  0.40896262725E+03  0.00000000000E+00 0. -1.
         -1   -1    0    0    0  501 -0.00000000000E+00 -0.00000000000E+00 -0.29700327157E+02  0.29700327157E+02  0.00000000000E+00 0.  1.
         25    2    1    2    0    0  0.16802735072E+02 -0.18819150666E+02  0.20109358200E+03  0.23816518936E+03  0.12509011297E+03 0.  0.
          5    1    3    3  502    0  0.63393846213E+02  0.19788947664E+02  0.95600642147E+02  0.11647891383E+03  0.41800000000E+01 0. -1.
         -5    1    3    3    0  502 -0.46591111141E+02 -0.38608098330E+02  0.10549293986E+03  0.12168627553E+03  0.41800000000E+01 0. -1.
        -11    1    1    2    0    0 -0.43982939660E+02  0.38452684928E+02  0.11365212268E+03  0.12778854780E+03  0.00000000000E+00 0.  1.
         11    1    1    2    0    0  0.27180204588E+02 -0.19633534262E+02  0.64516595407E+02  0.72709217242E+02  0.00000000000E+00 0. -1.
</event>
<event>
 7    1  0.2842702E-009  0.7478528E+02  0.7561462E-02  0.1344537E+00
          4   -1    0    0  501    0  0.00000000000E+00  0.00000000000E+00  0.31414897568E+03  0.31414897568E+03  0.00000000000E+00 0. -1.
         -4   -1    0    0    0  501 -0.00000000000E+00 -0.00000000000E+00 -0.41996220258E+02  0.41996220258E+02  0.00000000000E+00 0.  1.
         25    2    1    2    0    0 -0.30053017586E+02 -0.20656619966E+02  0.16856735311E+03  0.21307119361E+03  0.12511794914E+03 0.  0.
          5    1    3    3  502    0  0.16968854363E+02 -0.99530026578E+01 -0.13798789777E+02  0.24390229183E+02  0.41800000000E+01 0.  1.
         -5    1    3    3    0  502 -0.47021871949E+02 -0.10703617308E+02  0.18236614288E+03  0.18868096442E+03  0.41800000000E+01 0.  1.
        -11    1    1    2    0    0 -0.23706376601E+02  0.12104992108E+02  0.64385798526E+00  0.26625883620E+02  0.00000000000E+00 0.  1.
         11    1    1    2    0    0  0.53759394187E+02  0.85516278583E+01  0.10294154433E+03  0.11644811871E+03  0.00000000000E+00 0. -1.
</event>
<event>
 7    1  0.2842702E-009  0.1476540E+03  0.7561462E-02  0.1203386E+00
          3   -1    0    0  501    0  0.00000000000E+00  0.00000000000E+00  0.68824468606E+02  0.68824468606E+02  0.00000000000E+00 0. -1.
         -3   -1    0    0    0  501 -0.00000000000E+00 -0.00000000000E+00 -0.41586605491E+03  0.41586605491E+03  0.00000000000E+00 0.  1.
         25    2    1    2    0    0 -0.58700458011E+02 -0.10796234623E+03 -0.24809505828E+03  0.30380963937E+03  0.12509007576E+03 0.  0.
          5    1    3    3  502    0 -0.48684858102E+02 -0.15956822303E+02 -0.15886349439E+02  0.53802268399E+02  0.41800000000E+01 0.  1.
         -5    1    3    3    0  502 -0.10015599909E+02 -0.92005523931E+02 -0.23220870884E+03  0.25000737097E+03  0.41800000000E+01 0.  1.
        -11    1    1    2    0    0  0.80682861056E+02  0.98506391368E+02 -0.80213845246E+02  0.15049084417E+03  0.00000000000E+00 0.  1.
         11    1    1    2    0    0 -0.21982403045E+02  0.94559548664E+01 -0.18732682772E+02  0.30390039979E+02  0.00000000000E+00 0. -1.
</event>
<event>
 7    1  0.2842702E-009  0.1279155E+03  0.7561462E-02  0.1230582E+00
          4   -1    0    0  501    0  0.00000000000E+00  0.00000000000E+00  0.51425582778E+02  0.51425582778E+02  0.00000000000E+00 0. -1.
         -4   -1    0    0    0  501 -0.00000000000E+00 -0.00000000000E+00 -0.45524945221E+03  0.45524945221E+03  0.00000000000E+00 0.  1.
         25    2    1    2    0    0 -0.97870680062E+02  0.21386766653E+02 -0.28191508694E+03  0.32428354489E+03  0.12509051698E+03 0.  0.
          5    1    3    3  502    0 -0.30584616386E+02 -0.41822335072E+02 -0.40848855186E+02  0.66110724095E+02  0.41800000000E+01 0.  1.
         -5    1    3    3    0  502 -0.67286063676E+02  0.63209101726E+02 -0.24106623175E+03  0.25817282080E+03  0.41800000000E+01 0.  1.
        -11    1    1    2    0    0  0.53982827297E+02 -0.36335826155E+02 -0.16343743933E+02  0.67093635101E+02  0.00000000000E+00 0. -1.
         11    1    1    2    0    0  0.43887852765E+02  0.14949059502E+02 -0.10556503856E+03  0.11529785499E+03  0.00000000000E+00 0.  1.
</event>
<event>
 7    1  0.2842702E-009  0.9260426E+02  0.7561462E-02  0.1296665E+00
          1   -1    0    0  501    0  0.00000000000E+00  0.00000000000E+00  0.13897662666E+02  0.13897662666E+02  0.00000000000E+00 0. -1.
         -1   -1    0    0    0  501 -0.00000000000E+00 -0.00000000000E+00 -0.98300944361E+03  0.98300944361E+03  0.00000000000E+00 0.  1.
         25    2    1    2    0    0 -0.45590538702E+02 -0.53371874418E+01 -0.48750375968E+03  0.50538484694E+03  0.12508774931E+03 0.  0.
          5    1    3    3  502    0  0.11160932335E+02 -0.25983187046E+02 -0.38702982755E+03  0.38808407882E+03  0.41800000000E+01 0.  1.
         -5    1    3    3    0  502 -0.56751471036E+02  0.20645999604E+02 -0.10047393213E+03  0.11730076813E+03  0.41800000000E+01 0.  1.
        -11    1    1    2    0    0  0.68104606935E+02 -0.10015582789E+02 -0.38671813259E+03  0.39279697486E+03  0.00000000000E+00 0.  1.
         11    1    1    2    0    0 -0.22514068233E+02  0.15352770231E+02 -0.94889888671E+02  0.98725284472E+02  0.00000000000E+00 0. -1.
</event>
<event>
 7    1  0.2842702E-009  0.1793718E+03  0.7561462E-02  0.1168412E+00
         -2   -1    0    0    0  501 -0.00000000000E+00  0.00000000000E+00  0.20988718795E+02  0.20988718795E+02  0.00000000000E+00 0.  1.
          2   -1    0    0  501    0  0.00000000000E+00 -0.00000000000E+00 -0.16326704528E+04  0.16326704528E+04  0.00000000000E+00 0. -1.
         25    2    1    2    0    0 -0.50504269453E+02  0.13187748592E+03 -0.10206654288E+04  0.10379537656E+04  0.12509096482E+03 0.  0.
          5    1    3    3  502    0  0.35597298389E+01 -0.23459953213E+02 -0.12435728654E+03  0.12666983933E+03  0.41800000000E+01 0. -1.
         -5    1    3    3    0  502 -0.54063999292E+02  0.15533743913E+03 -0.89630814224E+03  0.91128392626E+03  0.41800000000E+01 0. -1.
        -11    1    1    2    0    0  0.61572815055E+02 -0.31553237259E+02 -0.19076466214E+03  0.20292356851E+03  0.00000000000E+00 0.  1.
         11    1    1    2    0    0 -0.11068545602E+02 -0.10032424866E+03 -0.40025164312E+03  0.41278183752E+03  0.00000000000E+00 0. -1.
</event>
<event>
 7    1  0.2842702E-009  0.1356495E+03  0.7561462E-02  0.1219306E+00
         -1   -1    0    0    0  501 -0.00000000000E+00  0.00000000000E+00  0.85957136423E+02  0.85957136423E+02  0.00000000000E+00 0.  1.
          1   -1    0    0  501    0  0.00000000000E+00 -0.00000000000E+00 -0.27896954019E+03  0.27896954019E+03  0.00000000000E+00 0. -1.
         25    2    1    2    0    0 -0.12681657623E+02  0.10982391836E+03 -0.12238177407E+03  0.20699563176E+03  0.12509106866E+03 0.  0.
          5    1    3    3  502    0  0.25770677754E+02  0.16047358297E+02 -0.97981696146E+02  0.10266221661E+03  0.41800000000E+01 0.  1.
         -5    1    3    3    0  502 -0.38452335377E+02  0.93776560060E+02 -0.24400077929E+02  0.10433341514E+03  0.41800000000E+01 0.  1.
        -11    1    1    2    0    0  0.14358996952E+02  0.11180062300E+02 -0.80579549818E+00  0.18216033951E+02  0.00000000000E+00 0.  1.
         11    1    1    2    0    0 -0.16773393290E+01 -0.12100398066E+03 -0.69824834193E+02  0.13971501090E+03  0.00000000000E+00 0. -1.
</event>
<event>
 7    1  0.2842702E-009  0.1249245E+03  0.7561462E-02  0.1235187E+00
          3   -1    0    0  501    0  0.00000000000E+00  0.00000000000E+00  0.13636800557E+03  0.13636800557E+03  0.00000000000E+00 0. -1.
         -3   -1    0    0    0  501 -0.00000000000E+00 -0.00000000000E+00 -0.46284702741E+03  0.46284702741E+03  0.00000000000E+00 0.  1.
         25    2    1    2    0    0 -0.33819985551E+02 -0.54579674523E+02  0.90232941745E+02  0.16706925551E+03  0.12508964812E+03 0.  0.
          5    1    3    3  502    0  0.45152470125E+02 -0.19586515162E+02  0.12888710818E+02  0.51048686576E+02  0.41800000000E+01 0. -1.
         -5    1    3    3    0  502 -0.78972455676E+02 -0.34993159361E+02  0.77344230927E+02  0.11602056893E+03  0.41800000000E+01 0. -1.
        -11    1    1    2    0    0  0.63064352316E+02  0.15105494703E+02 -0.25653626306E+03  0.26460563631E+03  0.00000000000E+00 0. -1.
         11    1    1    2    0    0 -0.29244366766E+02  0.39474179820E+02 -0.16017570053E+03  0.16754014116E+03  0.00000000000E+00 0.  1.
</event>
<event>
 7    1  0.2842702E-009  0.1059570E+03  0.7561462E-02  0.1268246E+00
         -2   -1    0    0    0  501 -0.00000000000E+00  0.00000000000E+00  0.12250726134E+02  0.12250726134E+02  0.00000000000E+00 0. -1.
          2   -1    0    0  501    0  0.00000000000E+00 -0.00000000000E+00 -0.18073102476E+04  0.18073102476E+04  0.00000000000E+00 0.  1.
         25    2    1    2    0    0  0.58332084989E+02 -0.70937911402E+02 -0.12279083754E+04  0.12376757736E+04  0.12509005840E+03 0.  0.
          5    1    3    3  502    0  0.39335297631E+02 -0.41275721388E+02 -0.17361051461E+03  0.18278138307E+03  0.41800000000E+01 0. -1.
         -5    1    3    3    0  502  0.18996787358E+02 -0.29662190014E+02 -0.10542978608E+04  0.10548943905E+04  0.41800000000E+01 0. -1.
        -11    1    1    2    0    0 -0.41757652687E+02  0.86805719889E+02 -0.52619570922E+03  0.53494005174E+03  0.00000000000E+00 0.  1.
         11    1    1    2    0    0 -0.16574432302E+02 -0.15867808487E+02 -0.40955436886E+02  0.46945148448E+02  0.00000000000E+00 0. -1.
</event>
<event>
 7    1  0.2842702E-009  0.1219801E+03  0.7561462E-02  0.1239866E+00
          1   -1    0    0  501    0  0.00000000000E+00  0.00000000000E+00  0.98565792030E+03  0.98565792030E+03  0.00000000000E+00 0. -1.
         -1   -1    0    0    0  501 -0.00000000000E+00 -0.00000000000E+00 -0.26093795362E+02  0.26093795362E+02  0.00000000000E+00 0.  1.
         25    2    1    2    0    0  0.96326739880E+02 -0.21099754890E+02  0.71712536629E+03  0.73460235718E+03  0.12509113364E+03 0.  0.
          5    1    3    3  502    0  0.90690351681E+02 -0.35107188594E+02  0.71123490848E+03  0.71786476583E+03  0.41800000000E+01 0.  1.
         -5    1    3    3    0  502  0.56363881985E+01  0.14007433704E+02  0.58904578169E+01  0.16737591350E+02  0.41800000000E+01 0.  1.
        -11    1    1    2    0    0 -0.24921454833E+02 -0.33012016310E+02  0.50103516803E+02  0.64971028373E+02  0.00000000000E+00 0.  1.
         11    1    1    2    0    0 -0.71405285047E+02  0.54111771200E+02  0.19233524184E+03  0.21217833011E+03  0.00000000000E+00 0. -1.
</event>
<event>
 7    1  0.2842702E-009  0.1223883E+03  0.7561462E-02  0.1239208E+00
         -2   -1    0    0    0  501 -0.00000000000E+00  0.00000000000E+00  0.36958421004E+02  0.36958421004E+02  0.00000000000E+00 0.  1.
          2   -1    0    0  501    0  0.00000000000E+00 -0.00000000000E+00 -0.43185014277E+03  0.43185014277E+03  0.00000000000E+00 0. -1.
         25    2    1    2    0    0 -0.54325948806E+02 -0.20017542812E+02 -0.18231852178E+03  0.22856841817E+03  0.12510582588E+03 0.  0.
          5    1    3    3  502    0 -0.92761996861E+02 -0.12924396005E+02 -0.15335712387E+03  0.17974345027E+03  0.41800000000E+01 0. -1.
         -5    1    3    3    0  502  0.38436048055E+02 -0.70931468078E+01 -0.28961397906E+02  0.48824967900E+02  0.41800000000E+01 0. -1.
        -11    1    1    2    0    0 -0.26662333560E+02 -0.46305252331E+01 -0.45377123014E+02  0.52833749515E+02  0.00000000000E+00 0.  1.
         11    1    1    2    0    0  0.80988282365E+02  0.24648068046E+02 -0.16719607697E+03  0.18740639609E+03  0.00000000000E+00 0. -1.
</event>
<event>
 7    1  0.2842702E-009  0.1467378E+03  0.7561462E-02  0.1204540E+00
         -1   -1    0    0    0  501 -0.00000000000E+00  0.00000000000E+00  0.17089385268E+02  0.17089385268E+02  0.00000000000E+00 0.  1.
          1   -1    0    0  501    0  0.00000000000E+00 -0.00000000000E+00 -0.17325023747E+04  0.17325023747E+04  0.00000000000E+00 0. -1.
         25    2    1    2    0    0  0.12988176006E+03 -0.14736381633E+02 -0.10372214361E+04  0.10528827559E+04  0.12508939807E+03 0.  0.
          5    1    3    3  502    0  0.46038331943E+02 -0.22331952636E+02 -0.79039607738E+03  0.79206166152E+03  0.41800000000E+01 0. -1.
         -5    1    3    3    0  502  0.83843428114E+02  0.75955710022E+01 -0.24682535876E+03  0.26082109436E+03  0.41800000000E+01 0. -1.
        -11    1    1    2    0    0 -0.73898719541E+01  0.33162386080E+02 -0.10802334872E+03  0.11324044298E+03  0.00000000000E+00 0.  1.
         11    1    1    2    0    0 -0.12249188810E+03 -0.18426004446E+02 -0.57016820462E+03  0.58346856115E+03  0.00000000000E+00 0. -1.
</event>
<event>
 7    1  0.2842702E-009  0.1200500E+03  0.7561462E-02  0.1243015E+00
          2   -1    0    0  501    0  0.00000000000E+00  0.00000000000E+00  0.42640758508E+02  0.42640758508E+02  0.00000000000E+00 0. -1.
         -2   -1    0    0    0  501 -0.00000000000E+00 -0.00000000000E+00 -0.65704224526E+03  0.65704224526E+03  0.00000000000E+00 0.  1.
         25    2    1    2    0    0 -0.93301378148E+02 -0.11910459244E+02 -0.50947372210E+03  0.53297176188E+03  0.12509364191E+03 0.  0.
          5    1    3    3  502    0 -0.53554848022E+01 -0.29107267017E+02 -0.33917737720E+03  0.34049182048E+03  0.41800000000E+01 0. -1.
         -5    1    3    3    0  502 -0.87945893346E+02  0.17196807773E+02 -0.17029634490E+03  0.19247994140E+03  0.41800000000E+01 0. -1.
        -11    1    1    2    0    0  0.83151272309E+02  0.38801392794E+02 -0.49463127134E+02  0.10424146543E+03  0.00000000000E+00 0. -1.
         11    1    1    2    0    0  0.10150105840E+02 -0.26890933550E+02 -0.55464637517E+02  0.62469776458E+02  0.00000000000E+00 0.  1.
</event>
<event>
 7    1  0.2842702E-009  0.1228926E+03  0.7561462E-02  0.1238400E+00
         -2   -1    0    0    0  501 -0.00000000000E+00  0.00000000000E+00  0.75333611311E+02  0.75333611311E+02  0.00000000000E+00 0.  1.
          2   -1    0    0  501    0  0.00000000000E+00 -0.00000000000E+00 -0.26105916610E+03  0.26105916610E+03  0.00000000000E+00 0. -1.
         25    2    1    2    0    0  0.38043569879E+02  0.81166990259E+02 -0.10568735441E+03  0.18668856060E+03  0.12508960093E+03 0.  0.
          5    1    3    3  502    0  0.37650590982E+02 -0.10320744646E+02 -0.83775625073E+02  0.92519795328E+02  0.41800000000E+01 0. -1.
         -5    1    3    3    0  502  0.39297889695E+00  0.91487734905E+02 -0.21911729335E+02  0.94168765273E+02  0.41800000000E+01 0. -1.
        -11    1    1    2    0    0  0.17573460710E+02 -0.13095812268E+01  0.71748690645E+01  0.19026830277E+02  0.00000000000E+00 0.  1.
         11    1    1    2    0    0 -0.55617030588E+02 -0.79857409032E+02 -0.87213069442E+02  0.13067738653E+03  0.00000000000E+00 0. -1.
</event>
<event>
 7    1  0.2842702E-009  0.9520369E+02  0.7561462E-02  0.1290718E+00
         -1   -1    0    0    0  501 -0.00000000000E+00  0.00000000000E+00  0.11713241956E+03  0.11713241956E+03  0.00000000000E+00 0.  1.
          1   -1    0    0  501    0  0.00000000000E+00 -0.00000000000E+00 -0.13714161695E+03  0.13714161695E+03  0.00000000000E+00 0. -1.
         25    2    1    2    0    0 -0.60634766030E+02 -0.14805240080E+02  0.78491769261E+01  0.14001444819E+03  0.12508663453E+03 0.  0.
          5    1    3    3  502    0 -0.60897497257E+02  0.10807070182E+02  0.57140861744E+02  0.84308056666E+02  0.41800000000E+01 0. -1.
         -5    1    3    3    0  502  0.26273122620E+00 -0.25612310262E+02 -0.49291684818E+02  0.55706391526E+02  0.41800000000E+01 0. -1.
        -11    1    1    2    0    0  0.26890174726E+02  0.48070519213E+02 -0.36523450511E+02  0.66089475346E+02  0.00000000000E+00 0.  1.
         11    1    1    2    0    0  0.33744591305E+02 -0.33265279134E+02  0.86650761984E+01  0.48170112971E+02  0.00000000000E+00 0. -1.
</event>
<event>
 7    1  0.2842702E-009  0.1098918E+03  0.7561462E-02  0.1260770E+00
         -2   -1    0    0    0  501 -0.00000000000E+00  0.00000000000E+00  0.12523796640E+03  0.12523796640E+03  0.00000000000E+00 0. -1.
          2   -1    0    0  501    0  0.00000000000E+00 -0.00000000000E+00 -0.16576534664E+03  0.16576534664E+03  0.00000000000E+00 0.  1.
         25    2    1    2    0    0 -0.86304008289E+02  0.32974869959E+02 -0.28269174176E+02  0.15805899602E+03  0.12509107130E+03 0.  0.
          5    1    3    3  502    0 -0.54104517151E+02 -0.25352415890E+02  0.32186799917E+02  0.67996369436E+02  0.41800000000E+01 0. -1.
         -5    1    3    3    0  502 -0.32199491138E+02  0.58327285849E+02 -0.60455974093E+02  0.90062626586E+02  0.41800000000E+01 0. -1.
        -11    1    1    2    0    0  0.18365536420E+02 -0.12349311102E+02 -0.48440047930E+02  0.53256329729E+02  0.00000000000E+00 0.  1.
         11    1    1    2    0    0  0.67938471870E+02 -0.20625558857E+02  0.36181841868E+02  0.79687987295E+02  0.00000000000E+00 0. -1.
</event>
<event>
 7    1  0.2842702E-009  0.1997629E+03  0.7561462E-02  0.1149939E+00
          1   -1    0    0  501    0  0.00000000000E+00  0.00000000000E+00  0.22988786687E+04  0.22988786687E+04  0.00000000000E+00 0. -1.
         -1   -1    0    0    0  501 -0.00000000000E+00 -0.00000000000E+00 -0.18771923529E+02  0.18771923529E+02  0.00000000000E+00 0.  1.
         25    2    1    2    0    0 -0.17346721690E+03  0.71280221768E+01  0.13977013512E+04  0.14139862948E+04  0.12508593281E+03 0.  0.
          5    1    3    3  502    0 -0.98363016381E+02 -0.55595158087E+02  0.86478295344E+03  0.87214284011E+03  0.41800000000E+01 0. -1.
         -5    1    3    3    0  502 -0.75104200521E+02  0.62723180264E+02  0.53291839778E+03  0.54184345467E+03  0.41800000000E+01 0. -1.
        -11    1    1    2    0    0  0.53894470421E+02  0.32036849383E+02  0.19478630062E+03  0.20462814217E+03  0.00000000000E+00 0.  1.
         11    1    1    2    0    0  0.11957274648E+03 -0.39164871560E+02  0.68761909334E+03  0.69903615528E+03  0.00000000000E+00 0. -1.
</event>
<event>
 7    1  0.2842702E-009  0.2191866E+03  0.7561462E-02  0.1134491E+00
          3   -1    0    0  501    0  0.00000000000E+00  0.00000000000E+00  0.13968062295E+03  0.13968062295E+03  0.00000000000E+00 0. -1.
         -3   -1    0    0    0  501 -0.00000000000E+00 -0.00000000000E+00 -0.46617353712E+03  0.46617353712E+03  0.00000000000E+00 0.  1.
         25    2    1    2    0    0 -0.17672175993E+03 -0.99069696453E+02 -0.29836172945E+03  0.38172390681E+03  0.12509210301E+03 0.  0.
          5    1    3    3  502    0 -0.97281162454E+02  0.11252555709E+02 -0.91083826103E+02  0.13380575606E+03  0.41800000000E+01 0.  1.
         -5    1    3    3    0  502 -0.79440597477E+02 -0.11032225216E+03 -0.20727790335E+03  0.24791815074E+03  0.41800000000E+01 0.  1.
        -11    1    1    2    0    0  0.14298718169E+03  0.91535262538E+02 -0.57005487025E+02  0.17909121689E+03  0.00000000000E+00 0.  1.
         11    1    1    2    0    0  0.33734578239E+02  0.75344339143E+01  0.28874302306E+02  0.45039036369E+02  0.00000000000E+00 0. -1.
</event>
<event>
 7    1  0.2842702E-009  0.1554456E+03  0.7561462E-02  0.1193937E+00
          2   -1    0    0  501    0  0.00000000000E+00  0.00000000000E+00  0.26812684761E+02  0.26812684761E+02  0.00000000000E+00 0. -1.
         -2   -1    0    0    0  501 -0.00000000000E+00 -0.00000000000E+00 -0.12540610558E+04  0.12540610558E+04  0.00000000000E+00 0.  1.
         25    2    1    2    0    0  0.83021421854E+02  0.10461643119E+03 -0.84339565594E+03  0.86302147921E+03  0.12511069877E+03 0.  0.
          5    1    3    3  502    0  0.23518312337E+02  0.76087006388E+02 -0.70657537126E+03  0.71106158047E+03  0.41800000000E+01 0.  1.
         -5    1    3    3    0  502  0.59503109517E+02  0.28529424807E+02 -0.13682028469E+03  0.15195989873E+03  0.41800000000E+01 0.  1.
        -11    1    1    2    0    0 -0.11064440614E+02  0.19000106112E+02 -0.46926132404E+02  0.51821692184E+02  0.00000000000E+00 0.  1.
         11    1    1    2    0    0 -0.71956981240E+02 -0.12361653731E+03 -0.33692658273E+03  0.36603056921E+03  0.00000000000E+00 0. -1.
</event>
<event>
 7    1  0.2842702E-009  0.1227894E+03  0.7561462E-02  0.1238565E+00
         -2   -1    0    0    0  501 -0.00000000000E+00  0.00000000000E+00  0.11445398448E+03  0.11445398448E+03  0.00000000000E+00 0.  1.
          2   -1    0    0  501    0  0.00000000000E+00 -0.00000000000E+00 -0.18204034000E+03  0.18204034000E+03  0.00000000000E+00 0. -1.
         25    2    1    2    0    0  0.80926667832E+02 -0.42923992324E+02 -0.90667457505E+01  0.15531282327E+03  0.12509305540E+03 0.  0.
          5    1    3    3  502    0  0.18143204045E+02  0.21259339778E+02 -0.49309432576E+02  0.56833334600E+02  0.41800000000E+01 0.  1.
         -5    1    3    3    0  502  0.62783463787E+02 -0.64183332102E+02  0.40242686826E+02  0.98479488666E+02  0.41800000000E+01 0.  1.
        -11    1    1    2    0    0 -0.10015654912E+03  0.40580216407E+02 -0.42793954294E+02  0.11622999105E+03  0.00000000000E+00 0.  1.
         11    1    1    2    0    0  0.19229881286E+02  0.23437759173E+01 -0.15725655471E+02  0.24951510172E+02  0.00000000000E+00 0. -1.
</event>
<event>
 7    1  0.2842702E-009  0.1088116E+03  0.7561462E-02  0.1262787E+00
         -2   -1    0    0    0  501 -0.00000000000E+00  0.00000000000E+00  0.21085365686E+03  0.21085365686E+03  0.00000000000E+00 0.  1.
          2   -1    0    0  501    0  0.00000000000E+00 -0.00000000000E+00 -0.92285816609E+02  0.92285816609E+02  0.00000000000E+00 0. -1.
         25    2    1    2    0    0 -0.61487631110E+01 -0.72442969217E+02  0.12885476619E+02  0.14525661162E+03  0.12509059371E+03 0.  0.
          5    1    3    3  502    0 -0.23342616368E+01 -0.10790466474E+03  0.31792055820E+01  0.10805760130E+03  0.41800000000E+01 0.  1.
         -5    1    3    3    0  502 -0.38145014742E+01  0.35461695526E+02  0.97062710371E+01  0.37199010317E+02  0.41800000000E+01 0.  1.
        -11    1    1    2    0    0  0.97976758762E+01  0.48175066932E+02 -0.23277560045E+00  0.49161831851E+02  0.00000000000E+00 0. -1.
         11    1    1    2    0    0 -0.36489127652E+01  0.24267902285E+02  0.10591513923E+03  0.10872103000E+03  0.00000000000E+00 0.  1.
</event>
<event>
 7    1  0.2842702E-009  0.1301032E+03  0.7561462E-02  0.1227303E+00
          2   -1    0    0  501    0  0.00000000000E+00  0.00000000000E+00  0.99049758248E+03  0.99049758248E+03  0.00000000000E+00 0. -1.
         -2   -1    0    0    0  501 -0.00000000000E+00 -0.00000000000E+00 -0.24154247434E+02  0.24154247434E+02  0.00000000000E+00 0.  1.
         25    2    1    2    0    0  0.69503609146E+02  0.47880673720E+02  0.74892801194E+03  0.76397915593E+03  0.12509065920E+03 0.  0.
          5    1    3    3  502    0  0.90974258827E+02  0.71420716327E+02  0.64117443744E+03  0.65153615871E+03  0.41800000000E+01 0.  1.
         -5    1    3    3    0  502 -0.21470649681E+02 -0.23540042607E+02  0.10775357451E+03  0.11244299722E+03  0.41800000000E+01 0.  1.
        -11    1    1    2    0    0 -0.40570681365E+02  0.14891799478E+02  0.35036586219E+02  0.55635494533E+02  0.00000000000E+00 0.  1.
         11    1    1    2    0    0 -0.28932927781E+02 -0.62772473198E+02  0.18237873688E+03  0.19503717945E+03  0.00000000000E+00 0. -1.
</event>
<event>
 7    1  0.2842702E-009  0.1943353E+03  0.7561462E-02  0.1154608E+00
          1   -1    0    0  501    0  0.00000000000E+00  0.00000000000E+00  0.83057519124E+03  0.83057519124E+03  0.00000000000E+00 0. -1.
         -1   -1    0    0    0  501 -0.00000000000E+00 -0.00000000000E+00 -0.48991861304E+02  0.48991861304E+02  0.00000000000E+00 0.  1.
         25    2    1    2    0    0 -0.13573712236E+03  0.87205591635E+02  0.29467797554E+03  0.35848465732E+03  0.12508700440E+03 0.  0.
          5    1    3    3  502    0 -0.10155257522E+03 -0.85465474397E+01  0.15862688637E+03  0.18858931700E+03  0.41800000000E+01 0. -1.
         -5    1    3    3    0  502 -0.34184547143E+02  0.95752139075E+02  0.13605108917E+03  0.16989534033E+03  0.41800000000E+01 0. -1.
        -11    1    1    2    0    0  0.78163645587E+02 -0.99010033682E+02  0.35242558243E+03  0.37432116346E+03  0.00000000000E+00 0. -1.
         11    1    1    2    0    0  0.57573476772E+02  0.11804442047E+02  0.13447977197E+03  0.14676123176E+03  0.00000000000E+00 0.  1.
</event>
<event>
 7    1  0.2842702E-009  0.1467509E+03  0.7561462E-02  0.1204523E+00
         -2   -1    0    0    0  501 -0.00000000000E+00  0.00000000000E+00  0.24114293882E+02  0.24114293882E+02  0.00000000000E+00 0.  1.
          2   -1    0    0  501    0  0.00000000000E+00 -0.00000000000E+00 -0.13530223898E+04  0.13530223898E+04  0.00000000000E+00 0. -1.
         25    2    1    2    0    0  0.96421455391E+02  0.78885692006E+02 -0.97495978066E+03  0.99081495576E+03  0.12509057990E+03 0.  0.
          5    1    3    3  502    0 -0.86235455494E+01  0.61542754801E+02 -0.23041014449E+03  0.23868008566E+03  0.41800000000E+01 0.  1.
         -5    1    3    3    0  502  0.10504500094E+03  0.17342937205E+02 -0.74454963617E+03  0.75213487010E+03  0.41800000000E+01 0.  1.
        -11    1    1    2    0    0 -0.58729431464E+02 -0.45064108578E+02 -0.31170338115E+03  0.32037309160E+03  0.00000000000E+00 0. -1.
         11    1    1    2    0    0 -0.37692023928E+02 -0.33821583428E+02 -0.42244934065E+02  0.65948636282E+02  0.00000000000E+00 0.  1.
</event>
<event>
 7    1  0.2842702E-009  0.1062955E+03  0.7561462E-02  0.1267588E+00
          2   -1    0    0  501    0  0.00000000000E+00  0.00000000000E+00  0.17492162160E+03  0.17492162160E+03  0.00000000000E+00 0. -1.
         -2   -1    0    0    0  501 -0.00000000000E+00 -0.00000000000E+00 -0.86282292658E+02  0.86282292658E+02  0.00000000000E+00 0.  1.
         25    2    1    2    0    0 -0.43651413998E+02  0.43348497886E+01  0.86149424038E+02  0.15809253859E+03  0.12508913074E+03 0.  0.
          5    1    3    3  502    0  0.27857485383E+02 -0.25059356003E+02  0.69241015831E+02  0.78840354441E+02  0.41800000000E+01 0.  1.
         -5    1    3    3    0  502 -0.71508899380E+02  0.29394205791E+02  0.16908408207E+02  0.79252184151E+02  0.41800000000E+01 0.  1.
        -11    1    1    2    0    0 -0.11780502837E+02  0.30018281925E+02  0.16777924524E+02  0.36350739307E+02  0.00000000000E+00 0. -1.
         11    1    1    2    0    0  0.55431916834E+02 -0.34353131714E+02 -0.14288019619E+02  0.66760636359E+02  0.00000000000E+00 0.  1.
</event>
<event>
 7    1  0.2842702E-009  0.8771434E+02  0.7561462E-02  0.1308483E+00
         -2   -1    0    0    0  501 -0.00000000000E+00  0.00000000000E+00  0.51982966283E+02  0.51982966283E+02  0.00000000000E+00 0.  1.
          2   -1    0    0  501    0  0.00000000000E+00 -0.00000000000E+00 -0.26697391791E+03  0.26697391791E+03  0.00000000000E+00 0. -1.
         25    2    1    2    0    0 -0.43743800107E+02 -0.12903248035E+02 -0.13591316234E+03  0.19026631663E+03  0.12509544231E+03 0.  0.
          5    1    3    3  502    0 -0.81784740419E+01 -0.38349714299E+02  0.76174762077E+01  0.40163246486E+02  0.41800000000E+01 0.  1.
         -5    1    3    3    0  502 -0.35565326065E+02  0.25446466264E+02 -0.14353063855E+03  0.15010307014E+03  0.41800000000E+01 0.  1.
        -11    1    1    2    0    0 -0.10894871007E+00 -0.30419919742E+02 -0.54325888846E+02  0.62263035469E+02  0.00000000000E+00 0. -1.
         11    1    1    2    0    0  0.43852748817E+02  0.43323167777E+02 -0.24751900437E+02  0.66427532095E+02  0.00000000000E+00 0.  1.
</event>
<event>
 7    1  0.2842702E-009  0.1209644E+03  0.7561462E-02  0.1241515E+00
         -1   -1    0    0    0  501 -0.00000000000E+00  0.00000000000E+00  0.37476737014E+02  0.37476737014E+02  0.00000000000E+00 0.  1.
          1   -1    0    0  501    0  0.00000000000E+00 -0.00000000000E+00 -0.71034670408E+03  0.71034670408E+03  0.00000000000E+00 0. -1.
         25    2    1    2    0    0  0.12001313657E+03  0.88947672965E+01 -0.31945472855E+03  0.36356688446E+03  0.12508911241E+03 0.  0.
          5    1    3    3  502    0  0.18855181475E+02 -0.11317602204E+01  0.78020675165E+01  0.20860091256E+02  0.41800000000E+01 0. -1.
         -5    1    3    3    0  502  0.10115795510E+03  0.10026527517E+02 -0.32725679607E+03  0.34270679320E+03  0.41800000000E+01 0. -1.
        -11    1    1    2    0    0 -0.36004475606E+02  0.23708049313E+01 -0.22193369506E+02  0.42361404955E+02  0.00000000000E+00 0.  1.
         11    1    1    2    0    0 -0.84008660965E+02 -0.11265572228E+02 -0.33122186901E+03  0.34189515168E+03  0.00000000000E+00 0. -1.
</event>
<event>
 7    1  0.2842702E-009  0.1327082E+03  0.7561462E-02  0.1223492E+00
         -4   -1    0    0    0  501 -0.00000000000E+00  0.00000000000E+00  0.66573824682E+02  0.66573824682E+02  0.00000000000E+00 0. -1.
          4   -1    0    0  501    0  0.00000000000E+00 -0.00000000000E+00 -0.36530776600E+03  0.36530776600E+03  0.00000000000E+00 0.  1.
         25    2    1    2    0    0  0.85296197900E+02  0.27260183432E+02 -0.25462820115E+03  0.29749172293E+03  0.12508895000E+03 0.  0.
          5    1    3    3  502    0  0.48907051481E+02  0.70593122960E+02 -0.20426902693E+03  0.22162715640E+03  0.41800000000E+01 0.  1.
         -5    1    3    3    0  502  0.36389146419E+02 -0.43332939528E+02 -0.50359174227E+02  0.75864566525E+02  0.41800000000E+01 0.  1.
        -11    1    1    2    0    0 -0.53601281434E+02 -0.57696828325E+02 -0.11316048966E+02  0.79561764274E+02  0.00000000000E+00 0. -1.
         11    1    1    2    0    0 -0.31694916466E+02  0.30436644894E+02 -0.32789691195E+02  0.54828103476E+02  0.00000000000E+00 0.  1.
</event>
<event>
 7    1  0.2842702E-009  0.1072914E+03  0.7561462E-02  0.1265670E+00
          2   -1    0    0  501    0  0.00000000000E+00  0.00000000000E+00  0.71094824143E+02  0.71094824143E+02  0.00000000000E+00 0. -1.
         -2   -1    0    0    0  501 -0.00000000000E+00 -0.00000000000E+00 -0.23983594502E+03  0.23983594502E+03  0.00000000000E+00 0.  1.
         25    2    1    2    0    0 -0.45171199116E+02  0.21934276561E+02 -0.28030706909E+02  0.13767475171E+03  0.12508823690E+03 0.  0.
          5    1    3    3  502    0 -0.42372849384E+02  0.61794312050E+02 -0.51622216078E+02  0.91084142195E+02  0.41800000000E+01 0. -1.
         -5    1    3    3    0  502 -0.27983497319E+01 -0.39860035488E+02  0.23591509169E+02  0.46590609517E+02  0.41800000000E+01 0. -1.
        -11    1    1    2    0    0  0.54209072717E+02 -0.47607159054E+02 -0.86831110455E+02  0.11289245724E+03  0.00000000000E+00 0.  1.
         11    1    1    2    0    0 -0.90378736009E+01  0.25672882493E+02 -0.53879303512E+02  0.60363560214E+02  0.00000000000E+00 0. -1.
</event>
<event>
 7    1  0.2842702E-009  0.9290825E+02  0.7561462E-02  0.1295958E+00
         -1   -1    0    0    0  501 -0.00000000000E+00  0.00000000000E+00  0.12243769370E+03  0.12243769370E+03  0.00000000000E+00 0.  1.
          1   -1    0    0  501    0  0.00000000000E+00 -0.00000000000E+00 -0.17903831434E+03  0.17903831434E+03  0.00000000000E+00 0. -1.
         25    2    1    2    0    0 -0.16201313514E+02  0.69388975443E+01  0.69691397362E+02  0.14427506614E+03  0.12509105877E+03 0.  0.
          5    1    3    3  502    0 -0.52696116794E+02 -0.22564836579E+02 -0.31072919824E+01  0.57560231397E+02  0.41800000000E+01 0.  1.
         -5    1    3    3    0  502  0.36494803280E+02  0.29503734123E+02  0.72798689344E+02  0.86714834739E+02  0.41800000000E+01 0.  1.
        -11    1    1    2    0    0  0.30725820928E+02  0.29131427552E+02 -0.10421111634E+03  0.11248410071E+03  0.00000000000E+00 0.  1.
         11    1    1    2    0    0 -0.14524507413E+02 -0.36070325097E+02 -0.22080901658E+02  0.44716841192E+02  0.00000000000E+00 0. -1.
</event>
<event>
 7    1  0.2842702E-009  0.1518814E+03  0.7561462E-02  0.1198180E+00
         -2   -1    0    0    0  501 -0.00000000000E+00  0.00000000000E+00  0.68455797897E+02  0.68455797897E+02  0.00000000000E+00 0.  1.
          2   -1    0    0  501    0  0.00000000000E+00 -0.00000000000E+00 -0.37831786252E+03  0.37831786252E+03  0.00000000000E+00 0. -1.
         25    2    1    2    0    0  0.99552566595E+02  0.54274872161E+02 -0.21445209542E+03  0.27293601388E+03  0.12509153120E+03 0.  0.
          5    1    3    3  502    0  0.19348602075E+02  0.73367571079E+02 -0.56434295722E+02  0.94654482313E+02  0.41800000000E+01 0. -1.
         -5    1    3    3    0  502  0.80203964520E+02 -0.19092698918E+02 -0.15801779970E+03  0.17828153157E+03  0.41800000000E+01 0. -1.
        -11    1    1    2    0    0 -0.97500667229E+02 -0.68387502762E+01 -0.61255248230E+02  0.11534883637E+03  0.00000000000E+00 0.  1.
         11    1    1    2    0    0 -0.20518993663E+01 -0.47436121885E+02 -0.34154720978E+02  0.58488810174E+02  0.00000000000E+00 0. -1.
</event>
<event>
 7    1  0.2842702E-009  0.8287477E+02  0.7561462E-02  0.1321086E+00
          2   -1    0    0  501    0  0.00000000000E+00  0.00000000000E+00  0.31201679272E+03  0.31201679272E+03  0.00000000000E+00 0.  1.
         -2   -1    0    0    0  501 -0.00000000000E+00 -0.00000000000E+00 -0.52464021480E+02  0.52464021480E+02  0.00000000000E+00 0. -1.
         25    2    1    2    0    0  0.56061097995E+02 -0.92149126198E+01  0.98875728867E+02  0.16926811203E+03  0.12509005823E+03 0.  0.
          5    1    3    3  502    0  0.17947041376E+02 -0.31276439889E+02 -0.20688629553E+02  0.41782816792E+02  0.41800000000E+01 0. -1.
         -5    1    3    3    0  502  0.38114056619E+02  0.22061527269E+02  0.11956435842E+03  0.12748529524E+03  0.41800000000E+01 0. -1.
        -11    1    1    2    0    0 -0.53371996323E+02 -0.19162101621E+02  0.15643313709E+03  0.16639435841E+03  0.00000000000E+00 0.  1.
         11    1    1    2    0    0 -0.26891016723E+01  0.28377014241E+02  0.42439052793E+01  0.28818343759E+02  0.00000000000E+00 0. -1.
</event>
<event>
 7    1  0.2842702E-009  0.1189143E+03  0.7561462E-02  0.1244899E+00
          2   -1    0    0  501    0  0.00000000000E+00  0.00000000000E+00  0.31614634376E+03  0.31614634376E+03  0.00000000000E+00 0. -1.
         -2   -1    0    0    0  501 -0.00000000000E+00 -0.00000000000E+00 -0.63081660491E+02  0.63081660491E+02  0.00000000000E+00 0.  1.
         25    2    1    2    0    0  0.35693871119E+02  0.65222166082E+02  0.20176859738E+03  0.24876547721E+03  0.12508282208E+03 0.  0.
          5    1    3    3  502    0  0.14408585373E+02  0.99668173517E+02  0.16781573554E+03  0.19575736420E+03  0.41800000000E+01 0. -1.
         -5    1    3    3    0  502  0.21285285746E+02 -0.34446007435E+02  0.33952861847E+02  0.53008113012E+02  0.41800000000E+01 0. -1.
        -11    1    1    2    0    0 -0.45010965088E+01 -0.64981065115E+02 -0.58066778990E+01  0.65395077808E+02  0.00000000000E+00 0.  1.
         11    1    1    2    0    0 -0.31192774610E+02 -0.24110096650E+00  0.57102763781E+02  0.65067449228E+02  0.00000000000E+00 0. -1.
</event>
<event>
 7    1  0.2842702E-009  0.2944401E+03  0.7561462E-02  0.1088053E+00
          1   -1    0    0  501    0  0.00000000000E+00  0.00000000000E+00  0.18378593363E+04  0.18378593363E+04  0.00000000000E+00 0. -1.
         -1   -1    0    0    0  501 -0.00000000000E+00 -0.00000000000E+00 -0.54277144891E+02  0.54277144891E+02  0.00000000000E+00 0.  1.
         25    2    1    2    0    0  0.23600016564E+03 -0.16403077914E+03  0.11249545235E+04  0.11678084104E+04  0.12510646972E+03 0.  0.
          5    1    3    3  502    0  0.22413284833E+03 -0.11716782118E+03  0.79403546343E+03  0.83335083945E+03  0.41800000000E+01 0. -1.
         -5    1    3    3    0  502  0.11867317312E+02 -0.46862957959E+02  0.33091906011E+03  0.33445757099E+03  0.41800000000E+01 0. -1.
        -11    1    1    2    0    0 -0.33622968107E+02  0.22554900665E+02  0.19381346423E+03  0.19799718798E+03  0.00000000000E+00 0. -1.
         11    1    1    2    0    0 -0.20237719753E+03  0.14147587847E+03  0.46481420367E+03  0.52633088282E+03  0.00000000000E+00 0.  1.
</event>
<event>
 7    1  0.2842702E-009  0.9455413E+02  0.7561462E-02  0.1292183E+00
         -1   -1    0    0    0  501 -0.00000000000E+00  0.00000000000E+00  0.31424394230E+02  0.31424394230E+02  0.00000000000E+00 0.  1.
          1   -1    0    0  501    0  0.00000000000E+00 -0.00000000000E+00 -0.47576598940E+03  0.47576598940E+03  0.00000000000E+00 0. -1.
         25    2    1    2    0    0  0.50902667333E+02 -0.30316896513E+02 -0.23085687781E+03  0.26917129536E+03  0.12509233572E+03 0.  0.
          5    1    3    3  502    0  0.86415517705E+02 -0.32179552288E+02 -0.11253310385E+03  0.14554840139E+03  0.41800000000E+01 0.  1.
         -5    1    3    3    0  502 -0.35512850372E+02  0.18626557743E+01 -0.11832377396E+03  0.12362289397E+03  0.41800000000E+01 0.  1.
        -11    1    1    2    0    0 -0.35193298461E+02  0.28291579807E+02 -0.21712172587E+03  0.22176750346E+03  0.00000000000E+00 0. -1.
         11    1    1    2    0    0 -0.15709368872E+02  0.20253167063E+01  0.36370085114E+01  0.16251584816E+02  0.00000000000E+00 0.  1.
</event>
<event>
 7    1  0.2842702E-009  0.1108679E+03  0.7561462E-02  0.1258971E+00
          1   -1    0    0  501    0  0.00000000000E+00  0.00000000000E+00  0.51391097225E+02  0.51391097225E+02  0.00000000000E+00 0. -1.
         -1   -1    0    0    0  501 -0.00000000000E+00 -0.00000000000E+00 -0.30758416002E+03  0.30758416002E+03  0.00000000000E+00 0.  1.
         25    2    1    2    0    0  0.12093903258E+02 -0.59289232503E+02 -0.11968276701E+03  0.18339407238E+03  0.12509174825E+03 0.  0.
          5    1    3    3  502    0 -0.41281598352E+02 -0.94563611220E+01 -0.98416238640E+02  0.10722323235E+03  0.41800000000E+01 0. -1.
         -5    1    3    3    0  502  0.53375501610E+02 -0.49832871381E+02 -0.21266528367E+02  0.76170840031E+02  0.41800000000E+01 0. -1.
        -11    1    1    2    0    0  0.37844140530E+02  0.28437989700E+02 -0.85882823216E+02  0.98065067961E+02  0.00000000000E+00 0.  1.
         11    1    1    2    0    0 -0.49938043788E+02  0.30851242803E+02 -0.50627472568E+02  0.77516116895E+02  0.00000000000E+00 0. -1.
</event>
<event>
 7    1  0.2842702E-009  0.1068756E+03  0.7561462E-02  0.1266468E+00
          1   -1    0    0  501    0  0.00000000000E+00  0.00000000000E+00  0.25279236127E+03  0.25279236127E+03  0.00000000000E+00 0. -1.
         -1   -1    0    0    0  501 -0.00000000000E+00 -0.00000000000E+00 -0.55569376410E+02  0.55569376410E+02  0.00000000000E+00 0.  1.
         25    2    1    2    0    0  0.11135848663E+02  0.47887790390E+02  0.90425271835E+02  0.16199153798E+03  0.12508909224E+03 0.  0.
          5    1    3    3  502    0  0.31117122528E+02  0.81249667237E+02  0.34371207633E+02  0.93640995589E+02  0.41800000000E+01 0.  1.
         -5    1    3    3    0  502 -0.19981273865E+02 -0.33361876847E+02  0.56054064201E+02  0.68350542394E+02  0.41800000000E+01 0.  1.
        -11    1    1    2    0    0 -0.15352072403E+02  0.16772065232E+02  0.15692451340E+01  0.22791463961E+02  0.00000000000E+00 0.  1.
         11    1    1    2    0    0  0.42162237403E+01 -0.64659855622E+02  0.10522846789E+03  0.12357873574E+03  0.00000000000E+00 0. -1.
</event>
<event>
 7    1  0.2842702E-009  0.8969306E+02  0.7561462E-02  0.1303597E+00
         -2   -1    0    0    0  501 -0.00000000000E+00  0.00000000000E+00  0.82105485387E+02  0.82105485387E+02  0.00000000000E+00 0.  1.
          2   -1    0    0  501    0  0.00000000000E+00 -0.00000000000E+00 -0.21021166722E+03  0.21021166722E+03  0.00000000000E+00 0. -1.
         25    2    1    2    0    0  0.38926873954E+02  0.60759266405E+02 -0.67942704613E+02  0.15959496842E+03  0.12508937950E+03 0.  0.
          5    1    3    3  502    0  0.56131185965E+02  0.23717816482E+02  0.18565677376E+02  0.63838872429E+02  0.41800000000E+01 0. -1.
         -5    1    3    3    0  502 -0.17204312011E+02  0.37041449923E+02 -0.86508381989E+02  0.95756095987E+02  0.41800000000E+01 0. -1.
        -11    1    1    2    0    0  0.39232852817E+01 -0.10476507217E+02  0.23555033374E+02  0.26076598093E+02  0.00000000000E+00 0.  1.
         11    1    1    2    0    0 -0.42850159236E+02 -0.50282759188E+02 -0.83718510597E+02  0.10664558610E+03  0.00000000000E+00 0. -1.
</event>
<event>
 7    1  0.2842702E-009  0.8841312E+02  0.7561462E-02  0.1306741E+00
          1   -1    0    0  501    0  0.00000000000E+00  0.00000000000E+00  0.97107213766E+02  0.97107213766E+02  0.00000000000E+00 0. -1.
         -1   -1    0    0    0  501 -0.00000000000E+00 -0.00000000000E+00 -0.15504354633E+03  0.15504354633E+03  0.00000000000E+00 0.  1.
         25    2    1    2    0    0  0.19738894022E+02  0.50392959092E+02 -0.14528731907E+02  0.13706326190E+03  0.12508468911E+03 0.  0.
          5    1    3    3  502    0  0.49268851209E+02  0.49004163162E+02 -0.53622028926E+02  0.87872760813E+02  0.41800000000E+01 0. -1.
         -5    1    3    3    0  502 -0.29529957187E+02  0.13887959297E+01  0.39093297019E+02  0.49190501089E+02  0.41800000000E+01 0. -1.
        -11    1    1    2    0    0 -0.26469291334E+02 -0.60025979067E+02 -0.63826182064E+02  0.91528810019E+02  0.00000000000E+00 0.  1.
         11    1    1    2    0    0  0.67303973116E+01  0.96330199753E+01  0.20418581408E+02  0.23558688175E+02  0.00000000000E+00 0. -1.
</event>
<event>
 7    1  0.3853707E-009  0.1251370E+03  0.7561462E-02  0.1234855E+00
          1   -1    0    0  501    0  0.00000000000E+00  0.00000000000E+00  0.88837621776E+03  0.88837621776E+03  0.00000000000E+00 0. -1.
         -1   -1    0    0    0  501 -0.00000000000E+00 -0.00000000000E+00 -0.23768275725E+02  0.23768275725E+02  0.00000000000E+00 0.  1.
         25    2    1    2    0    0  0.69224928753E+02  0.50951357360E+02  0.60702651593E+03  0.62571259045E+03  0.12508766216E+03 0.  0.
          5    1    3    3  502    0  0.35700456363E+02 -0.34644127121E+02  0.33118921102E+03  0.33493059583E+03  0.41800000000E+01 0.  1.
         -5    1    3    3    0  502  0.33524472390E+02  0.85595484480E+02  0.27583730491E+03  0.29078199462E+03  0.41800000000E+01 0.  1.
        -11    1    1    2    0    0 -0.62466687126E+02 -0.58661985076E+01  0.72781832405E+02  0.96092114211E+02  0.00000000000E+00 0.  1.
         11    1    1    2    0    0 -0.67582416268E+01 -0.45085158852E+02  0.18479959370E+03  0.19033978883E+03  0.00000000000E+00 0. -1.
</event>
<event>
 7    1  0.2842702E-009  0.1151350E+03  0.7561462E-02  0.1251346E+00
          2   -1    0    0  501    0  0.00000000000E+00  0.00000000000E+00  0.24688068620E+03  0.24688068620E+03  0.00000000000E+00 0. -1.
         -2   -1    0    0    0  501 -0.00000000000E+00 -0.00000000000E+00 -0.71637280585E+02  0.71637280585E+02  0.00000000000E+00 0.  1.
         25    2    1    2    0    0 -0.12920124557E+01  0.71390243808E+02  0.68874580491E+02  0.15965439191E+03  0.12509029064E+03 0.  0.
          5    1    3    3  502    0 -0.61137951798E+02  0.18387630548E+02  0.31054702379E+02  0.71118359424E+02  0.41800000000E+01 0.  1.
         -5    1    3    3    0  502  0.59845939343E+02  0.53002613259E+02  0.37819878112E+02  0.88536032487E+02  0.41800000000E+01 0.  1.
        -11    1    1    2    0    0  0.23009732531E+02 -0.53003644209E+02  0.10331210013E+02  0.58698960731E+02  0.00000000000E+00 0.  1.
         11    1    1    2    0    0 -0.21717720076E+02 -0.18386599599E+02  0.96037615109E+02  0.10016461414E+03  0.00000000000E+00 0. -1.
</event>
<event>
 7    1  0.2842702E-009  0.1257917E+03  0.7561462E-02  0.1233837E+00
          2   -1    0    0  501    0  0.00000000000E+00  0.00000000000E+00  0.28856602101E+03  0.28856602101E+03  0.00000000000E+00 0. -1.
         -2   -1    0    0    0  501 -0.00000000000E+00 -0.00000000000E+00 -0.10138239459E+03  0.10138239459E+03  0.00000000000E+00 0.  1.
         25    2    1    2    0    0 -0.76654660268E+02  0.34455624597E+02 -0.16510459186E+02  0.15160308903E+03  0.12509106417E+03 0.  0.
          5    1    3    3  502    0 -0.11100725772E+03  0.22810846818E+02 -0.19090390064E+02  0.11499939735E+03  0.41800000000E+01 0.  1.
         -5    1    3    3    0  502  0.34352597451E+02  0.11644777779E+02  0.25799308787E+01  0.36603691678E+02  0.41800000000E+01 0.  1.
        -11    1    1    2    0    0  0.75495586179E+02 -0.88244537434E+01  0.73804870687E+02  0.10594627626E+03  0.00000000000E+00 0.  1.
         11    1    1    2    0    0  0.11590740892E+01 -0.25631170854E+02  0.12988921492E+03  0.13239905031E+03  0.00000000000E+00 0. -1.
</event>
<event>
 7    1  0.2842702E-009  0.1361110E+03  0.7561462E-02  0.1218660E+00
         -2   -1    0    0    0  501 -0.00000000000E+00  0.00000000000E+00  0.61951294181E+02  0.61951294181E+02  0.00000000000E+00 0.  1.
          2   -1    0    0  501    0  0.00000000000E+00 -0.00000000000E+00 -0.50181904780E+03  0.50181904780E+03  0.00000000000E+00 0. -1.
         25    2    1    2    0    0  0.10478597142E+03  0.80876489513E+02 -0.16068703638E+03  0.24287678368E+03  0.12509077515E+03 0.  0.
          5    1    3    3  502    0  0.75224603283E+02  0.30684456952E+02 -0.16536301641E+03  0.18428965363E+03  0.41800000000E+01 0.  1.
         -5    1    3    3    0  502  0.29561368138E+02  0.50192032561E+02  0.46759800267E+01  0.58587130054E+02  0.41800000000E+01 0.  1.
        -11    1    1    2    0    0 -0.47570547420E+02 -0.40037588110E+02 -0.22119767357E+03  0.22977026839E+03  0.00000000000E+00 0. -1.
         11    1    1    2    0    0 -0.57215424001E+02 -0.40838901403E+02 -0.57983043669E+02  0.91123289913E+02  0.00000000000E+00 0.  1.
</event>
<event>
 7    1  0.2842702E-009  0.8489334E+02  0.7561462E-02  0.1315712E+00
         -1   -1    0    0    0  501 -0.00000000000E+00  0.00000000000E+00  0.79817226886E+02  0.79817226886E+02  0.00000000000E+00 0.  1.
          1   -1    0    0  501    0  0.00000000000E+00 -0.00000000000E+00 -0.18422660551E+03  0.18422660551E+03  0.00000000000E+00 0. -1.
         25    2    1    2    0    0  0.34876282179E+02  0.32851891516E+02 -0.35374803448E+02  0.13855202518E+03  0.12509870154E+03 0.  0.
          5    1    3    3  502    0  0.32285646729E+02  0.77977341907E+00 -0.78266057234E+02  0.84770390740E+02  0.41800000000E+01 0.  1.
         -5    1    3    3    0  502  0.25906354498E+01  0.32072118097E+02  0.42891253785E+02  0.53781634435E+02  0.41800000000E+01 0.  1.
        -11    1    1    2    0    0  0.28640910341E+02  0.73954592937E+01 -0.20647667256E+02  0.36073823286E+02  0.00000000000E+00 0.  1.
         11    1    1    2    0    0 -0.63517192520E+02 -0.40247350810E+02 -0.48386907916E+02  0.89417983932E+02  0.00000000000E+00 0. -1.
</event>
<event>
 7    1  0.4074876E-009  0.1538963E+03  0.7561462E-02  0.1195765E+00
          2   -1    0    0  501    0  0.00000000000E+00  0.00000000000E+00  0.98698270865E+03  0.98698270865E+03  0.00000000000E+00 0. -1.
         -2   -1    0    0    0  501 -0.00000000000E+00 -0.00000000000E+00 -0.44097760225E+02  0.44097760225E+02  0.00000000000E+00 0.  1.
         25    2    1    2    0    0  0.13167480501E+03  0.48225483133E+02  0.76113807624E+03  0.78398878664E+03  0.12507315850E+03 0.  0.
          5    1    3    3  502    0  0.82309917781E+02  0.74833592132E+02  0.31044211707E+03  0.32979807387E+03  0.41800000000E+01 0. -1.
         -5    1    3    3    0  502  0.49364887227E+02 -0.26608108999E+02  0.45069595917E+03  0.45419071277E+03  0.41800000000E+01 0. -1.
        -11    1    1    2    0    0 -0.21034264635E+02 -0.71199717458E+01 -0.80226167324E+01  0.23611367297E+02  0.00000000000E+00 0.  1.
         11    1    1    2    0    0 -0.11064054037E+03 -0.41105511387E+02  0.18976948892E+03  0.22348031494E+03  0.00000000000E+00 0. -1.
</event>
<event>
 7    1  0.2842702E-009  0.9752566E+02  0.7561462E-02  0.1285587E+00
         -1   -1    0    0    0  501 -0.00000000000E+00  0.00000000000E+00  0.19754037998E+03  0.19754037998E+03  0.00000000000E+00 0.  1.
          1   -1    0    0  501    0  0.00000000000E+00 -0.00000000000E+00 -0.17767515294E+03  0.17767515294E+03  0.00000000000E+00 0. -1.
         25    2    1    2    0    0 -0.59452460040E+02 -0.56134192081E+01 -0.12968663766E+03  0.18982460305E+03  0.12509456606E+03 0.  0.
          5    1    3    3  502    0  0.82433112963E+01 -0.15455128126E+02  0.18954108149E+02  0.26144670246E+02  0.41800000000E+01 0. -1.
         -5    1    3    3    0  502 -0.67695771336E+02  0.98417089183E+01 -0.14864074580E+03  0.16367993281E+03  0.41800000000E+01 0. -1.
        -11    1    1    2    0    0  0.35933735250E+01 -0.37670814425E+02  0.64829691395E+02  0.75065914230E+02  0.00000000000E+00 0.  1.
         11    1    1    2    0    0  0.55859086515E+02  0.43284233633E+02  0.84722173292E+02  0.11032501563E+03  0.00000000000E+00 0. -1.
</event>
<event>
 7    1  0.2842702E-009  0.7786640E+02  0.7561462E-02  0.1335218E+00
          3   -1    0    0  501    0  0.00000000000E+00  0.00000000000E+00  0.39417894959E+03  0.39417894959E+03  0.00000000000E+00 0. -1.
         -3   -1    0    0    0  501 -0.00000000000E+00 -0.00000000000E+00 -0.47299324910E+02  0.47299324910E+02  0.00000000000E+00 0.  1.
         25    2    1    2    0    0 -0.25858340360E+02 -0.36627358910E+02  0.80571372358E+02  0.15540244840E+03  0.12509179725E+03 0.  0.
          5    1    3    3  502    0 -0.11509116951E+02 -0.40450233028E+02 -0.24737000540E+02  0.48970120693E+02  0.41800000000E+01 0. -1.
         -5    1    3    3    0  502 -0.14349223408E+02  0.38228741179E+01  0.10530837290E+03  0.10643232771E+03  0.41800000000E+01 0. -1.
        -11    1    1    2    0    0  0.55320438678E+02  0.40173161340E+02  0.22538200189E+03  0.23552341838E+03  0.00000000000E+00 0. -1.
         11    1    1    2    0    0 -0.29462098318E+02 -0.35458024302E+01  0.40926250429E+02  0.50552407721E+02  0.00000000000E+00 0.  1.
</event>
<event>
 7    1  0.2842702E-009  0.1166106E+03  0.7561462E-02  0.1248796E+00
         -1   -1    0    0    0  501 -0.00000000000E+00  0.00000000000E+00  0.35250914561E+02  0.35250914561E+02  0.00000000000E+00 0.  1.
          1   -1    0    0  501    0  0.00000000000E+00 -0.00000000000E+00 -0.83252443623E+03  0.83252443623E+03  0.00000000000E+00 0. -1.
         25    2    1    2    0    0 -0.83782460382E+02 -0.18630367392E+01 -0.66391237753E+03  0.68077388627E+03  0.12510182901E+03 0.  0.
          5    1    3    3  502    0  0.11131256679E+02 -0.34866594032E+02 -0.77626897071E+02  0.85924337667E+02  0.41800000000E+01 0. -1.
         -5    1    3    3    0  502 -0.94913717062E+02  0.33003557293E+02 -0.58628548046E+03  0.59484954860E+03  0.41800000000E+01 0. -1.
        -11    1    1    2    0    0  0.35233878178E+02 -0.22178116551E+02 -0.12554172143E+03  0.13226495698E+03  0.00000000000E+00 0. -1.
         11    1    1    2    0    0  0.48548582204E+02  0.24041153290E+02 -0.78194227040E+01  0.54736507533E+02  0.00000000000E+00 0.  1.
</event>
<event>
 7    1  0.2842702E-009  0.9267248E+02  0.7561462E-02  0.1296506E+00
          1   -1    0    0  501    0  0.00000000000E+00  0.00000000000E+00  0.32769252523E+03  0.32769252523E+03  0.00000000000E+00 0. -1.
         -1   -1    0    0    0  501 -0.00000000000E+00 -0.00000000000E+00 -0.57436080379E+02  0.57436080379E+02  0.00000000000E+00 0.  1.
         25    2    1    2    0    0  0.11733190351E+02 -0.47499494409E+02  0.52563262426E+02  0.14423809161E+03  0.12509140973E+03 0.  0.
          5    1    3    3  502    0  0.42251254196E+02  0.63621894861E+01  0.67890124111E+02  0.80325508327E+02  0.41800000000E+01 0. -1.
         -5    1    3    3    0  502 -0.30518063844E+02 -0.53861683895E+02 -0.15326861685E+02  0.63912583283E+02  0.41800000000E+01 0. -1.
        -11    1    1    2    0    0 -0.37590885906E+02  0.19852515797E+02  0.18809234350E+03  0.19283652862E+03  0.00000000000E+00 0. -1.
         11    1    1    2    0    0  0.25857695555E+02  0.27646978612E+02  0.29600838924E+02  0.48053985379E+02  0.00000000000E+00 0.  1.
</event>
<event>
 7    1  0.3212163E-009  0.9481409E+02  0.7561462E-02  0.1291595E+00
          2   -1    0    0  501    0  0.00000000000E+00  0.00000000000E+00  0.41891245578E+03  0.41891245578E+03  0.00000000000E+00 0. -1.
         -2   -1    0    0    0  501 -0.00000000000E+00 -0.00000000000E+00 -0.39663120677E+02  0.39663120677E+02  0.00000000000E+00 0.  1.
         25    2    1    2    0    0 -0.65750373368E+02  0.14159327430E+02  0.17576184500E+03  0.22597051434E+03  0.12508736563E+03 0.  0.
          5    1    3    3  502    0 -0.91544608433E+01  0.29787339115E+02  0.16265548931E+03  0.16566644297E+03  0.41800000000E+01 0.  1.
         -5    1    3    3    0  502 -0.56595912524E+02 -0.15628011685E+02  0.13106355694E+02  0.60304071366E+02  0.41800000000E+01 0.  1.
        -11    1    1    2    0    0  0.96190105719E+01 -0.37366371924E+02  0.30252665097E+02  0.49030550279E+02  0.00000000000E+00 0. -1.
         11    1    1    2    0    0  0.56131362796E+02  0.23207044494E+02  0.17323482501E+03  0.18357451184E+03  0.00000000000E+00 0.  1.
</event>
<event>
 7    1  0.2842702E-009  0.9757606E+02  0.7561462E-02  0.1285477E+00
         -1   -1    0    0    0  501 -0.00000000000E+00  0.00000000000E+00  0.19598706396E+02  0.19598706396E+02  0.00000000000E+00 0.  1.
          1   -1    0    0  501    0  0.00000000000E+00 -0.00000000000E+00 -0.67447595031E+03  0.67447595031E+03  0.00000000000E+00 0. -1.
         25    2    1    2    0    0  0.22634705008E+02 -0.25665952231E+02 -0.42049830530E+03  0.44004296771E+03  0.12509163721E+03 0.  0.
          5    1    3    3  502    0  0.49200983729E+02 -0.51100004096E+02 -0.13888953739E+03  0.15601193293E+03  0.41800000000E+01 0. -1.
         -5    1    3    3    0  502 -0.26566278722E+02  0.25434051864E+02 -0.28160876791E+03  0.28403103479E+03  0.41800000000E+01 0. -1.
        -11    1    1    2    0    0 -0.18903636575E+02  0.54664093205E+02 -0.91922758298E+02  0.10860618792E+03  0.00000000000E+00 0.  1.
         11    1    1    2    0    0 -0.37310684322E+01 -0.28998140973E+02 -0.14245618032E+03  0.14542550107E+03  0.00000000000E+00 0. -1.
</event>
<event>
 7    1  0.2842702E-009  0.9784154E+02  0.7561462E-02  0.1284901E+00
         -1   -1    0    0    0  501 -0.00000000000E+00  0.00000000000E+00  0.22406842911E+02  0.22406842911E+02  0.00000000000E+00 0.  1.
          1   -1    0    0  501    0  0.00000000000E+00 -0.00000000000E+00 -0.64409447661E+03  0.64409447661E+03  0.00000000000E+00 0. -1.
         25    2    1    2    0    0 -0.19660742944E+01 -0.77321437008E+00 -0.49978427246E+03  0.51520521066E+03  0.12509047440E+03 0.  0.
          5    1    3    3  502    0 -0.29375774349E+02 -0.46156735463E+02 -0.38263263502E+03  0.38654700378E+03  0.41800000000E+01 0. -1.
         -5    1    3    3    0  502  0.27409700054E+02  0.45383521093E+02 -0.11715163744E+03  0.12865820688E+03  0.41800000000E+01 0. -1.
        -11    1    1    2    0    0  0.33661515785E+02 -0.28784136277E+02 -0.45763749612E+02  0.63686300919E+02  0.00000000000E+00 0. -1.
         11    1    1    2    0    0 -0.31695441490E+02  0.29557350648E+02 -0.76139611621E+02  0.87609807935E+02  0.00000000000E+00 0.  1.
</event>
<event>
 7    1  0.2842702E-009  0.8117430E+02  0.7561462E-02  0.1325752E+00
         -1   -1    0    0    0  501 -0.00000000000E+00  0.00000000000E+00  0.13644065357E+03  0.13644065357E+03  0.00000000000E+00 0.  1.
          1   -1    0    0  501    0  0.00000000000E+00 -0.00000000000E+00 -0.86257000300E+02  0.86257000300E+02  0.00000000000E+00 0. -1.
         25    2    1    2    0    0 -0.50235222332E+01 -0.10944218264E+02  0.12790178670E+02  0.12630695180E+03  0.12507935766E+03 0.  0.
          5    1    3    3  502    0  0.37951705381E+02 -0.49867757851E+02 -0.10509041624E+02  0.63679176897E+02  0.41800000000E+01 0. -1.
         -5    1    3    3    0  502 -0.42975227614E+02  0.38923539587E+02  0.23299220294E+02  0.62627774899E+02  0.41800000000E+01 0. -1.
        -11    1    1    2    0    0 -0.19730284743E+01 -0.14698334227E+02  0.59809347908E+02  0.61620548258E+02  0.00000000000E+00 0.  1.
         11    1    1    2    0    0  0.69965507075E+01  0.25642552491E+02 -0.22415873310E+02  0.34770153815E+02  0.00000000000E+00 0. -1.
</event>
<event>
 7    1  0.2842702E-009  0.1335248E+03  0.7561462E-02  0.1222317E+00
         -1   -1    0    0    0  501 -0.00000000000E+00  0.00000000000E+00  0.12286900310E+03  0.12286900310E+03  0.00000000000E+00 0.  1.
          1   -1    0    0  501    0  0.00000000000E+00 -0.00000000000E+00 -0.18695085297E+03  0.18695085297E+03  0.00000000000E+00 0. -1.
         25    2    1    2    0    0 -0.84216931348E+02 -0.25447184288E+02  0.24664726875E+02  0.15491642553E+03  0.12510275549E+03 0.  0.
          5    1    3    3  502    0 -0.10095023393E+03 -0.55027583990E+02  0.44129816785E+01  0.11513440640E+03  0.41800000000E+01 0.  1.
         -5    1    3    3    0  502  0.16733302583E+02  0.29580399703E+02  0.20251745197E+02  0.39782019122E+02  0.41800000000E+01 0.  1.
        -11    1    1    2    0    0 -0.13910948547E+02  0.12644548418E+02  0.40624588610E+01  0.19232853823E+02  0.00000000000E+00 0.  1.
         11    1    1    2    0    0  0.98127879895E+02  0.12802635870E+02 -0.92809035610E+02  0.13567057672E+03  0.00000000000E+00 0. -1.
</event>
<event>
 7    1  0.2842702E-009  0.5346391E+02  0.7561462E-02  0.1427506E+00
         -2   -1    0    0    0  501 -0.00000000000E+00  0.00000000000E+00  0.98503524982E+02  0.98503524982E+02  0.00000000000E+00 0.  1.
          2   -1    0    0  501    0  0.00000000000E+00 -0.00000000000E+00 -0.15841256701E+03  0.15841256701E+03  0.00000000000E+00 0. -1.
         25    2    1    2    0    0 -0.22794656276E+02 -0.66457969677E+01 -0.97273634900E+02  0.16022595036E+03  0.12508569923E+03 0.  0.
          5    1    3    3  502    0 -0.23262238274E+02 -0.26206148878E+02  0.20468411257E+02  0.40796105548E+02  0.41800000000E+01 0. -1.
         -5    1    3    3    0  502  0.46758199802E+00  0.19560351910E+02 -0.11774204616E+03  0.11942984482E+03  0.41800000000E+01 0. -1.
        -11    1    1    2    0    0  0.19293920780E+02 -0.18209492444E+02  0.58269189241E+02  0.64024521934E+02  0.00000000000E+00 0.  1.
         11    1    1    2    0    0  0.35007354956E+01  0.24855289411E+02 -0.20904596372E+02  0.32665619697E+02  0.00000000000E+00 0. -1.
</event>
<event>
 7    1  0.2842702E-009  0.6950096E+02  0.7561462E-02  0.1361798E+00
          3   -1    0    0  501    0  0.00000000000E+00  0.00000000000E+00  0.41592173688E+03  0.41592173688E+03  0.00000000000E+00 0. -1.
         -3   -1    0    0    0  501 -0.00000000000E+00 -0.00000000000E+00 -0.53209972850E+02  0.53209972850E+02  0.00000000000E+00 0.  1.
         25    2    1    2    0    0 -0.23937081024E+01 -0.31624890840E+02  0.43809387743E+02  0.13628172194E+03  0.12509029427E+03 0.  0.
          5    1    3    3  502    0 -0.14340111524E+02  0.89857174549E-01  0.82981796180E+02  0.84315465783E+02  0.41800000000E+01 0. -1.
         -5    1    3    3    0  502  0.11946403422E+02 -0.31714748015E+02 -0.39172408437E+02  0.51966256158E+02  0.41800000000E+01 0. -1.
        -11    1    1    2    0    0  0.42775168786E+02  0.92943055070E+01  0.10038708075E+03  0.10951559323E+03  0.00000000000E+00 0. -1.
         11    1    1    2    0    0 -0.40381460684E+02  0.22330585333E+02  0.21851529555E+03  0.22333439456E+03  0.00000000000E+00 0.  1.
</event>
<event>
 7    1  0.2842702E-009  0.1165211E+03  0.7561462E-02  0.1248949E+00
          1   -1    0    0  501    0  0.00000000000E+00  0.00000000000E+00  0.74727676179E+03  0.74727676179E+03  0.00000000000E+00 0. -1.
         -1   -1    0    0    0  501 -0.00000000000E+00 -0.00000000000E+00 -0.21571300033E+02  0.21571300033E+02  0.00000000000E+00 0.  1.
         25    2    1    2    0    0 -0.39184466122E+02  0.50320071013E+02  0.35349585214E+03  0.38036085342E+03  0.12509008515E+03 0.  0.
          5    1    3    3  502    0 -0.73401553324E+02  0.49405494327E+02  0.32093211116E+03  0.33293179974E+03  0.41800000000E+01 0. -1.
         -5    1    3    3    0  502  0.34217087202E+02  0.91457668556E+00  0.32563740976E+02  0.47429053685E+02  0.41800000000E+01 0. -1.
        -11    1    1    2    0    0  0.39509004735E+02 -0.75280039598E+02  0.26049279148E+03  0.27401558392E+03  0.00000000000E+00 0. -1.
         11    1    1    2    0    0 -0.32453861301E+00  0.24959968585E+02  0.11171681814E+03  0.11447162449E+03  0.00000000000E+00 0.  1.
</event>
<event>
 7    1  0.3500947E-009  0.1095508E+03  0.7561462E-02  0.1261404E+00
          2   -1    0    0  501    0  0.00000000000E+00  0.00000000000E+00  0.24289714996E+03  0.24289714996E+03  0.00000000000E+00 0.  1.
         -2   -1    0    0    0  501 -0.00000000000E+00 -0.00000000000E+00 -0.57222790949E+02  0.57222790949E+02  0.00000000000E+00 0. -1.
         25    2    1    2    0    0  0.31142404960E+02 -0.33544691495E+02  0.96234727937E+02  0.16432904418E+03  0.12509123145E+03 0.  0.
          5    1    3    3  502    0  0.79054760343E+01 -0.77116500583E+02  0.33944096948E+02  0.84729719291E+02  0.41800000000E+01 0. -1.
         -5    1    3    3    0  502  0.23236928925E+02  0.43571809089E+02  0.62290630989E+02  0.79599324885E+02  0.41800000000E+01 0. -1.
        -11    1    1    2    0    0 -0.43571600592E+02 -0.11597726359E+02  0.14382918533E+02  0.47327159014E+02  0.00000000000E+00 0. -1.
         11    1    1    2    0    0  0.12429195632E+02  0.45142417854E+02  0.75056712542E+02  0.88463737720E+02  0.00000000000E+00 0.  1.
</event>
<event>
 7    1  0.2842702E-009  0.8138305E+02  0.7561462E-02  0.1325172E+00
         -2   -1    0    0    0  501 -0.00000000000E+00  0.00000000000E+00  0.21861330273E+03  0.21861330273E+03  0.00000000000E+00 0.  1.
          2   -1    0    0  501    0  0.00000000000E+00 -0.00000000000E+00 -0.65792987728E+02  0.65792987728E+02  0.00000000000E+00 0. -1.
         25    2    1    2    0    0 -0.20086781129E+02 -0.38210457808E+02  0.60145517094E+02  0.14535501575E+03  0.12508828689E+03 0.  0.
          5    1    3    3  502    0 -0.13431716205E+02  0.67241117820E+01  0.89671319270E+02  0.91016715932E+02  0.41800000000E+01 0. -1.
         -5    1    3    3    0  502 -0.66550649240E+01 -0.44934569590E+02 -0.29525802176E+02  0.54338299822E+02  0.41800000000E+01 0. -1.
        -11    1    1    2    0    0  0.14626657264E+02 -0.29869946735E+02  0.44122204714E+02  0.55253251212E+02  0.00000000000E+00 0.  1.
         11    1    1    2    0    0  0.54601238644E+01  0.68080404543E+02  0.48552593193E+02  0.83798023492E+02  0.00000000000E+00 0. -1.
</event>
<event>
 7    1  0.2842702E-009  0.1729515E+03  0.7561462E-02  0.1174804E+00
          2   -1    0    0  501    0  0.00000000000E+00  0.00000000000E+00  0.93340825327E+02  0.93340825327E+02  0.00000000000E+00 0. -1.
         -2   -1    0    0    0  501 -0.00000000000E+00 -0.00000000000E+00 -0.45703610839E+03  0.45703610839E+03  0.00000000000E+00 0.  1.
         25    2    1    2    0    0  0.59214319928E+02 -0.14413452815E+03 -0.29860588679E+03  0.35929582464E+03  0.12508763364E+03 0.  0.
          5    1    3    3  502    0 -0.13390050754E+02  0.11212930219E+02 -0.40071977593E+01  0.18399817857E+02  0.41800000000E+01 0.  1.
         -5    1    3    3    0  502  0.72604370682E+02 -0.15534745837E+03 -0.29459868903E+03  0.34089600678E+03  0.41800000000E+01 0.  1.
        -11    1    1    2    0    0 -0.56632663402E+02  0.12654691796E+03 -0.86377119249E+02  0.16334744485E+03  0.00000000000E+00 0.  1.
         11    1    1    2    0    0 -0.25816565261E+01  0.17587610193E+02  0.21287722968E+02  0.27733664235E+02  0.00000000000E+00 0. -1.
</event>
<event>
 7    1  0.2842702E-009  0.1454591E+03  0.7561462E-02  0.1206167E+00
         -1   -1    0    0    0  501 -0.00000000000E+00  0.00000000000E+00  0.45754880851E+02  0.45754880851E+02  0.00000000000E+00 0.  1.
          1   -1    0    0  501    0  0.00000000000E+00 -0.00000000000E+00 -0.77274809249E+03  0.77274809249E+03  0.00000000000E+00 0. -1.
         25    2    1    2    0    0  0.20011574823E+02  0.12886663113E+03 -0.52084570479E+03  0.55130371773E+03  0.12509384175E+03 0.  0.
          5    1    3    3  502    0 -0.19676657501E+02  0.76779231627E+02 -0.44037685742E+03  0.44747231223E+03  0.41800000000E+01 0. -1.
         -5    1    3    3    0  502  0.39688232325E+02  0.52087399505E+02 -0.80468847369E+02  0.10383140550E+03  0.41800000000E+01 0. -1.
        -11    1    1    2    0    0 -0.29760256194E+02 -0.18305620936E+02 -0.22023821041E+01  0.35008843076E+02  0.00000000000E+00 0.  1.
         11    1    1    2    0    0  0.97486813710E+01 -0.11056101020E+03 -0.20394512475E+03  0.23219041253E+03  0.00000000000E+00 0. -1.
</event>
<event>
 7    1  0.2842702E-009  0.1020182E+03  0.7561462E-02  0.1276108E+00
          2   -1    0    0  501    0  0.00000000000E+00  0.00000000000E+00  0.85154098722E+03  0.85154098722E+03  0.00000000000E+00 0. -1.
         -2   -1    0    0    0  501 -0.00000000000E+00 -0.00000000000E+00 -0.18460517344E+02  0.18460517344E+02  0.00000000000E+00 0.  1.
         25    2    1    2    0    0  0.11980960390E+02  0.36644498799E+02  0.63561347059E+03  0.64895160443E+03  0.12508932088E+03 0.  0.
          5    1    3    3  502    0 -0.41752879561E+02  0.40664808456E+01  0.46804041658E+03  0.46993525423E+03  0.41800000000E+01 0. -1.
         -5    1    3    3    0  502  0.53733839951E+02  0.32578017953E+02  0.16757305401E+03  0.17901635020E+03  0.41800000000E+01 0. -1.
        -11    1    1    2    0    0 -0.43928121510E+02 -0.47933713070E+02  0.13947205340E+03  0.15388233943E+03  0.00000000000E+00 0. -1.
         11    1    1    2    0    0  0.31947161119E+02  0.11289214271E+02  0.57994945886E+02  0.67167560703E+02  0.00000000000E+00 0.  1.
</event>
<event>
 7    1  0.2842702E-009  0.7199235E+02  0.7561462E-02  0.1353446E+00
          2   -1    0    0  501    0  0.00000000000E+00  0.00000000000E+00  0.75816346911E+03  0.75816346911E+03  0.00000000000E+00 0. -1.
         -2   -1    0    0    0  501 -0.00000000000E+00 -0.00000000000E+00 -0.22881012865E+02  0.22881012865E+02  0.00000000000E+00 0.  1.
         25    2    1    2    0    0  0.32757044438E+02  0.48864671665E+02  0.54654008635E+03  0.56375036513E+03  0.12509047967E+03 0.  0.
          5    1    3    3  502    0  0.15522157367E+01  0.31883956926E+02  0.24424108678E+02  0.40410463592E+02  0.41800000000E+01 0. -1.
         -5    1    3    3    0  502  0.31204828701E+02  0.16980714739E+02  0.52211597767E+03  0.52333990154E+03  0.41800000000E+01 0. -1.
        -11    1    1    2    0    0 -0.45495541075E+02 -0.38239530009E+02  0.19147155060E+03  0.20048306812E+03  0.00000000000E+00 0. -1.
         11    1    1    2    0    0  0.12738496638E+02 -0.10625141656E+02 -0.27291807047E+01  0.16811048722E+02  0.00000000000E+00 0.  1.
</event>
<event>
 7    1  0.2842702E-009  0.9719100E+02  0.7561462E-02  0.1286316E+00
         -1   -1    0    0    0  501 -0.00000000000E+00  0.00000000000E+00  0.16331459072E+03  0.16331459072E+03  0.00000000000E+00 0.  1.
          1   -1    0    0  501    0  0.00000000000E+00 -0.00000000000E+00 -0.11988566871E+03  0.11988566871E+03  0.00000000000E+00 0. -1.
         25    2    1    2    0    0  0.76015217138E+02 -0.19934645308E+02  0.66717013031E+02  0.16207506465E+03  0.12506583639E+03 0.  0.
          5    1    3    3  502    0  0.47679315104E+02 -0.91796162869E+01 -0.32281681723E+02  0.58456495095E+02  0.41800000000E+01 0.  1.
         -5    1    3    3    0  502  0.28335902033E+02 -0.10755029021E+02  0.98998694753E+02  0.10361856955E+03  0.41800000000E+01 0.  1.
        -11    1    1    2    0    0 -0.68158051797E+02 -0.22592876322E+02  0.41920172395E+00  0.71806224071E+02  0.00000000000E+00 0.  1.
         11    1    1    2    0    0 -0.78571653407E+01  0.42527521630E+02 -0.23707292741E+02  0.49318970714E+02  0.00000000000E+00 0. -1.
</event>
<event>
 7    1  0.2842702E-009  0.8210896E+02  0.7561462E-02  0.1323171E+00
         -1   -1    0    0    0  501 -0.00000000000E+00  0.00000000000E+00  0.20937372600E+02  0.20937372600E+02  0.00000000000E+00 0.  1.
          1   -1    0    0  501    0  0.00000000000E+00 -0.00000000000E+00 -0.10498094048E+04  0.10498094048E+04  0.00000000000E+00 0. -1.
         25    2    1    2    0    0 -0.55273792152E+02 -0.99416401670E+01 -0.85688092972E+03  0.86778259487E+03  0.12509067082E+03 0.  0.
          5    1    3    3  502    0 -0.16702923327E+02 -0.36544104180E+02 -0.81368206442E+02  0.90844463879E+02  0.41800000000E+01 0.  1.
         -5    1    3    3    0  502 -0.38570868825E+02  0.26602464013E+02 -0.77551272328E+03  0.77693813099E+03  0.41800000000E+01 0.  1.
        -11    1    1    2    0    0 -0.94789166756E+01 -0.44114052563E+01  0.66618031195E+01  0.12397176230E+02  0.00000000000E+00 0.  1.
         11    1    1    2    0    0  0.64752708828E+02  0.14353045423E+02 -0.17865290562E+03  0.19056700633E+03  0.00000000000E+00 0. -1.
</event>
<event>
 7    1  0.2842702E-009  0.7873636E+02  0.7561462E-02  0.1332676E+00
         -2   -1    0    0    0  501 -0.00000000000E+00  0.00000000000E+00  0.15204880109E+03  0.15204880109E+03  0.00000000000E+00 0.  1.
          2   -1    0    0  501    0  0.00000000000E+00 -0.00000000000E+00 -0.10139213268E+03  0.10139213268E+03  0.00000000000E+00 0. -1.
         25    2    1    2    0    0 -0.25380593512E+02 -0.34770312825E+02  0.79011439338E+02  0.15409093715E+03  0.12509220673E+03 0.  0.
          5    1    3    3  502    0 -0.12071357722E+02 -0.64466657835E+02 -0.29706134004E+01  0.65787267717E+02  0.41800000000E+01 0.  1.
         -5    1    3    3    0  502 -0.13309235790E+02  0.29696345011E+02  0.81982052738E+02  0.88303669434E+02  0.41800000000E+01 0.  1.
        -11    1    1    2    0    0 -0.37647166214E+01  0.28985462320E+02  0.24879879057E+02  0.38384091745E+02  0.00000000000E+00 0.  1.
         11    1    1    2    0    0  0.29145310134E+02  0.57848505043E+01 -0.53234649982E+02  0.60965904872E+02  0.00000000000E+00 0. -1.
</event>
<event>
 7    1  0.2842702E-009  0.2089023E+03  0.7561462E-02  0.1142438E+00
         -2   -1    0    0    0  501 -0.00000000000E+00  0.00000000000E+00  0.65928296419E+02  0.65928296419E+02  0.00000000000E+00 0.  1.
          2   -1    0    0  501    0  0.00000000000E+00 -0.00000000000E+00 -0.93160859932E+03  0.93160859932E+03  0.00000000000E+00 0. -1.
         25    2    1    2    0    0 -0.19973568502E+03 -0.95219992630E+01 -0.25025641738E+03  0.34389844978E+03  0.12511137829E+03 0.  0.
          5    1    3    3  502    0  0.66327216416E+01  0.58748609749E+01 -0.66184941883E+02  0.66906097778E+02  0.41800000000E+01 0. -1.
         -5    1    3    3    0  502 -0.20636840666E+03 -0.15396860238E+02 -0.18407147550E+03  0.27699235200E+03  0.41800000000E+01 0. -1.
        -11    1    1    2    0    0  0.90828477198E+02 -0.59482212584E+01 -0.41646146774E+03  0.42629256118E+03  0.00000000000E+00 0. -1.
         11    1    1    2    0    0  0.10890720782E+03  0.15470220521E+02 -0.19896241777E+03  0.22734588478E+03  0.00000000000E+00 0.  1.
</event>
<event>
 7    1  0.2842702E-009  0.1725779E+03  0.7561462E-02  0.1175186E+00
         -1   -1    0    0    0  501 -0.00000000000E+00  0.00000000000E+00  0.10735880009E+03  0.10735880009E+03  0.00000000000E+00 0.  1.
          1   -1    0    0  501    0  0.00000000000E+00 -0.00000000000E+00 -0.42911819756E+03  0.42911819756E+03  0.00000000000E+00 0. -1.
         25    2    1    2    0    0  0.14711423451E+03 -0.87226962072E+02 -0.25587446680E+03  0.33222010006E+03  0.12508921303E+03 0.  0.
          5    1    3    3  502    0  0.94092509856E+02 -0.54980921410E+02 -0.24620101394E+03  0.26927442099E+03  0.41800000000E+01 0. -1.
         -5    1    3    3    0  502  0.53021724655E+02 -0.32246040662E+02 -0.96734528523E+01  0.62945679072E+02  0.41800000000E+01 0. -1.
        -11    1    1    2    0    0 -0.12030363452E+02 -0.17322963517E+01  0.18258702543E+02  0.21934236116E+02  0.00000000000E+00 0.  1.
         11    1    1    2    0    0 -0.13508387106E+03  0.88959258423E+02 -0.84143633219E+02  0.18232266148E+03  0.00000000000E+00 0. -1.
</event>
<event>
 7    1  0.2842702E-009  0.7432684E+02  0.7561462E-02  0.1345968E+00
         -1   -1    0    0    0  501 -0.00000000000E+00  0.00000000000E+00  0.13040073767E+03  0.13040073767E+03  0.00000000000E+00 0.  1.
          1   -1    0    0  501    0  0.00000000000E+00 -0.00000000000E+00 -0.10556005968E+03  0.10556005968E+03  0.00000000000E+00 0. -1.
         25    2    1    2    0    0  0.47486694691E+01  0.23639125549E+02 -0.23048166440E+02  0.12946163158E+03  0.12509091877E+03 0.  0.
          5    1    3    3  502    0 -0.33503593974E+02  0.48776613880E+02 -0.48765341718E+02  0.76793097500E+02  0.41800000000E+01 0. -1.
         -5    1    3    3    0  502  0.38252263443E+02 -0.25137488332E+02  0.25717175279E+02  0.52668534083E+02  0.41800000000E+01 0. -1.
        -11    1    1    2    0    0 -0.20491846147E+02 -0.15135568739E+02  0.72057263674E+02  0.76428073689E+02  0.00000000000E+00 0.  1.
         11    1    1    2    0    0  0.15743176678E+02 -0.85035568092E+01 -0.24168419239E+02  0.30071092079E+02  0.00000000000E+00 0. -1.
</event>
<event>
 7    1  0.2842702E-009  0.3118246E+03  0.7561462E-02  0.1079475E+00
         -2   -1    0    0    0  501 -0.00000000000E+00  0.00000000000E+00  0.11466370572E+03  0.11466370572E+03  0.00000000000E+00 0.  1.
          2   -1    0    0  501    0  0.00000000000E+00 -0.00000000000E+00 -0.10044847069E+04  0.10044847069E+04  0.00000000000E+00 0. -1.
         25    2    1    2    0    0 -0.24700845149E+03 -0.17026549384E+03 -0.64133107211E+03  0.71899614521E+03  0.12508556779E+03 0.  0.
          5    1    3    3  502    0 -0.25996613186E+03 -0.15836611098E+03 -0.62212308895E+03  0.69261592895E+03  0.41800000000E+01 0.  1.
         -5    1    3    3    0  502  0.12957680369E+02 -0.11899382869E+02 -0.19207983155E+02  0.26380216263E+02  0.41800000000E+01 0.  1.
        -11    1    1    2    0    0  0.70079513077E+02  0.62958792586E+02 -0.29161905837E+02  0.98617262531E+02  0.00000000000E+00 0.  1.
         11    1    1    2    0    0  0.17692893841E+03  0.10730670126E+03 -0.21932802320E+03  0.30153500484E+03  0.00000000000E+00 0. -1.
</event>
<event>
 7    1  0.2842702E-009  0.1147636E+03  0.7561462E-02  0.1251994E+00
          2   -1    0    0  501    0  0.00000000000E+00  0.00000000000E+00  0.99083928246E+02  0.99083928246E+02  0.00000000000E+00 0.  1.
         -2   -1    0    0    0  501 -0.00000000000E+00 -0.00000000000E+00 -0.26282575011E+03  0.26282575011E+03  0.00000000000E+00 0. -1.
         25    2    1    2    0    0 -0.67850242274E+02 -0.18132510126E+02  0.19920168731E+02  0.14483507912E+03  0.12509174122E+03 0.  0.
          5    1    3    3  502    0 -0.39098336768E+02  0.47793544185E+02 -0.16579651297E+02  0.64072303228E+02  0.41800000000E+01 0.  1.
         -5    1    3    3    0  502 -0.28751905506E+02 -0.65926054311E+02  0.36499820027E+02  0.80762775889E+02  0.41800000000E+01 0.  1.
        -11    1    1    2    0    0  0.11488433043E+01 -0.19146333734E+02 -0.11531616204E+01  0.19215403148E+02  0.00000000000E+00 0.  1.
         11    1    1    2    0    0  0.66701398970E+02  0.37278843861E+02 -0.18250882897E+03  0.19785919609E+03  0.00000000000E+00 0. -1.
</event>
<event>
 7    1  0.2842702E-009  0.1294483E+03  0.7561462E-02  0.1228277E+00
         -2   -1    0    0    0  501 -0.00000000000E+00  0.00000000000E+00  0.29565650506E+02  0.29565650506E+02  0.00000000000E+00 0.  1.
          2   -1    0    0  501    0  0.00000000000E+00 -0.00000000000E+00 -0.84999592828E+03  0.84999592828E+03  0.00000000000E+00 0. -1.
         25    2    1    2    0    0 -0.10543961286E+03 -0.40781888963E+02 -0.48377155425E+03  0.51231239996E+03  0.12509358109E+03 0.  0.
          5    1    3    3  502    0 -0.62833964487E+02 -0.30538021369E+02 -0.45354925821E+03  0.45891729087E+03  0.41800000000E+01 0. -1.
         -5    1    3    3    0  502 -0.42605648376E+02 -0.10243867594E+02 -0.30222296036E+02  0.53395109088E+02  0.41800000000E+01 0. -1.
        -11    1    1    2    0    0 -0.86495767432E+01  0.28921285844E+02 -0.48841242010E+02  0.57417095658E+02  0.00000000000E+00 0.  1.
         11    1    1    2    0    0  0.11408918961E+03  0.11860603119E+02 -0.28781748152E+03  0.30983208317E+03  0.00000000000E+00 0. -1.
</event>
<event>
 7    1  0.2842702E-009  0.9228547E+02  0.7561462E-02  0.1297410E+00
          3   -1    0    0  501    0  0.00000000000E+00  0.00000000000E+00  0.34256125773E+03  0.34256125773E+03  0.00000000000E+00 0. -1.
         -3   -1    0    0    0  501 -0.00000000000E+00 -0.00000000000E+00 -0.43622925201E+02  0.43622925201E+02  0.00000000000E+00 0.  1.
         25    2    1    2    0    0 -0.23357370539E+02 -0.32251515819E+02  0.23000309991E+03  0.26482967236E+03  0.12509037677E+03 0.  0.
          5    1    3    3  502    0 -0.10894663570E+02 -0.59787342315E+02  0.41113673712E+02  0.73491676818E+02  0.41800000000E+01 0.  1.
         -5    1    3    3    0  502 -0.12462706969E+02  0.27535826496E+02  0.18888942620E+03  0.19133799554E+03  0.41800000000E+01 0.  1.
        -11    1    1    2    0    0  0.48128538821E+02 -0.50210077653E+01  0.57522145274E+02  0.75168902912E+02  0.00000000000E+00 0. -1.
         11    1    1    2    0    0 -0.24771168282E+02  0.37272523585E+02  0.11413087339E+02  0.46185607661E+02  0.00000000000E+00 0.  1.
</event>
<event>
 7    1  0.2842702E-009  0.2274877E+03  0.7561462E-02  0.1128421E+00
          2   -1    0    0  501    0  0.00000000000E+00  0.00000000000E+00  0.32964764974E+03  0.32964764974E+03  0.00000000000E+00 0. -1.
         -2   -1    0    0    0  501 -0.00000000000E+00 -0.00000000000E+00 -0.20938262910E+03  0.20938262910E+03  0.00000000000E+00 0.  1.
         25    2    1    2    0    0  0.12129538537E+02  0.21807867105E+03 -0.36135152894E+02  0.25428035161E+03  0.12508923003E+03 0.  0.
          5    1    3    3  502    0  0.28614037656E+02  0.18997866499E+03 -0.72399224745E+02  0.20535280969E+03  0.41800000000E+01 0. -1.
         -5    1    3    3    0  502 -0.16484499119E+02  0.28100006061E+02  0.36264071851E+02  0.48927541927E+02  0.41800000000E+01 0. -1.
        -11    1    1    2    0    0 -0.41407695368E+02 -0.98446194194E+02  0.10950046069E+03  0.15295947593E+03  0.00000000000E+00 0. -1.
         11    1    1    2    0    0  0.29278156831E+02 -0.11963247686E+03  0.46899712844E+02  0.13179045129E+03  0.00000000000E+00 0.  1.
</event>
<event>
 7    1  0.2842702E-009  0.2728790E+03  0.7561462E-02  0.1099643E+00
          1   -1    0    0  501    0  0.00000000000E+00  0.00000000000E+00  0.28298773140E+03  0.28298773140E+03  0.00000000000E+00 0. -1.
         -1   -1    0    0    0  501 -0.00000000000E+00 -0.00000000000E+00 -0.29776798344E+03  0.29776798344E+03  0.00000000000E+00 0.  1.
         25    2    1    2    0    0  0.95063719079E+02 -0.24466983342E+03  0.52818423561E+02  0.29553410591E+03  0.12510069471E+03 0.  0.
          5    1    3    3  502    0  0.39808473755E+02 -0.19301833375E+03  0.83137032270E+02  0.21393931448E+03  0.41800000000E+01 0. -1.
         -5    1    3    3    0  502  0.55255245324E+02 -0.51651499674E+02 -0.30318608709E+02  0.81594791430E+02  0.41800000000E+01 0. -1.
        -11    1    1    2    0    0 -0.64378985230E+00  0.10075035337E+03 -0.49169496336E+02  0.11211015805E+03  0.00000000000E+00 0. -1.
         11    1    1    2    0    0 -0.94419929227E+02  0.14391948005E+03 -0.18429179263E+02  0.17311145087E+03  0.00000000000E+00 0.  1.
</event>
<event>
 7    1  0.2842702E-009  0.3990026E+03  0.7561462E-02  0.1044126E+00
         -2   -1    0    0    0  501 -0.00000000000E+00  0.00000000000E+00  0.60159979204E+03  0.60159979204E+03  0.00000000000E+00 0.  1.
          2   -1    0    0  501    0  0.00000000000E+00 -0.00000000000E+00 -0.34294290192E+03  0.34294290192E+03  0.00000000000E+00 0. -1.
         25    2    1    2    0    0 -0.23525544462E+03 -0.30965297105E+03 -0.85800454590E+02  0.41741866949E+03  0.12508613403E+03 0.  0.
          5    1    3    3  502    0 -0.49229849378E+02 -0.14156501736E+02  0.15745570427E+02  0.53752953400E+02  0.41800000000E+01 0. -1.
         -5    1    3    3    0  502 -0.18602559524E+03 -0.29549646931E+03 -0.10154602502E+03  0.36366571609E+03  0.41800000000E+01 0. -1.
        -11    1    1    2    0    0  0.15141710279E+03  0.13163094629E+03  0.19746884311E+03  0.28150983826E+03  0.00000000000E+00 0.  1.
         11    1    1    2    0    0  0.83838341828E+02  0.17802202476E+03  0.14698850160E+03  0.24561418621E+03  0.00000000000E+00 0. -1.
</event>
<event>
 7    1  0.2842702E-009  0.1440400E+03  0.7561462E-02  0.1207994E+00
         -2   -1    0    0    0  501 -0.00000000000E+00  0.00000000000E+00  0.14908943191E+02  0.14908943191E+02  0.00000000000E+00 0.  1.
          2   -1    0    0  501    0  0.00000000000E+00 -0.00000000000E+00 -0.21090734568E+04  0.21090734568E+04  0.00000000000E+00 0. -1.
         25    2    1    2    0    0 -0.88656765511E+02 -0.74927370540E+02 -0.15714265592E+04  0.15806655371E+04  0.12509187188E+03 0.  0.
          5    1    3    3  502    0 -0.19841936642E+02  0.35259201817E+02 -0.37246650304E+03  0.37468077353E+03  0.41800000000E+01 0. -1.
         -5    1    3    3    0  502 -0.68814828869E+02 -0.11018657236E+03 -0.11989600561E+04  0.12059847636E+04  0.41800000000E+01 0. -1.
        -11    1    1    2    0    0  0.62450293862E+02  0.62753718060E+02 -0.49635365723E+03  0.50418748633E+03  0.00000000000E+00 0. -1.
         11    1    1    2    0    0  0.26206471649E+02  0.12173652479E+02 -0.26384297262E+02  0.39129376598E+02  0.00000000000E+00 0.  1.
</event>
<event>
 7    1  0.2842702E-009  0.1291897E+03  0.7561462E-02  0.1228663E+00
         -2   -1    0    0    0  501 -0.00000000000E+00  0.00000000000E+00  0.36206682715E+02  0.36206682715E+02  0.00000000000E+00 0.  1.
          2   -1    0    0  501    0  0.00000000000E+00 -0.00000000000E+00 -0.10484299242E+04  0.10484299242E+04  0.00000000000E+00 0. -1.
         25    2    1    2    0    0  0.55924867239E+02  0.10619606313E+03 -0.83348030463E+03  0.85131864668E+03  0.12509526523E+03 0.  0.
          5    1    3    3  502    0  0.71646948776E+01  0.32986201051E+02 -0.61242423746E+03  0.61336803091E+03  0.41800000000E+01 0. -1.
         -5    1    3    3    0  502  0.48760172361E+02  0.73209862078E+02 -0.22105606717E+03  0.23795061577E+03  0.41800000000E+01 0. -1.
        -11    1    1    2    0    0  0.81411047823E+01 -0.51285530058E+02 -0.11927894659E+03  0.13009208385E+03  0.00000000000E+00 0. -1.
         11    1    1    2    0    0 -0.64065972021E+02 -0.54910533071E+02 -0.59463990220E+02  0.10322587634E+03  0.00000000000E+00 0.  1.
</event>
<event>
 7    1  0.2842702E-009  0.1158768E+03  0.7561462E-02  0.1250058E+00
         -2   -1    0    0    0  501 -0.00000000000E+00  0.00000000000E+00  0.34754667787E+02  0.34754667787E+02  0.00000000000E+00 0.  1.
          2   -1    0    0  501    0  0.00000000000E+00 -0.00000000000E+00 -0.39914022056E+03  0.39914022056E+03  0.00000000000E+00 0. -1.
         25    2    1    2    0    0 -0.19510763399E+02 -0.41854174688E+02 -0.19301366504E+03  0.23459326051E+03  0.12508909287E+03 0.  0.
          5    1    3    3  502    0  0.55622131099E+01  0.42014469236E+02 -0.88398618045E+02  0.98122076579E+02  0.41800000000E+01 0.  1.
         -5    1    3    3    0  502 -0.25072976509E+02 -0.83868643924E+02 -0.10461504700E+03  0.13647118393E+03  0.41800000000E+01 0.  1.
        -11    1    1    2    0    0 -0.29346029342E+02  0.43700097584E+02 -0.95349012361E+02  0.10891428798E+03  0.00000000000E+00 0.  1.
         11    1    1    2    0    0  0.48856792741E+02 -0.18459228964E+01 -0.76022875376E+02  0.90387339869E+02  0.00000000000E+00 0. -1.
</event>
<event>
 7    1  0.2842702E-009  0.1248821E+03  0.7561462E-02  0.1235254E+00
         -1   -1    0    0    0  501 -0.00000000000E+00  0.00000000000E+00  0.15124539625E+02  0.15124539625E+02  0.00000000000E+00 0.  1.
          1   -1    0    0  501    0  0.00000000000E+00 -0.00000000000E+00 -0.12271396860E+04  0.12271396860E+04  0.00000000000E+00 0. -1.
         25    2    1    2    0    0  0.30241130554E+02 -0.77471368713E+02 -0.67118001076E+03  0.68778309381E+03  0.12508652344E+03 0.  0.
          5    1    3    3  502    0 -0.37236552059E+02 -0.14298932695E+02 -0.80906376635E+02  0.90301353620E+02  0.41800000000E+01 0.  1.
         -5    1    3    3    0  502  0.67477682612E+02 -0.63172436019E+02 -0.59027363412E+03  0.59748174019E+03  0.41800000000E+01 0.  1.
        -11    1    1    2    0    0  0.19760679022E+02  0.61565748823E+02 -0.37529339147E+03  0.38082273507E+03  0.00000000000E+00 0. -1.
         11    1    1    2    0    0 -0.50001809576E+02  0.15905619891E+02 -0.16554174417E+03  0.17365839677E+03  0.00000000000E+00 0.  1.
</event>
<event>
 7    1  0.2842702E-009  0.1275111E+03  0.7561462E-02  0.1231196E+00
         -1   -1    0    0    0  501 -0.00000000000E+00  0.00000000000E+00  0.11528697793E+03  0.11528697793E+03  0.00000000000E+00 0.  1.
          1   -1    0    0  501    0  0.00000000000E+00 -0.00000000000E+00 -0.16681987479E+03  0.16681987479E+03  0.00000000000E+00 0. -1.
         25    2    1    2    0    0 -0.43069932268E+02  0.69218584037E+02 -0.54246778453E+01  0.14940739120E+03  0.12508760919E+03 0.  0.
          5    1    3    3  502    0 -0.30319014456E+02 -0.32236113697E+02  0.10918940710E+02  0.45772320568E+02  0.41800000000E+01 0. -1.
         -5    1    3    3    0  502 -0.12750917812E+02  0.10145469773E+03 -0.16343618555E+02  0.10363507063E+03  0.41800000000E+01 0. -1.
        -11    1    1    2    0    0  0.23154791866E+02 -0.81574039698E+02 -0.44648354326E+01  0.84914092437E+02  0.00000000000E+00 0.  1.
         11    1    1    2    0    0  0.19915140402E+02  0.12355455661E+02 -0.41643383589E+02  0.47785369084E+02  0.00000000000E+00 0. -1.
</event>
<event>
 7    1  0.2842702E-009  0.1290165E+03  0.7561462E-02  0.1228922E+00
          2   -1    0    0  501    0  0.00000000000E+00  0.00000000000E+00  0.11363722269E+04  0.11363722269E+04  0.00000000000E+00 0. -1.
         -2   -1    0    0    0  501 -0.00000000000E+00 -0.00000000000E+00 -0.26358005264E+02  0.26358005264E+02  0.00000000000E+00 0.  1.
         25    2    1    2    0    0 -0.11268716426E+03 -0.17287640359E+01  0.83343125900E+03  0.85026826314E+03  0.12508824973E+03 0.  0.
          5    1    3    3  502    0 -0.35347864125E+02 -0.13342141894E+01  0.65230280411E+03  0.65327457648E+03  0.41800000000E+01 0.  1.
         -5    1    3    3    0  502 -0.77339300139E+02 -0.39454984650E+00  0.18112845489E+03  0.19699368667E+03  0.41800000000E+01 0.  1.
        -11    1    1    2    0    0  0.11178946478E+03 -0.27980307074E+02  0.20985519746E+03  0.23941383820E+03  0.00000000000E+00 0.  1.
         11    1    1    2    0    0  0.89769948255E+00  0.29709071110E+02  0.66727765168E+02  0.73048130810E+02  0.00000000000E+00 0. -1.
</event>
<event>
 7    1  0.2842702E-009  0.8936104E+02  0.7561462E-02  0.1304406E+00
         -2   -1    0    0    0  501 -0.00000000000E+00  0.00000000000E+00  0.98871664774E+02  0.98871664774E+02  0.00000000000E+00 0.  1.
          2   -1    0    0  501    0  0.00000000000E+00 -0.00000000000E+00 -0.12003171848E+03  0.12003171848E+03  0.00000000000E+00 0. -1.
         25    2    1    2    0    0 -0.91666985053E+00  0.13825455460E+02 -0.18358250776E+02  0.12718730159E+03  0.12509037058E+03 0.  0.
          5    1    3    3  502    0 -0.13871542461E+01  0.51326539510E+02  0.34675346567E+02  0.62098227950E+02  0.41800000000E+01 0.  1.
         -5    1    3    3    0  502  0.47048439561E+00 -0.37501084050E+02 -0.53033597343E+02  0.65089073643E+02  0.41800000000E+01 0.  1.
        -11    1    1    2    0    0 -0.16554228297E+02 -0.48171452426E+02 -0.11486002361E+02  0.52215510660E+02  0.00000000000E+00 0.  1.
         11    1    1    2    0    0  0.17470898147E+02  0.34345996966E+02  0.86841994308E+01  0.39500571001E+02  0.00000000000E+00 0. -1.
</event>
<event>
 7    1  0.2842702E-009  0.8132109E+02  0.7561462E-02  0.1325344E+00
          2   -1    0    0  501    0  0.00000000000E+00  0.00000000000E+00  0.77522963773E+02  0.77522963773E+02  0.00000000000E+00 0. -1.
         -2   -1    0    0    0  501 -0.00000000000E+00 -0.00000000000E+00 -0.19268721193E+03  0.19268721193E+03  0.00000000000E+00 0.  1.
         25    2    1    2    0    0  0.55860301794E+02  0.53445666928E+01 -0.58589418353E+02  0.14909752441E+03  0.12509362146E+03 0.  0.
          5    1    3    3  502    0  0.31949840308E+02  0.24965068115E+02  0.32930638631E+02  0.52401777473E+02  0.41800000000E+01 0. -1.
         -5    1    3    3    0  502  0.23910461486E+02 -0.19620501422E+02 -0.91520056983E+02  0.96695746932E+02  0.41800000000E+01 0. -1.
        -11    1    1    2    0    0 -0.20451387931E+02 -0.37580132795E+02 -0.59331562718E+02  0.73148889149E+02  0.00000000000E+00 0.  1.
         11    1    1    2    0    0 -0.35408913863E+02  0.32235566102E+02  0.27567329151E+01  0.47963762147E+02  0.00000000000E+00 0. -1.
</event>
<event>
 7    1  0.2842702E-009  0.1852125E+03  0.7561462E-02  0.1162852E+00
          4   -1    0    0  501    0  0.00000000000E+00  0.00000000000E+00  0.21181196126E+03  0.21181196126E+03  0.00000000000E+00 0. -1.
         -4   -1    0    0    0  501 -0.00000000000E+00 -0.00000000000E+00 -0.16848319088E+03  0.16848319088E+03  0.00000000000E+00 0.  1.
         25    2    1    2    0    0  0.11884323913E+02 -0.15235709102E+03  0.26466337850E+01  0.19750736176E+03  0.12509289724E+03 0.  0.
          5    1    3    3  502    0 -0.51539212324E+02 -0.50034690071E+02  0.22578702717E+02  0.75412405040E+02  0.41800000000E+01 0. -1.
         -5    1    3    3    0  502  0.63423536237E+02 -0.10232240095E+03 -0.19932068932E+02  0.12209495672E+03  0.41800000000E+01 0. -1.
        -11    1    1    2    0    0 -0.41349942605E+02  0.14014689575E+03  0.36587399815E+02  0.15063070062E+03  0.00000000000E+00 0.  1.
         11    1    1    2    0    0  0.29465618692E+02  0.12210195266E+02  0.40947367787E+01  0.32157089772E+02  0.00000000000E+00 0. -1.
</event>
<event>
 7    1  0.2842702E-009  0.7241056E+02  0.7561462E-02  0.1352083E+00
          2   -1    0    0  501    0  0.00000000000E+00  0.00000000000E+00  0.55772774682E+03  0.55772774682E+03  0.00000000000E+00 0. -1.
         -2   -1    0    0    0  501 -0.00000000000E+00 -0.00000000000E+00 -0.26167265844E+02  0.26167265844E+02  0.00000000000E+00 0.  1.
         25    2    1    2    0    0  0.49388189151E+02 -0.13631259062E+02  0.27045376135E+03  0.30234893314E+03  0.12507851890E+03 0.  0.
          5    1    3    3  502    0 -0.60226895502E+01 -0.18423744019E+02 -0.56899125523E+01  0.20628975688E+02  0.41800000000E+01 0. -1.
         -5    1    3    3    0  502  0.55410878701E+02  0.47924849564E+01  0.27614367390E+03  0.28171995745E+03  0.41800000000E+01 0. -1.
        -11    1    1    2    0    0  0.83889389504E+01  0.72529867832E+01 -0.26980100745E+01  0.11413122813E+02  0.00000000000E+00 0.  1.
         11    1    1    2    0    0 -0.57777128101E+02  0.63782722792E+01  0.26380472970E+03  0.27013295671E+03  0.00000000000E+00 0. -1.
</event>
<event>
 7    1  0.2842702E-009  0.1105210E+03  0.7561462E-02  0.1259608E+00
         -1   -1    0    0    0  501 -0.00000000000E+00  0.00000000000E+00  0.54070132364E+02  0.54070132364E+02  0.00000000000E+00 0.  1.
          1   -1    0    0  501    0  0.00000000000E+00 -0.00000000000E+00 -0.25092989956E+03  0.25092989956E+03  0.00000000000E+00 0. -1.
         25    2    1    2    0    0  0.29216654583E+02 -0.16733034436E+01 -0.75570644785E+02  0.14904367530E+03  0.12508669771E+03 0.  0.
          5    1    3    3  502    0  0.77224149364E+02 -0.21757642985E+01 -0.61518975735E+02  0.98845131245E+02  0.41800000000E+01 0.  1.
         -5    1    3    3    0  502 -0.48007494781E+02  0.50246085484E+00 -0.14051669050E+02  0.50198544054E+02  0.41800000000E+01 0.  1.
        -11    1    1    2    0    0  0.29603797826E+02  0.17733510955E+02 -0.27670800488E+02  0.44232741902E+02  0.00000000000E+00 0.  1.
         11    1    1    2    0    0 -0.58820452409E+02 -0.16060207511E+02 -0.93618321924E+02  0.11172361472E+03  0.00000000000E+00 0. -1.
</event>
<event>
 7    1  0.2842702E-009  0.8007926E+02  0.7561462E-02  0.1328827E+00
          1   -1    0    0  501    0  0.00000000000E+00  0.00000000000E+00  0.34116131859E+02  0.34116131859E+02  0.00000000000E+00 0. -1.
         -1   -1    0    0    0  501 -0.00000000000E+00 -0.00000000000E+00 -0.33922655017E+03  0.33922655017E+03  0.00000000000E+00 0.  1.
         25    2    1    2    0    0  0.12063910845E+02 -0.34030624564E+01 -0.16264372173E+03  0.20556556367E+03  0.12508837664E+03 0.  0.
          5    1    3    3  502    0  0.56563089177E+01  0.36624358383E+02  0.61387155953E+00  0.37298615199E+02  0.41800000000E+01 0. -1.
         -5    1    3    3    0  502  0.64076019269E+01 -0.40027420839E+02 -0.16325759329E+03  0.16826694847E+03  0.41800000000E+01 0. -1.
        -11    1    1    2    0    0 -0.36198695474E+02 -0.25633571060E+02 -0.10759898085E+03  0.11638284324E+03  0.00000000000E+00 0.  1.
         11    1    1    2    0    0  0.24134784629E+02  0.29036633517E+02 -0.34867715733E+02  0.51394275124E+02  0.00000000000E+00 0. -1.
</event>
<event>
 7    1  0.2842702E-009  0.9211796E+02  0.7561462E-02  0.1297802E+00
         -3   -1    0    0    0  501 -0.00000000000E+00  0.00000000000E+00  0.34416427585E+03  0.34416427585E+03  0.00000000000E+00 0.  1.
          3   -1    0    0  501    0  0.00000000000E+00 -0.00000000000E+00 -0.44166019915E+02  0.44166019915E+02  0.00000000000E+00 0. -1.
         25    2    1    2    0    0  0.30915331408E+02  0.25569355096E+02  0.24761264838E+03  0.28030130707E+03  0.12508896624E+03 0.  0.
          5    1    3    3  502    0  0.56945232052E+02  0.69355955476E+01  0.39679817273E+02  0.69877193975E+02  0.41800000000E+01 0. -1.
         -5    1    3    3    0  502 -0.26029900644E+02  0.18633759548E+02  0.20793283110E+03  0.21042411310E+03  0.41800000000E+01 0. -1.
        -11    1    1    2    0    0 -0.59748025994E+02 -0.70416569974E+01  0.34944660000E+02  0.69573995185E+02  0.00000000000E+00 0. -1.
         11    1    1    2    0    0  0.28832694587E+02 -0.18527698099E+02  0.17440947562E+02  0.38454993509E+02  0.00000000000E+00 0.  1.
</event>
<event>
 7    1  0.2842702E-009  0.1348148E+03  0.7561462E-02  0.1220481E+00
         -1   -1    0    0    0  501 -0.00000000000E+00  0.00000000000E+00  0.52906492616E+02  0.52906492616E+02  0.00000000000E+00 0.  1.
          1   -1    0    0  501    0  0.00000000000E+00 -0.00000000000E+00 -0.46445988772E+03  0.46445988772E+03  0.00000000000E+00 0. -1.
         25    2    1    2    0    0 -0.28067140292E+02 -0.79293875713E+02 -0.34870344701E+03  0.37989030402E+03  0.12508903247E+03 0.  0.
          5    1    3    3  502    0  0.44751768132E+02 -0.72074482158E+01 -0.14249877712E+03  0.14959292076E+03  0.41800000000E+01 0.  1.
         -5    1    3    3    0  502 -0.72818908425E+02 -0.72086427497E+02 -0.20620466989E+03  0.23029738326E+03  0.41800000000E+01 0.  1.
        -11    1    1    2    0    0  0.59764176040E+02  0.58628784168E+02 -0.36294391937E+02  0.91248966881E+02  0.00000000000E+00 0.  1.
         11    1    1    2    0    0 -0.31697035747E+02  0.20665091544E+02 -0.26555556161E+02  0.46227109435E+02  0.00000000000E+00 0. -1.
</event>
<event>
 7    1  0.2842702E-009  0.2013672E+03  0.7561462E-02  0.1148591E+00
          2   -1    0    0  501    0  0.00000000000E+00  0.00000000000E+00  0.54183706533E+03  0.54183706533E+03  0.00000000000E+00 0.  1.
         -2   -1    0    0    0  501 -0.00000000000E+00 -0.00000000000E+00 -0.11227251327E+03  0.11227251327E+03  0.00000000000E+00 0. -1.
         25    2    1    2    0    0  0.10446421111E+03  0.15331755006E+03  0.62907826244E+02  0.23242989539E+03  0.12508884487E+03 0.  0.
          5    1    3    3  502    0  0.41930288008E+02  0.48015227429E+01 -0.24581391666E+02  0.49019596993E+02  0.41800000000E+01 0. -1.
         -5    1    3    3    0  502  0.62533923101E+02  0.14851602731E+03  0.87489217909E+02  0.18341029840E+03  0.41800000000E+01 0. -1.
        -11    1    1    2    0    0 -0.34671293965E+02 -0.11370620147E+03  0.27655491919E+03  0.30102129859E+03  0.00000000000E+00 0.  1.
         11    1    1    2    0    0 -0.69792917144E+02 -0.39611348586E+02  0.90101806626E+02  0.12065838461E+03  0.00000000000E+00 0. -1.
</event>
<event>
 7    1  0.2842702E-009  0.2872550E+03  0.7561462E-02  0.1091791E+00
          1   -1    0    0  501    0  0.00000000000E+00  0.00000000000E+00  0.13201135212E+04  0.13201135212E+04  0.00000000000E+00 0. -1.
         -1   -1    0    0    0  501 -0.00000000000E+00 -0.00000000000E+00 -0.84275155043E+02  0.84275155043E+02  0.00000000000E+00 0.  1.
         25    2    1    2    0    0  0.13239889292E+03 -0.24385499307E+03  0.31442255428E+03  0.43761152552E+03  0.12509028795E+03 0.  0.
          5    1    3    3  502    0  0.84863263782E+02 -0.60040289074E+02  0.16884819003E+03  0.19832749060E+03  0.41800000000E+01 0. -1.
         -5    1    3    3    0  502  0.47535629143E+02 -0.18381470399E+03  0.14557436425E+03  0.23928403492E+03  0.41800000000E+01 0. -1.
        -11    1    1    2    0    0 -0.13397952358E+02  0.60576879252E+02  0.10832149140E+03  0.12483032054E+03  0.00000000000E+00 0.  1.
         11    1    1    2    0    0 -0.11900094057E+03  0.18327811381E+03  0.81309432051E+03  0.84194683021E+03  0.00000000000E+00 0. -1.
</event>
<event>
 7    1  0.2842702E-009  0.1193034E+03  0.7561462E-02  0.1244251E+00
         -1   -1    0    0    0  501 -0.00000000000E+00  0.00000000000E+00  0.48957920425E+02  0.48957920425E+02  0.00000000000E+00 0.  1.
          1   -1    0    0  501    0  0.00000000000E+00 -0.00000000000E+00 -0.37534663406E+03  0.37534663406E+03  0.00000000000E+00 0. -1.
         25    2    1    2    0    0  0.79530929338E+02 -0.14772155615E+02 -0.18785044727E+03  0.23974852593E+03  0.12509268501E+03 0.  0.
          5    1    3    3  502    0  0.73407400826E+02  0.32355810526E+02 -0.51819540216E+02  0.95594362381E+02  0.41800000000E+01 0. -1.
         -5    1    3    3    0  502  0.61235285120E+01 -0.47127966141E+02 -0.13603090705E+03  0.14415416355E+03  0.41800000000E+01 0. -1.
        -11    1    1    2    0    0 -0.31972192799E+02  0.44267301785E+02 -0.10747196073E+03  0.12054890072E+03  0.00000000000E+00 0. -1.
         11    1    1    2    0    0 -0.47558736540E+02 -0.29495146170E+02 -0.31066305629E+02  0.64007127840E+02  0.00000000000E+00 0.  1.
</event>
<event>
 7    1  0.2842702E-009  0.8947216E+02  0.7561462E-02  0.1304135E+00
         -2   -1    0    0    0  501 -0.00000000000E+00  0.00000000000E+00  0.82608924239E+02  0.82608924239E+02  0.00000000000E+00 0.  1.
          2   -1    0    0  501    0  0.00000000000E+00 -0.00000000000E+00 -0.16283864456E+03  0.16283864456E+03  0.00000000000E+00 0. -1.
         25    2    1    2    0    0  0.18083599699E+02  0.36129342902E+02 -0.59797923276E+02  0.14441015345E+03  0.12508459056E+03 0.  0.
          5    1    3    3  502    0  0.53955181796E+02  0.43002382767E+02 -0.77297206736E+02  0.10369521269E+03  0.41800000000E+01 0.  1.
         -5    1    3    3    0  502 -0.35871582098E+02 -0.68730398648E+01  0.17499283460E+02  0.40714940756E+02  0.41800000000E+01 0.  1.
        -11    1    1    2    0    0 -0.26557675849E+02  0.83040581929E+01 -0.42428027904E+02  0.50738595574E+02  0.00000000000E+00 0. -1.
         11    1    1    2    0    0  0.84740761501E+01 -0.44433401095E+02  0.21996230854E+02  0.50298819780E+02  0.00000000000E+00 0.  1.
</event>
<event>
 7    1  0.2842702E-009  0.1562181E+03  0.7561462E-02  0.1193034E+00
          2   -1    0    0  501    0  0.00000000000E+00  0.00000000000E+00  0.71314097268E+03  0.71314097268E+03  0.00000000000E+00 0. -1.
         -2   -1    0    0    0  501 -0.00000000000E+00 -0.00000000000E+00 -0.42940080970E+02  0.42940080970E+02  0.00000000000E+00 0.  1.
         25    2    1    2    0    0 -0.75264133569E+02  0.82948633669E+02  0.52132275311E+03  0.54769610764E+03  0.12509375599E+03 0.  0.
          5    1    3    3  502    0  0.31604504366E+02  0.95792743105E+00  0.75767200362E+02  0.82206467944E+02  0.41800000000E+01 0. -1.
         -5    1    3    3    0  502 -0.10686863793E+03  0.81990706238E+02  0.44555555274E+03  0.46548963970E+03  0.41800000000E+01 0. -1.
        -11    1    1    2    0    0  0.83463640967E+02 -0.24820139015E+02  0.86962353732E+02  0.12306368120E+03  0.00000000000E+00 0. -1.
         11    1    1    2    0    0 -0.81995073987E+01 -0.58128494653E+02  0.61915784871E+02  0.85321264808E+02  0.00000000000E+00 0.  1.
</event>
<event>
 7    1  0.2842702E-009  0.8252966E+02  0.7561462E-02  0.1322022E+00
          3   -1    0    0  501    0  0.00000000000E+00  0.00000000000E+00  0.37729726470E+02  0.37729726470E+02  0.00000000000E+00 0. -1.
         -3   -1    0    0    0  501 -0.00000000000E+00 -0.00000000000E+00 -0.36872942964E+03  0.36872942964E+03  0.00000000000E+00 0.  1.
         25    2    1    2    0    0  0.21305421331E+02  0.13673781146E+02 -0.11937274233E+03  0.17475877592E+03  0.12509949992E+03 0.  0.
          5    1    3    3  502    0  0.99272839374E+00 -0.45808113032E+02 -0.97958037955E+02  0.10822485079E+03  0.41800000000E+01 0. -1.
         -5    1    3    3    0  502  0.20312692937E+02  0.59481894177E+02 -0.21414704378E+02  0.66533925128E+02  0.41800000000E+01 0. -1.
        -11    1    1    2    0    0 -0.34260087211E+02  0.36178951044E+01 -0.20668472026E+03  0.20953619336E+03  0.00000000000E+00 0.  1.
         11    1    1    2    0    0  0.12954665880E+02 -0.17291676250E+02 -0.49422405734E+01  0.22164186822E+02  0.00000000000E+00 0. -1.
</event>
<event>
 7    1  0.2842702E-009  0.1547700E+03  0.7561462E-02  0.1194731E+00
         -2   -1    0    0    0  501 -0.00000000000E+00  0.00000000000E+00  0.26471932002E+02  0.26471932002E+02  0.00000000000E+00 0. -1.
          2   -1    0    0  501    0  0.00000000000E+00 -0.00000000000E+00 -0.10080377445E+04  0.10080377445E+04  0.00000000000E+00 0.  1.
         25    2    1    2    0    0 -0.79648181511E+02 -0.93742841200E+02 -0.53874316372E+03  0.56658876200E+03  0.12508827153E+03 0.  0.
          5    1    3    3  502    0 -0.87635479264E+02 -0.14678450675E+02 -0.36180005216E+03  0.37257507201E+03  0.41800000000E+01 0.  1.
         -5    1    3    3    0  502  0.79872977527E+01 -0.79064390525E+02 -0.17694311156E+03  0.19401368999E+03  0.41800000000E+01 0.  1.
        -11    1    1    2    0    0  0.80841110059E+02  0.45529071687E+02 -0.36291415082E+03  0.37458625483E+03  0.00000000000E+00 0.  1.
         11    1    1    2    0    0 -0.11929285472E+01  0.48213769513E+02 -0.79908497921E+02  0.93334659635E+02  0.00000000000E+00 0. -1.
</event>
<event>
 7    1  0.2842702E-009  0.1085437E+03  0.7561462E-02  0.1263291E+00
         -1   -1    0    0    0  501 -0.00000000000E+00  0.00000000000E+00  0.53183908046E+03  0.53183908046E+03  0.00000000000E+00 0.  1.
          1   -1    0    0  501    0  0.00000000000E+00 -0.00000000000E+00 -0.26611508253E+02  0.26611508253E+02  0.00000000000E+00 0. -1.
         25    2    1    2    0    0  0.50017159716E+00 -0.46623559535E+02  0.24841577751E+03  0.28201821406E+03  0.12509943273E+03 0.  0.
          5    1    3    3  502    0  0.53627020834E+02 -0.22803035015E+01  0.56866681539E+02  0.78309316284E+02  0.41800000000E+01 0. -1.
         -5    1    3    3    0  502 -0.53126849237E+02 -0.44343256034E+02  0.19154909598E+03  0.20370889778E+03  0.41800000000E+01 0. -1.
        -11    1    1    2    0    0 -0.11441331963E+02  0.68507063443E+02  0.22942772294E+03  0.23971066283E+03  0.00000000000E+00 0.  1.
         11    1    1    2    0    0  0.10941160366E+02 -0.21883503908E+02  0.27384071749E+02  0.36721711820E+02  0.00000000000E+00 0. -1.
</event>
<event>
 7    1  0.2842702E-009  0.1084281E+03  0.7561462E-02  0.1263509E+00
          2   -1    0    0  501    0  0.00000000000E+00  0.00000000000E+00  0.17850258391E+03  0.17850258391E+03  0.00000000000E+00 0.  1.
         -2   -1    0    0    0  501 -0.00000000000E+00 -0.00000000000E+00 -0.74397055445E+02  0.74397055445E+02  0.00000000000E+00 0. -1.
         25    2    1    2    0    0  0.93478656752E+01  0.14980890887E+02  0.97854439871E+02  0.15979578919E+03  0.12508954055E+03 0.  0.
          5    1    3    3  502    0  0.60892501462E+02 -0.18146687605E+02  0.38634668663E+02  0.74480259317E+02  0.41800000000E+01 0. -1.
         -5    1    3    3    0  502 -0.51544635786E+02  0.33127578492E+02  0.59219771209E+02  0.85315529871E+02  0.41800000000E+01 0. -1.
        -11    1    1    2    0    0  0.18418376035E+02  0.32156564504E+02  0.96413215694E+01  0.38291465081E+02  0.00000000000E+00 0.  1.
         11    1    1    2    0    0 -0.27766241710E+02 -0.47137455391E+02 -0.33902329728E+01  0.54812385088E+02  0.00000000000E+00 0. -1.
</event>
<event>
 7    1  0.2842702E-009  0.1432252E+03  0.7561462E-02  0.1209054E+00
         -2   -1    0    0    0  501 -0.00000000000E+00  0.00000000000E+00  0.52682077414E+02  0.52682077414E+02  0.00000000000E+00 0.  1.
          2   -1    0    0  501    0  0.00000000000E+00 -0.00000000000E+00 -0.56102838810E+03  0.56102838810E+03  0.00000000000E+00 0. -1.
         25    2    1    2    0    0 -0.89743836529E+02 -0.45778535806E+01 -0.42190693929E+03  0.44914525460E+03  0.12510428197E+03 0.  0.
          5    1    3    3  502    0 -0.13332782340E+02  0.50345841491E+02 -0.22332397300E+03  0.22935460788E+03  0.41800000000E+01 0.  1.
         -5    1    3    3    0  502 -0.76411054189E+02 -0.54923695072E+02 -0.19858296630E+03  0.21979064672E+03  0.41800000000E+01 0.  1.
        -11    1    1    2    0    0  0.10120788455E+03 -0.28379950519E+02 -0.66338976286E+02  0.12429528254E+03  0.00000000000E+00 0.  1.
         11    1    1    2    0    0 -0.11464048019E+02  0.32957804100E+02 -0.20100395108E+02  0.40269928378E+02  0.00000000000E+00 0. -1.
</event>
<event>
 7    1  0.2842702E-009  0.1748295E+03  0.7561462E-02  0.1172903E+00
         -1   -1    0    0    0  501 -0.00000000000E+00  0.00000000000E+00  0.79165175061E+02  0.79165175061E+02  0.00000000000E+00 0.  1.
          1   -1    0    0  501    0  0.00000000000E+00 -0.00000000000E+00 -0.56369151075E+03  0.56369151075E+03  0.00000000000E+00 0. -1.
         25    2    1    2    0    0  0.16999251664E+03 -0.10694276089E+02 -0.33773472105E+03  0.39840175189E+03  0.12508953134E+03 0.  0.
          5    1    3    3  502    0  0.41116076467E+02  0.10880437079E+02 -0.21457677875E+03  0.21879118363E+03  0.41800000000E+01 0.  1.
         -5    1    3    3    0  502  0.12887644017E+03 -0.21574713167E+02 -0.12315794230E+03  0.17961056826E+03  0.41800000000E+01 0.  1.
        -11    1    1    2    0    0 -0.62330313717E+02  0.25819802137E+02 -0.11118495665E+03  0.13005316135E+03  0.00000000000E+00 0. -1.
         11    1    1    2    0    0 -0.10766220292E+03 -0.15125526049E+02 -0.35606657986E+02  0.11440177258E+03  0.00000000000E+00 0.  1.
</event>
<event>
 7    1  0.2842702E-009  0.1554435E+03  0.7561462E-02  0.1193939E+00
          2   -1    0    0  501    0  0.00000000000E+00  0.00000000000E+00  0.25988953299E+03  0.25988953299E+03  0.00000000000E+00 0. -1.
         -2   -1    0    0    0  501 -0.00000000000E+00 -0.00000000000E+00 -0.12709402012E+03  0.12709402012E+03  0.00000000000E+00 0.  1.
         25    2    1    2    0    0  0.99986515305E+02  0.10323241071E+03  0.55835286456E+02  0.19854252052E+03  0.12508924566E+03 0.  0.
          5    1    3    3  502    0  0.57535060411E+02  0.89360471711E+02 -0.22087060753E+02  0.10863189096E+03  0.41800000000E+01 0. -1.
         -5    1    3    3    0  502  0.42451454894E+02  0.13871938997E+02  0.77922347208E+02  0.89910629564E+02  0.41800000000E+01 0. -1.
        -11    1    1    2    0    0 -0.63653746916E+02 -0.16684972295E+02 -0.19219080620E+01  0.65832222563E+02  0.00000000000E+00 0. -1.
         11    1    1    2    0    0 -0.36332768389E+02 -0.86547438413E+02  0.78882134479E+02  0.12260881002E+03  0.00000000000E+00 0.  1.
</event>
<event>
 7    1  0.2842702E-009  0.7930013E+02  0.7561462E-02  0.1331049E+00
          3   -1    0    0  501    0  0.00000000000E+00  0.00000000000E+00  0.72968935693E+02  0.72968935693E+02  0.00000000000E+00 0. -1.
         -3   -1    0    0    0  501 -0.00000000000E+00 -0.00000000000E+00 -0.18562934433E+03  0.18562934433E+03  0.00000000000E+00 0.  1.
         25    2    1    2    0    0  0.75171666947E+01  0.41943341723E+02 -0.59503630176E+02  0.14490757485E+03  0.12506706815E+03 0.  0.
          5    1    3    3  502    0  0.95789848787E+01 -0.18749771226E+02  0.29863982942E+02  0.36778264634E+02  0.41800000000E+01 0. -1.
         -5    1    3    3    0  502 -0.20618181839E+01  0.60693112949E+02 -0.89367613117E+02  0.10812931022E+03  0.41800000000E+01 0. -1.
        -11    1    1    2    0    0  0.23578279504E+02  0.57684044531E+00  0.14696767742E+02  0.27789620208E+02  0.00000000000E+00 0. -1.
         11    1    1    2    0    0 -0.31095446199E+02 -0.42520182168E+02 -0.67853546207E+02  0.85901084969E+02  0.00000000000E+00 0.  1.
</event>
<event>
 7    1  0.2842702E-009  0.2162071E+03  0.7561462E-02  0.1136743E+00
          2   -1    0    0  501    0  0.00000000000E+00  0.00000000000E+00  0.11859799971E+04  0.11859799971E+04  0.00000000000E+00 0. -1.
         -2   -1    0    0    0  501 -0.00000000000E+00 -0.00000000000E+00 -0.65601545918E+02  0.65601545918E+02  0.00000000000E+00 0.  1.
         25    2    1    2    0    0  0.19116420041E+03 -0.34806663607E+02  0.95231056272E+03  0.97994805029E+03  0.12509003976E+03 0.  0.
          5    1    3    3  502    0  0.11150042361E+03  0.38122162865E+02  0.59817132755E+03  0.60968192796E+03  0.41800000000E+01 0. -1.
         -5    1    3    3    0  502  0.79663776802E+02 -0.72928826471E+02  0.35413923517E+03  0.37026612233E+03  0.41800000000E+01 0. -1.
        -11    1    1    2    0    0 -0.68926880374E+02  0.47221998561E+02  0.35198753927E+02  0.90663025894E+02  0.00000000000E+00 0.  1.
         11    1    1    2    0    0 -0.12223732004E+03 -0.12415334954E+02  0.13286913451E+03  0.18097046681E+03  0.00000000000E+00 0. -1.
</event>
<event>
 7    1  0.2842702E-009  0.8914470E+02  0.7561462E-02  0.1304936E+00
          1   -1    0    0  501    0  0.00000000000E+00  0.00000000000E+00  0.29876683166E+03  0.29876683166E+03  0.00000000000E+00 0. -1.
         -1   -1    0    0    0  501 -0.00000000000E+00 -0.00000000000E+00 -0.41710402898E+02  0.41710402898E+02  0.00000000000E+00 0.  1.
         25    2    1    2    0    0 -0.40398129111E+02  0.79898430058E+01  0.12658574794E+03  0.18266793194E+03  0.12509106823E+03 0.  0.
          5    1    3    3  502    0 -0.74995005404E+02  0.32462658652E+02  0.52513327907E+02  0.97227552937E+02  0.41800000000E+01 0. -1.
         -5    1    3    3    0  502  0.34596876293E+02 -0.24472815647E+02  0.74072420035E+02  0.85440379006E+02  0.41800000000E+01 0. -1.
        -11    1    1    2    0    0  0.12393000188E+02 -0.19903063889E+02  0.12463497876E+03  0.12682111944E+03  0.00000000000E+00 0. -1.
         11    1    1    2    0    0  0.28005128922E+02  0.11913220883E+02  0.58357020586E+01  0.30988183172E+02  0.00000000000E+00 0.  1.
</event>
<event>
 7    1  0.2842702E-009  0.2082309E+03  0.7561462E-02  0.1142975E+00
         -3   -1    0    0    0  501 -0.00000000000E+00  0.00000000000E+00  0.23388919703E+03  0.23388919703E+03  0.00000000000E+00 0.  1.
          3   -1    0    0  501    0  0.00000000000E+00 -0.00000000000E+00 -0.20117154264E+03  0.20117154264E+03  0.00000000000E+00 0. -1.
         25    2    1    2    0    0  0.67946770193E+02 -0.17366001100E+03  0.41565542164E+02  0.22838970955E+03  0.12513833198E+03 0.  0.
          5    1    3    3  502    0  0.58797085662E+02 -0.25741762122E+02 -0.20722408906E+02  0.67576817255E+02  0.41800000000E+01 0.  1.
         -5    1    3    3    0  502  0.91496845315E+01 -0.14791824888E+03  0.62287951071E+02  0.16081289229E+03  0.41800000000E+01 0.  1.
        -11    1    1    2    0    0 -0.85489504920E+02  0.11935913940E+03 -0.21047040042E+02  0.14831735402E+03  0.00000000000E+00 0.  1.
         11    1    1    2    0    0  0.17542734727E+02  0.54300871602E+02  0.12199152261E+02  0.58353676100E+02  0.00000000000E+00 0. -1.
</event>
<event>
 7    1  0.2842702E-009  0.1089053E+03  0.7561462E-02  0.1262611E+00
          2   -1    0    0  501    0  0.00000000000E+00  0.00000000000E+00  0.15146006022E+03  0.15146006022E+03  0.00000000000E+00 0. -1.
         -2   -1    0    0    0  501 -0.00000000000E+00 -0.00000000000E+00 -0.87907474325E+02  0.87907474325E+02  0.00000000000E+00 0.  1.
         25    2    1    2    0    0 -0.19236589781E+02  0.31732580124E+02  0.40781507990E+02  0.13669416832E+03  0.12508061893E+03 0.  0.
          5    1    3    3  502    0 -0.14229472012E+02 -0.46007463835E+02  0.32487068444E+02  0.58241279333E+02  0.41800000000E+01 0.  1.
         -5    1    3    3    0  502 -0.50071177694E+01  0.77740043959E+02  0.82944395465E+01  0.78452888988E+02  0.41800000000E+01 0.  1.
        -11    1    1    2    0    0 -0.15311087974E+02  0.22464894497E+02 -0.11864866402E+02  0.29662703088E+02  0.00000000000E+00 0.  1.
         11    1    1    2    0    0  0.34547677756E+02 -0.54197474621E+02  0.34635944305E+02  0.73010663136E+02  0.00000000000E+00 0. -1.
</event>
<event>
 7    1  0.2842702E-009  0.2386296E+03  0.7561462E-02  0.1120709E+00
         -2   -1    0    0    0  501 -0.00000000000E+00  0.00000000000E+00  0.39680027483E+03  0.39680027483E+03  0.00000000000E+00 0.  1.
          2   -1    0    0  501    0  0.00000000000E+00 -0.00000000000E+00 -0.15748123783E+03  0.15748123783E+03  0.00000000000E+00 0. -1.
         25    2    1    2    0    0  0.26866773573E+02  0.22280654165E+03  0.10718382633E+03  0.27839010917E+03  0.12509237281E+03 0.  0.
          5    1    3    3  502    0 -0.23043936077E+02  0.42793045129E+02  0.73973372619E+02  0.88610382901E+02  0.41800000000E+01 0.  1.
         -5    1    3    3    0  502  0.49910709650E+02  0.18001349652E+03  0.33210453707E+02  0.18977972627E+03  0.41800000000E+01 0.  1.
        -11    1    1    2    0    0  0.10177260713E+02 -0.19510220966E+03  0.99225228064E+02  0.21912118732E+03  0.00000000000E+00 0.  1.
         11    1    1    2    0    0 -0.37044034286E+02 -0.27704331995E+02  0.32909982613E+02  0.56770216162E+02  0.00000000000E+00 0. -1.
</event>
<event>
 7    1  0.2842702E-009  0.6247476E+02  0.7561462E-02  0.1387730E+00
          2   -1    0    0  501    0  0.00000000000E+00  0.00000000000E+00  0.19676010928E+03  0.19676010928E+03  0.00000000000E+00 0.  1.
         -2   -1    0    0    0  501 -0.00000000000E+00 -0.00000000000E+00 -0.58626798331E+02  0.58626798331E+02  0.00000000000E+00 0. -1.
         25    2    1    2    0    0  0.70826276885E+01  0.13185922335E+02  0.33033717024E+02  0.13026861594E+03  0.12511855848E+03 0.  0.
          5    1    3    3  502    0 -0.40110711887E+02  0.18646506661E+02 -0.28222523714E+02  0.52635963594E+02  0.41800000000E+01 0. -1.
         -5    1    3    3    0  502  0.47193339576E+02 -0.54605843253E+01  0.61256240737E+02  0.77632652349E+02  0.41800000000E+01 0. -1.
        -11    1    1    2    0    0 -0.69165593049E+01  0.86027385028E+01 -0.55420391817E+01  0.12351522200E+02  0.00000000000E+00 0. -1.
         11    1    1    2    0    0 -0.16606838364E+00 -0.21788660838E+02  0.11064163311E+03  0.11276676947E+03  0.00000000000E+00 0.  1.
</event>
<event>
 7    1  0.2842702E-009  0.1052472E+03  0.7561462E-02  0.1269633E+00
          3   -1    0    0  501    0  0.00000000000E+00  0.00000000000E+00  0.44096194112E+03  0.44096194112E+03  0.00000000000E+00 0. -1.
         -3   -1    0    0    0  501 -0.00000000000E+00 -0.00000000000E+00 -0.42346400902E+02  0.42346400902E+02  0.00000000000E+00 0.  1.
         25    2    1    2    0    0  0.73139849413E+02  0.35535053347E+02  0.16142485973E+03  0.21981282677E+03  0.12509003111E+03 0.  0.
          5    1    3    3  502    0  0.35925530149E+02 -0.12993922943E+02  0.15322235201E+03  0.15796850099E+03  0.41800000000E+01 0.  1.
         -5    1    3    3    0  502  0.37214319263E+02  0.48528976290E+02  0.82025077221E+01  0.61844325778E+02  0.41800000000E+01 0.  1.
        -11    1    1    2    0    0 -0.71733356176E+02  0.33913670276E+01  0.11834590008E+03  0.13843022728E+03  0.00000000000E+00 0.  1.
         11    1    1    2    0    0 -0.14064932366E+01 -0.38926420375E+02  0.11884478041E+03  0.12506528798E+03  0.00000000000E+00 0. -1.
</event>
<event>
 7    1  0.2842702E-009  0.2427639E+03  0.7561462E-02  0.1117965E+00
         -1   -1    0    0    0  501 -0.00000000000E+00  0.00000000000E+00  0.54953857975E+03  0.54953857975E+03  0.00000000000E+00 0.  1.
          1   -1    0    0  501    0  0.00000000000E+00 -0.00000000000E+00 -0.11463284149E+03  0.11463284149E+03  0.00000000000E+00 0. -1.
         25    2    1    2    0    0  0.21001114135E+03  0.55629316204E+02  0.17264897165E+03  0.30438928768E+03  0.12508345505E+03 0.  0.
          5    1    3    3  502    0  0.19441233287E+03  0.10194382975E+02  0.16567640774E+03  0.25566819336E+03  0.41800000000E+01 0. -1.
         -5    1    3    3    0  502  0.15598808481E+02  0.45434933229E+02  0.69725639112E+01  0.48721094313E+02  0.41800000000E+01 0. -1.
        -11    1    1    2    0    0 -0.17712921731E+03  0.96344546674E+00  0.21744161616E+03  0.28045774065E+03  0.00000000000E+00 0.  1.
         11    1    1    2    0    0 -0.32881924040E+02 -0.56592761671E+02  0.44815150454E+02  0.79324392921E+02  0.00000000000E+00 0. -1.
</event>
<event>
 7    1  0.2842702E-009  0.1255671E+03  0.7561462E-02  0.1234186E+00
          2   -1    0    0  501    0  0.00000000000E+00  0.00000000000E+00  0.59151361910E+03  0.59151361910E+03  0.00000000000E+00 0.  1.
         -2   -1    0    0    0  501 -0.00000000000E+00 -0.00000000000E+00 -0.30265912950E+02  0.30265912950E+02  0.00000000000E+00 0. -1.
         25    2    1    2    0    0 -0.19831310950E+02 -0.74959087951E+02  0.32812465861E+03  0.35961808787E+03  0.12508889552E+03 0.  0.
          5    1    3    3  502    0  0.34295152524E+02 -0.83926734601E+02  0.22742574349E+03  0.24486689338E+03  0.41800000000E+01 0.  1.
         -5    1    3    3    0  502 -0.54126463474E+02  0.89676466497E+01  0.10069891511E+03  0.11475119450E+03  0.41800000000E+01 0.  1.
        -11    1    1    2    0    0  0.36606395407E+02  0.79880808150E+02  0.22736793643E+03  0.24375633369E+03  0.00000000000E+00 0.  1.
         11    1    1    2    0    0 -0.16775084458E+02 -0.49217201991E+01  0.57551111183E+01  0.18405110493E+02  0.00000000000E+00 0. -1.
</event>
<event>
 7    1  0.2842702E-009  0.9007857E+02  0.7561462E-02  0.1302662E+00
         -2   -1    0    0    0  501 -0.00000000000E+00  0.00000000000E+00  0.16727548111E+03  0.16727548111E+03  0.00000000000E+00 0. -1.
          2   -1    0    0  501    0  0.00000000000E+00 -0.00000000000E+00 -0.71688432384E+02  0.71688432384E+02  0.00000000000E+00 0.  1.
         25    2    1    2    0    0 -0.64099213250E+01 -0.16956998147E+02  0.50875421460E+02  0.13624464958E+03  0.12508264928E+03 0.  0.
          5    1    3    3  502    0 -0.39515150716E+02 -0.59562789184E+02  0.35883552644E+02  0.80089167444E+02  0.41800000000E+01 0.  1.
         -5    1    3    3    0  502  0.33105229391E+02  0.42605791037E+02  0.14991868816E+02  0.56155482132E+02  0.41800000000E+01 0.  1.
        -11    1    1    2    0    0 -0.15465040323E+02 -0.10973055947E+02 -0.20844541460E+02  0.28179253675E+02  0.00000000000E+00 0.  1.
         11    1    1    2    0    0  0.21874961648E+02  0.27930054094E+02  0.65556168721E+02  0.74540010237E+02  0.00000000000E+00 0. -1.
</event>
<event>
 7    1  0.2842702E-009  0.7709050E+02  0.7561462E-02  0.1337517E+00
          1   -1    0    0  501    0  0.00000000000E+00  0.00000000000E+00  0.16802257900E+03  0.16802257900E+03  0.00000000000E+00 0. -1.
         -1   -1    0    0    0  501 -0.00000000000E+00 -0.00000000000E+00 -0.11071682751E+03  0.11071682751E+03  0.00000000000E+00 0.  1.
         25    2    1    2    0    0 -0.82364616594E+01  0.40988193884E+02  0.10144402250E+03  0.16639337582E+03  0.12509194409E+03 0.  0.
          5    1    3    3  502    0 -0.35322492505E+00 -0.15078384582E+02  0.10810473765E+03  0.10923181383E+03  0.41800000000E+01 0.  1.
         -5    1    3    3    0  502 -0.78832367343E+01  0.56066578467E+02 -0.66607151509E+01  0.57161561986E+02  0.41800000000E+01 0.  1.
        -11    1    1    2    0    0  0.11957599583E+02 -0.60614060519E+02  0.22672130384E+01  0.61823852803E+02  0.00000000000E+00 0. -1.
         11    1    1    2    0    0 -0.37211379233E+01  0.19625866635E+02 -0.46405484051E+02  0.50522177889E+02  0.00000000000E+00 0.  1.
</event>
<event>
 7    1  0.2842702E-009  0.1924316E+03  0.7561462E-02  0.1156286E+00
          1   -1    0    0  501    0  0.00000000000E+00  0.00000000000E+00  0.42977278223E+03  0.42977278223E+03  0.00000000000E+00 0. -1.
         -1   -1    0    0    0  501 -0.00000000000E+00 -0.00000000000E+00 -0.10324309029E+03  0.10324309029E+03  0.00000000000E+00 0.  1.
         25    2    1    2    0    0 -0.13355893625E+03  0.10987086645E+03  0.21687590601E+03  0.30427776929E+03  0.12506080735E+03 0.  0.
          5    1    3    3  502    0 -0.13594175298E+03  0.12331854988E+03  0.15348067931E+03  0.23929357758E+03  0.41800000000E+01 0. -1.
         -5    1    3    3    0  502  0.23828167362E+01 -0.13447683430E+02  0.63395226693E+02  0.64984191713E+02  0.41800000000E+01 0. -1.
        -11    1    1    2    0    0  0.11876910468E+03 -0.12017799151E+03  0.65801100242E+02  0.18132466645E+03  0.00000000000E+00 0.  1.
         11    1    1    2    0    0  0.14789831566E+02  0.10307125055E+02  0.43852685697E+02  0.47413436782E+02  0.00000000000E+00 0. -1.
</event>
<event>
 7    1  0.2842702E-009  0.2026541E+03  0.7561462E-02  0.1147519E+00
          2   -1    0    0  501    0  0.00000000000E+00  0.00000000000E+00  0.85497271919E+03  0.85497271919E+03  0.00000000000E+00 0. -1.
         -2   -1    0    0    0  501 -0.00000000000E+00 -0.00000000000E+00 -0.54599223114E+02  0.54599223114E+02  0.00000000000E+00 0.  1.
         25    2    1    2    0    0 -0.17653620945E+02 -0.18285845286E+03  0.46119259329E+03  0.51196217384E+03  0.12513111214E+03 0.  0.
          5    1    3    3  502    0 -0.26374572384E+02  0.39169471451E+01  0.11872129738E+03  0.12175048006E+03  0.41800000000E+01 0. -1.
         -5    1    3    3    0  502  0.87209514393E+01 -0.18677540001E+03  0.34247129591E+03  0.39021169378E+03  0.41800000000E+01 0. -1.
        -11    1    1    2    0    0 -0.19250737261E+02  0.60186095412E+02  0.47545355337E+02  0.79079186770E+02  0.00000000000E+00 0.  1.
         11    1    1    2    0    0  0.36904358206E+02  0.12267235745E+03  0.29163554745E+03  0.31853058170E+03  0.00000000000E+00 0. -1.
</event>
<event>
 7    1  0.2842702E-009  0.2415891E+03  0.7561462E-02  0.1118739E+00
         -1   -1    0    0    0  501 -0.00000000000E+00  0.00000000000E+00  0.13228036750E+03  0.13228036750E+03  0.00000000000E+00 0.  1.
          1   -1    0    0  501    0  0.00000000000E+00 -0.00000000000E+00 -0.46417349451E+03  0.46417349451E+03  0.00000000000E+00 0. -1.
         25    2    1    2    0    0 -0.13977161875E+03  0.16801398353E+03 -0.12256411766E+03  0.28007945920E+03  0.12513087732E+03 0.  0.
          5    1    3    3  502    0 -0.13188099363E+03  0.65012601214E+02 -0.86154880255E+02  0.17046809259E+03  0.41800000000E+01 0.  1.
         -5    1    3    3    0  502 -0.78906251222E+01  0.10300138231E+03 -0.36409237408E+02  0.10961136662E+03  0.41800000000E+01 0.  1.
        -11    1    1    2    0    0  0.46437986770E+02 -0.11799551368E+03 -0.14434691705E+03  0.19213396452E+03  0.00000000000E+00 0. -1.
         11    1    1    2    0    0  0.93333631984E+02 -0.50018469850E+02 -0.64982092304E+02  0.12424043829E+03  0.00000000000E+00 0.  1.
</event>
<event>
 7    1  0.2842702E-009  0.8841547E+02  0.7561462E-02  0.1306735E+00
         -3   -1    0    0    0  501 -0.00000000000E+00  0.00000000000E+00  0.25888556613E+03  0.25888556613E+03  0.00000000000E+00 0.  1.
          3   -1    0    0  501    0  0.00000000000E+00 -0.00000000000E+00 -0.49346114270E+02  0.49346114270E+02  0.00000000000E+00 0. -1.
         25    2    1    2    0    0  0.14744596794E+02  0.14850253283E+02  0.16413474861E+03  0.20742715785E+03  0.12509147435E+03 0.  0.
          5    1    3    3  502    0  0.24332791855E+02 -0.52837763435E+02  0.73793552048E+02  0.94057826512E+02  0.41800000000E+01 0.  1.
         -5    1    3    3    0  502 -0.95881950610E+01  0.67688016719E+02  0.90341196561E+02  0.11336933134E+03  0.41800000000E+01 0.  1.
        -11    1    1    2    0    0  0.69479886247E+01 -0.25087073463E+02  0.64879810614E+02  0.69907264474E+02  0.00000000000E+00 0.  1.
         11    1    1    2    0    0 -0.21692585419E+02  0.10236820180E+02 -0.19475107366E+02  0.30897258073E+02  0.00000000000E+00 0. -1.
</event>
<event>
 7    1  0.2842702E-009  0.1061164E+03  0.7561462E-02  0.1267935E+00
          2   -1    0    0  501    0  0.00000000000E+00  0.00000000000E+00  0.72033007728E+03  0.72033007728E+03  0.00000000000E+00 0. -1.
         -2   -1    0    0    0  501 -0.00000000000E+00 -0.00000000000E+00 -0.18003388577E+02  0.18003388577E+02  0.00000000000E+00 0.  1.
         25    2    1    2    0    0 -0.16636228488E+02 -0.28068814846E+02  0.44432599907E+03  0.46275042814E+03  0.12509093823E+03 0.  0.
          5    1    3    3  502    0 -0.38075119672E+02  0.40011701927E+02  0.15107968962E+03  0.16091362914E+03  0.41800000000E+01 0. -1.
         -5    1    3    3    0  502  0.21438891184E+02 -0.68080516773E+02  0.29324630945E+03  0.30183679900E+03  0.41800000000E+01 0. -1.
        -11    1    1    2    0    0  0.30388399483E+02  0.50555100022E+02  0.22864264011E+03  0.23612862986E+03  0.00000000000E+00 0.  1.
         11    1    1    2    0    0 -0.13752170995E+02 -0.22486285176E+02  0.29358049521E+02  0.39454407863E+02  0.00000000000E+00 0. -1.
</event>
<event>
 7    1  0.2842702E-009  0.1072209E+03  0.7561462E-02  0.1265805E+00
          2   -1    0    0  501    0  0.00000000000E+00  0.00000000000E+00  0.14747807647E+03  0.14747807647E+03  0.00000000000E+00 0. -1.
         -2   -1    0    0    0  501 -0.00000000000E+00 -0.00000000000E+00 -0.91163018725E+02  0.91163018725E+02  0.00000000000E+00 0.  1.
         25    2    1    2    0    0  0.28796267019E+02 -0.25497198679E+02  0.13378353082E+02  0.13155177882E+03  0.12509019964E+03 0.  0.
          5    1    3    3  502    0 -0.37525790607E+02  0.13949661328E+02 -0.22758310103E+02  0.46240578398E+02  0.41800000000E+01 0.  1.
         -5    1    3    3    0  502  0.66322057625E+02 -0.39446860007E+02  0.36136663185E+02  0.85311200427E+02  0.41800000000E+01 0.  1.
        -11    1    1    2    0    0 -0.56962143654E+02 -0.27385298378E+01  0.33378103269E+02  0.66077856602E+02  0.00000000000E+00 0. -1.
         11    1    1    2    0    0  0.28165876635E+02  0.28235728517E+02  0.95586013907E+01  0.41011459765E+02  0.00000000000E+00 0.  1.
</event>
<event>
 7    1  0.2842702E-009  0.1515816E+03  0.7561462E-02  0.1198543E+00
          2   -1    0    0  501    0  0.00000000000E+00  0.00000000000E+00  0.51033767342E+02  0.51033767342E+02  0.00000000000E+00 0. -1.
         -2   -1    0    0    0  501 -0.00000000000E+00 -0.00000000000E+00 -0.45958514000E+03  0.45958514000E+03  0.00000000000E+00 0.  1.
         25    2    1    2    0    0  0.65626957059E+02  0.85183438442E+02 -0.19676790101E+03  0.25676503093E+03  0.12509020170E+03 0.  0.
          5    1    3    3  502    0  0.98510275580E+02  0.85148180917E+02 -0.14166537012E+03  0.19246048062E+03  0.41800000000E+01 0. -1.
         -5    1    3    3    0  502 -0.32883318521E+02  0.35257524857E-01 -0.55102530892E+02  0.64304550312E+02  0.41800000000E+01 0. -1.
        -11    1    1    2    0    0 -0.40875630726E+02 -0.10195276549E+03 -0.16038776348E+03  0.19439500573E+03  0.00000000000E+00 0.  1.
         11    1    1    2    0    0 -0.24751326333E+02  0.16769327051E+02 -0.51395708157E+02  0.59458870675E+02  0.00000000000E+00 0. -1.
</event>
<event>
 7    1  0.2842702E-009  0.1162744E+03  0.7561462E-02  0.1249373E+00
          1   -1    0    0  501    0  0.00000000000E+00  0.00000000000E+00  0.12472200766E+04  0.12472200766E+04  0.00000000000E+00 0. -1.
         -1   -1    0    0    0  501 -0.00000000000E+00 -0.00000000000E+00 -0.12697664080E+02  0.12697664080E+02  0.00000000000E+00 0.  1.
         25    2    1    2    0    0 -0.51123140551E+02 -0.32830390543E+02  0.71582167620E+03  0.72920523813E+03  0.12509275422E+03 0.  0.
          5    1    3    3  502    0 -0.81596600869E+02 -0.81175571647E+01  0.62241070911E+03  0.62780288564E+03  0.41800000000E+01 0. -1.
         -5    1    3    3    0  502  0.30473460319E+02 -0.24712833378E+02  0.93410967088E+02  0.10140235249E+03  0.41800000000E+01 0. -1.
        -11    1    1    2    0    0 -0.27030223386E+02  0.14654263564E+02  0.18229794255E+03  0.18487271371E+03  0.00000000000E+00 0.  1.
         11    1    1    2    0    0  0.78153363936E+02  0.18176126979E+02  0.33640279377E+03  0.34583978884E+03  0.00000000000E+00 0. -1.
</event>
<event>
 7    1  0.2842702E-009  0.1167388E+03  0.7561462E-02  0.1248576E+00
          2   -1    0    0  501    0  0.00000000000E+00  0.00000000000E+00  0.16216587970E+03  0.16216587970E+03  0.00000000000E+00 0.  1.
         -2   -1    0    0    0  501 -0.00000000000E+00 -0.00000000000E+00 -0.11931087005E+03  0.11931087005E+03  0.00000000000E+00 0. -1.
         25    2    1    2    0    0 -0.83284445801E+02 -0.97885655928E+01  0.46118039152E+02  0.15750275465E+03  0.12509248281E+03 0.  0.
          5    1    3    3  502    0 -0.30981241079E+01  0.22883219092E+02 -0.32761267837E+02  0.40299046631E+02  0.41800000000E+01 0.  1.
         -5    1    3    3    0  502 -0.80186321693E+02 -0.32671784685E+02  0.78879306990E+02  0.11720370801E+03  0.41800000000E+01 0.  1.
        -11    1    1    2    0    0  0.10303094532E+03  0.10490884499E+02  0.17899511405E+01  0.10357914016E+03  0.00000000000E+00 0.  1.
         11    1    1    2    0    0 -0.19746499515E+02 -0.70231890572E+00 -0.50529806442E+01  0.20394854947E+02  0.00000000000E+00 0. -1.
</event>
<event>
 7    1  0.2842702E-009  0.1326399E+03  0.7561462E-02  0.1223590E+00
         -4   -1    0    0    0  501 -0.00000000000E+00  0.00000000000E+00  0.12122044210E+04  0.12122044210E+04  0.00000000000E+00 0. -1.
          4   -1    0    0  501    0  0.00000000000E+00 -0.00000000000E+00 -0.20274065766E+02  0.20274065766E+02  0.00000000000E+00 0.  1.
         25    2    1    2    0    0 -0.28125043577E+02  0.85301647978E+02  0.90039041759E+03  0.91346442724E+03  0.12508783521E+03 0.  0.
          5    1    3    3  502    0  0.17642671682E+02 -0.23820878907E+02  0.30141388678E+03  0.30289684990E+03  0.41800000000E+01 0.  1.
         -5    1    3    3    0  502 -0.45767715259E+02  0.10912252689E+03  0.59897653081E+03  0.61056757734E+03  0.41800000000E+01 0.  1.
        -11    1    1    2    0    0  0.53094206513E+02 -0.45349869131E+02  0.10134405194E+03  0.12306998927E+03  0.00000000000E+00 0.  1.
         11    1    1    2    0    0 -0.24969162936E+02 -0.39951778847E+02  0.19019588573E+03  0.19594407029E+03  0.00000000000E+00 0. -1.
</event>
<event>
 7    1  0.2842702E-009  0.6417910E+02  0.7561462E-02  0.1381086E+00
         -1   -1    0    0    0  501 -0.00000000000E+00  0.00000000000E+00  0.16732094867E+02  0.16732094867E+02  0.00000000000E+00 0.  1.
          1   -1    0    0  501    0  0.00000000000E+00 -0.00000000000E+00 -0.74667167474E+03  0.74667167474E+03  0.00000000000E+00 0. -1.
         25    2    1    2    0    0  0.61779061319E+01  0.57502616621E+01 -0.49930358433E+03  0.51480385141E+03  0.12509078331E+03 0.  0.
          5    1    3    3  502    0 -0.11110439326E+02  0.12578210886E+02 -0.23141616391E+01  0.17449383806E+02  0.41800000000E+01 0. -1.
         -5    1    3    3    0  502  0.17288345458E+02 -0.68279492239E+01 -0.49698942269E+03  0.49735446761E+03  0.41800000000E+01 0. -1.
        -11    1    1    2    0    0  0.40929743268E+02 -0.15746633619E+02 -0.12601543702E+03  0.13342822311E+03  0.00000000000E+00 0.  1.
         11    1    1    2    0    0 -0.47107649400E+02  0.99963719572E+01 -0.10462055853E+03  0.11517169509E+03  0.00000000000E+00 0. -1.
</event>
<event>
 7    1  0.2842702E-009  0.9145733E+02  0.7561462E-02  0.1299360E+00
          1   -1    0    0  501    0  0.00000000000E+00  0.00000000000E+00  0.34753775458E+03  0.34753775458E+03  0.00000000000E+00 0. -1.
         -1   -1    0    0    0  501 -0.00000000000E+00 -0.00000000000E+00 -0.46009442401E+02  0.46009442401E+02  0.00000000000E+00 0.  1.
         25    2    1    2    0    0  0.26174545063E+02  0.34634463603E+02  0.24290345338E+03  0.27664745291E+03  0.12508825947E+03 0.  0.
          5    1    3    3  502    0  0.36921274772E+02  0.58510809931E+02  0.59531144401E+02  0.91368074093E+02  0.41800000000E+01 0. -1.
         -5    1    3    3    0  502 -0.10746729709E+02 -0.23876346328E+02  0.18337230898E+03  0.18527937882E+03  0.41800000000E+01 0. -1.
        -11    1    1    2    0    0 -0.24672271496E+02 -0.58335806864E+02  0.11844962118E+02  0.64436716791E+02  0.00000000000E+00 0.  1.
         11    1    1    2    0    0 -0.15022735674E+01  0.23701343260E+02  0.46779896675E+02  0.52463027278E+02  0.00000000000E+00 0. -1.
</event>
<event>
 7    1  0.2842702E-009  0.9783412E+02  0.7561462E-02  0.1284918E+00
          2   -1    0    0  501    0  0.00000000000E+00  0.00000000000E+00  0.24101503339E+03  0.24101503339E+03  0.00000000000E+00 0. -1.
         -2   -1    0    0    0  501 -0.00000000000E+00 -0.00000000000E+00 -0.54444797075E+02  0.54444797075E+02  0.00000000000E+00 0.  1.
         25    2    1    2    0    0 -0.18690384703E+02 -0.19411108495E+02  0.74834512536E+02  0.14823868087E+03  0.12509348754E+03 0.  0.
          5    1    3    3  502    0 -0.52693480583E+02  0.11914130118E+02 -0.65156806444E+01  0.54575414672E+02  0.41800000000E+01 0. -1.
         -5    1    3    3    0  502  0.34003095880E+02 -0.31325238614E+02  0.81350193180E+02  0.93663266194E+02  0.41800000000E+01 0. -1.
        -11    1    1    2    0    0  0.38781336548E+02  0.46998920189E+02  0.80463603994E+02  0.10093206691E+03  0.00000000000E+00 0. -1.
         11    1    1    2    0    0 -0.20090951845E+02 -0.27587811694E+02  0.31272119783E+02  0.46289082685E+02  0.00000000000E+00 0.  1.
</event>
<event>
 7    1  0.2842702E-009  0.1082033E+03  0.7561462E-02  0.1263934E+00
         -2   -1    0    0    0  501 -0.00000000000E+00  0.00000000000E+00  0.50705565240E+02  0.50705565240E+02  0.00000000000E+00 0.  1.
          2   -1    0    0  501    0  0.00000000000E+00 -0.00000000000E+00 -0.33603764876E+03  0.33603764876E+03  0.00000000000E+00 0. -1.
         25    2    1    2    0    0 -0.47055533878E+02 -0.24950082359E+02 -0.24744610729E+03  0.28233569281E+03  0.12508851883E+03 0.  0.
          5    1    3    3  502    0 -0.15380028514E+02  0.50539001626E+02 -0.80921881429E+02  0.96729309190E+02  0.41800000000E+01 0.  1.
         -5    1    3    3    0  502 -0.31675505364E+02 -0.75489083985E+02 -0.16652422587E+03  0.18560638362E+03  0.41800000000E+01 0.  1.
        -11    1    1    2    0    0  0.69049275510E+01  0.38463417845E+02 -0.46949717593E+02  0.61085092444E+02  0.00000000000E+00 0. -1.
         11    1    1    2    0    0  0.40150606327E+02 -0.13513335486E+02  0.90637413708E+01  0.43322428741E+02  0.00000000000E+00 0.  1.
</event>
<event>
 7    1  0.2842702E-009  0.1103392E+03  0.7561462E-02  0.1259943E+00
          2   -1    0    0  501    0  0.00000000000E+00  0.00000000000E+00  0.29881545234E+02  0.29881545234E+02  0.00000000000E+00 0. -1.
         -2   -1    0    0    0  501 -0.00000000000E+00 -0.00000000000E+00 -0.58026879506E+03  0.58026879506E+03  0.00000000000E+00 0.  1.
         25    2    1    2    0    0 -0.58745325274E+02 -0.18152878292E+01 -0.19494607634E+03  0.23896736833E+03  0.12508845644E+03 0.  0.
          5    1    3    3  502    0 -0.90182457503E+02  0.18286077471E+02 -0.17158269210E+03  0.19474431673E+03  0.41800000000E+01 0.  1.
         -5    1    3    3    0  502  0.31437132229E+02 -0.20101365300E+02 -0.23363384238E+02  0.44223051600E+02  0.41800000000E+01 0.  1.
        -11    1    1    2    0    0 -0.16123218925E+02  0.78862067506E+00 -0.13215875811E+02  0.20862394027E+02  0.00000000000E+00 0. -1.
         11    1    1    2    0    0  0.74868544199E+02  0.10266671542E+01 -0.34222529767E+03  0.35032057793E+03  0.00000000000E+00 0.  1.
</event>
<event>
 7    1  0.2842702E-009  0.1268152E+03  0.7561462E-02  0.1232259E+00
         -2   -1    0    0    0  501 -0.00000000000E+00  0.00000000000E+00  0.30742768679E+03  0.30742768679E+03  0.00000000000E+00 0.  1.
          2   -1    0    0  501    0  0.00000000000E+00 -0.00000000000E+00 -0.81898386450E+02  0.81898386450E+02  0.00000000000E+00 0. -1.
         25    2    1    2    0    0 -0.14852945074E+02 -0.98644594810E+02  0.46051954958E+02  0.16648903482E+03  0.12508577096E+03 0.  0.
          5    1    3    3  502    0 -0.24495374326E+02  0.14774091396E+02  0.43900127035E+02  0.52564157880E+02  0.41800000000E+01 0. -1.
         -5    1    3    3    0  502  0.96424292522E+01 -0.11341868621E+03  0.21518279230E+01  0.11392487694E+03  0.41800000000E+01 0. -1.
        -11    1    1    2    0    0 -0.11115444173E+02  0.74606326549E+02  0.54798483769E+02  0.93233743268E+02  0.00000000000E+00 0. -1.
         11    1    1    2    0    0  0.25968389247E+02  0.24038268261E+02  0.12467886161E+03  0.12960329515E+03  0.00000000000E+00 0.  1.
</event>
<event>
 7    1  0.2842702E-009  0.9909267E+02  0.7561462E-02  0.1282216E+00
         -2   -1    0    0    0  501 -0.00000000000E+00  0.00000000000E+00  0.49516396333E+02  0.49516396333E+02  0.00000000000E+00 0.  1.
          2   -1    0    0  501    0  0.00000000000E+00 -0.00000000000E+00 -0.25963335363E+03  0.25963335363E+03  0.00000000000E+00 0. -1.
         25    2    1    2    0    0  0.25894697659E+02 -0.78121259181E+01 -0.12753153478E+03  0.18067561644E+03  0.12509125203E+03 0.  0.
          5    1    3    3  502    0  0.50086813365E+02 -0.51659663862E+02 -0.47993509210E+02  0.86592488529E+02  0.41800000000E+01 0. -1.
         -5    1    3    3    0  502 -0.24192115706E+02  0.43847537944E+02 -0.79538025570E+02  0.94083127912E+02  0.41800000000E+01 0. -1.
        -11    1    1    2    0    0 -0.32331861240E+02 -0.25967990056E+02 -0.27647988140E+01  0.41561158205E+02  0.00000000000E+00 0.  1.
         11    1    1    2    0    0  0.64371635808E+01  0.33780115974E+02 -0.79820623697E+02  0.86912975312E+02  0.00000000000E+00 0. -1.
</event>
<event>
 7    1  0.2842702E-009  0.2028975E+03  0.7561462E-02  0.1147317E+00
         -2   -1    0    0    0  501 -0.00000000000E+00  0.00000000000E+00  0.60727542810E+02  0.60727542810E+02  0.00000000000E+00 0.  1.
          2   -1    0    0  501    0  0.00000000000E+00 -0.00000000000E+00 -0.12711664813E+04  0.12711664813E+04  0.00000000000E+00 0. -1.
         25    2    1    2    0    0 -0.15591856901E+03  0.89383652371E+02 -0.10544617519E+04  0.10769624552E+04  0.12513395254E+03 0.  0.
          5    1    3    3  502    0 -0.97786043351E+02  0.11786228177E+03 -0.69380224881E+03  0.71051577082E+03  0.41800000000E+01 0. -1.
         -5    1    3    3    0  502 -0.58132525654E+02 -0.28478629403E+02 -0.36065950313E+03  0.36644668435E+03  0.41800000000E+01 0. -1.
        -11    1    1    2    0    0  0.25169327801E+02  0.60067621822E+01  0.53374808402E+01  0.26420918901E+02  0.00000000000E+00 0.  1.
         11    1    1    2    0    0  0.13074924120E+03 -0.95390414554E+02 -0.16131466739E+03  0.22851065004E+03  0.00000000000E+00 0. -1.
</event>
<event>
 7    1  0.2842702E-009  0.9326546E+02  0.7561462E-02  0.1295131E+00
         -1   -1    0    0    0  501 -0.00000000000E+00  0.00000000000E+00  0.13576927493E+03  0.13576927493E+03  0.00000000000E+00 0. -1.
          1   -1    0    0  501    0  0.00000000000E+00 -0.00000000000E+00 -0.14558778641E+03  0.14558778641E+03  0.00000000000E+00 0.  1.
         25    2    1    2    0    0 -0.25711773889E+02 -0.29670966500E+02  0.75196880408E+02  0.15114123525E+03  0.12509052962E+03 0.  0.
          5    1    3    3  502    0  0.45622156173E+02 -0.10857537305E+02  0.59021258818E+02  0.75499991011E+02  0.41800000000E+01 0.  1.
         -5    1    3    3    0  502 -0.71333930062E+02 -0.18813429195E+02  0.16175621590E+02  0.75641244238E+02  0.41800000000E+01 0.  1.
        -11    1    1    2    0    0  0.25270571286E+02  0.44257501587E+02 -0.98143232510E+02  0.11058671849E+03  0.00000000000E+00 0.  1.
         11    1    1    2    0    0  0.44120260299E+00 -0.14586535087E+02  0.13127840622E+02  0.19629107595E+02  0.00000000000E+00 0. -1.
</event>
<event>
 7    1  0.2842702E-009  0.1082655E+03  0.7561462E-02  0.1263816E+00
         -2   -1    0    0    0  501 -0.00000000000E+00  0.00000000000E+00  0.30558010244E+03  0.30558010244E+03  0.00000000000E+00 0.  1.
          2   -1    0    0  501    0  0.00000000000E+00 -0.00000000000E+00 -0.51369310307E+02  0.51369310307E+02  0.00000000000E+00 0. -1.
         25    2    1    2    0    0  0.37175608340E+02  0.11804600433E+02  0.21228979979E+03  0.24945500859E+03  0.12505785770E+03 0.  0.
          5    1    3    3  502    0  0.75535451061E+02 -0.70028091860E+01  0.18110967931E+03  0.19639967424E+03  0.41800000000E+01 0. -1.
         -5    1    3    3    0  502 -0.38359842721E+02  0.18807409619E+02  0.31180120478E+02  0.53055334352E+02  0.41800000000E+01 0. -1.
        -11    1    1    2    0    0  0.16502565492E+02  0.26826703431E+02  0.54297554367E+01  0.31960740431E+02  0.00000000000E+00 0. -1.
         11    1    1    2    0    0 -0.53678173832E+02 -0.38631303864E+02  0.36491236915E+02  0.75533663725E+02  0.00000000000E+00 0.  1.
</event>
<event>
 7    1  0.2842702E-009  0.1270497E+03  0.7561462E-02  0.1231900E+00
          1   -1    0    0  501    0  0.00000000000E+00  0.00000000000E+00  0.10379451101E+03  0.10379451101E+03  0.00000000000E+00 0. -1.
         -1   -1    0    0    0  501 -0.00000000000E+00 -0.00000000000E+00 -0.16083066522E+03  0.16083066522E+03  0.00000000000E+00 0.  1.
         25    2    1    2    0    0 -0.53491749565E+02  0.41782875916E+02 -0.28263840160E+02  0.14509632017E+03  0.12508765516E+03 0.  0.
          5    1    3    3  502    0 -0.86138907834E+02  0.59165125867E+02 -0.15387139255E+02  0.10571026448E+03  0.41800000000E+01 0. -1.
         -5    1    3    3    0  502  0.32647158269E+02 -0.17382249951E+02 -0.12876700905E+02  0.39386055687E+02  0.41800000000E+01 0. -1.
        -11    1    1    2    0    0  0.65439735950E+02  0.34288866801E+01 -0.31455411272E+02  0.72688095335E+02  0.00000000000E+00 0. -1.
         11    1    1    2    0    0 -0.11947986385E+02 -0.45211762596E+02  0.26830972246E+01  0.46840760737E+02  0.00000000000E+00 0.  1.
</event>
<event>
 7    1  0.2842702E-009  0.8736341E+02  0.7561462E-02  0.1309365E+00
          2   -1    0    0  501    0  0.00000000000E+00  0.00000000000E+00  0.12520995615E+03  0.12520995615E+03  0.00000000000E+00 0. -1.
         -2   -1    0    0    0  501 -0.00000000000E+00 -0.00000000000E+00 -0.10673351508E+03  0.10673351508E+03  0.00000000000E+00 0.  1.
         25    2    1    2    0    0  0.68392153529E+01  0.37987720146E+02  0.21862970715E+02  0.13272122076E+03  0.12508833360E+03 0.  0.
          5    1    3    3  502    0 -0.19460738582E+02  0.61444620640E+02 -0.28920006262E+02  0.70767230509E+02  0.41800000000E+01 0. -1.
         -5    1    3    3    0  502  0.26299953935E+02 -0.23456900494E+02  0.50782976977E+02  0.61953990254E+02  0.41800000000E+01 0. -1.
        -11    1    1    2    0    0 -0.32864576815E+02 -0.35701790530E+02  0.29831369309E+02  0.56961468127E+02  0.00000000000E+00 0. -1.
         11    1    1    2    0    0  0.26025361462E+02 -0.22859296154E+01 -0.33217898952E+02  0.42260782343E+02  0.00000000000E+00 0.  1.
</event>
<event>
 7    1  0.2842702E-009  0.1151062E+03  0.7561462E-02  0.1251396E+00
         -4   -1    0    0    0  501 -0.00000000000E+00  0.00000000000E+00  0.28545179449E+03  0.28545179449E+03  0.00000000000E+00 0. -1.
          4   -1    0    0  501    0  0.00000000000E+00 -0.00000000000E+00 -0.71042567310E+02  0.71042567310E+02  0.00000000000E+00 0.  1.
         25    2    1    2    0    0  0.33744947794E+02 -0.85464462593E+02  0.11027489421E+03  0.19039563260E+03  0.12508816391E+03 0.  0.
          5    1    3    3  502    0 -0.73452869621E+01 -0.29453447668E+01  0.96712819670E+02  0.97126053070E+02  0.41800000000E+01 0. -1.
         -5    1    3    3    0  502  0.41090234756E+02 -0.82519117827E+02  0.13562074536E+02  0.93269579526E+02  0.41800000000E+01 0. -1.
        -11    1    1    2    0    0 -0.30278822806E+02  0.10493061753E+03  0.92756395034E+02  0.14328639302E+03  0.00000000000E+00 0.  1.
         11    1    1    2    0    0 -0.34661249874E+01 -0.19466154934E+02  0.11377937938E+02  0.22812336182E+02  0.00000000000E+00 0. -1.
</event>
<event>
 7    1  0.2842702E-009  0.1552126E+03  0.7561462E-02  0.1194210E+00
          2   -1    0    0  501    0  0.00000000000E+00  0.00000000000E+00  0.51663133932E+03  0.51663133932E+03  0.00000000000E+00 0. -1.
         -2   -1    0    0    0  501 -0.00000000000E+00 -0.00000000000E+00 -0.52775199310E+02  0.52775199310E+02  0.00000000000E+00 0.  1.
         25    2    1    2    0    0  0.53241074533E+02 -0.10942380586E+03  0.25912186765E+03  0.31240990556E+03  0.12509046923E+03 0.  0.
          5    1    3    3  502    0 -0.17266049669E+02  0.16216486603E+02  0.13396204403E+02  0.27532192091E+02  0.41800000000E+01 0.  1.
         -5    1    3    3    0  502  0.70507124203E+02 -0.12564029247E+03  0.24572566324E+03  0.28487771347E+03  0.41800000000E+01 0.  1.
        -11    1    1    2    0    0 -0.71985486116E+02  0.89978772699E+02  0.19811448098E+03  0.22918865007E+03  0.00000000000E+00 0. -1.
         11    1    1    2    0    0  0.18744411583E+02  0.19445033164E+02  0.66197913777E+01  0.27807982995E+02  0.00000000000E+00 0.  1.
</event>
<event>
 7    1  0.2842702E-009  0.3561548E+03  0.7561462E-02  0.1060117E+00
         -1   -1    0    0    0  501 -0.00000000000E+00  0.00000000000E+00  0.25574060217E+03  0.25574060217E+03  0.00000000000E+00 0.  1.
          1   -1    0    0  501    0  0.00000000000E+00 -0.00000000000E+00 -0.54730430352E+03  0.54730430352E+03  0.00000000000E+00 0. -1.
         25    2    1    2    0    0  0.35002871582E+03  0.34409439072E+02 -0.76458237287E+02  0.38104818037E+03  0.12509093621E+03 0.  0.
          5    1    3    3  502    0  0.13160254273E+03 -0.25274341948E+02 -0.76929281167E+02  0.15457557477E+03  0.41800000000E+01 0.  1.
         -5    1    3    3    0  502  0.21842617309E+03  0.59683781020E+02  0.47104387973E+00  0.22647260561E+03  0.41800000000E+01 0.  1.
        -11    1    1    2    0    0 -0.71168767414E+02 -0.93668518282E+01 -0.50164669391E+01  0.71957600772E+02  0.00000000000E+00 0.  1.
         11    1    1    2    0    0 -0.27885994841E+03 -0.25042587244E+02 -0.21008899712E+03  0.35003912455E+03  0.00000000000E+00 0. -1.
</event>
<event>
 7    1  0.2842702E-009  0.1374362E+03  0.7561462E-02  0.1216821E+00
          2   -1    0    0  501    0  0.00000000000E+00  0.00000000000E+00  0.10066870262E+04  0.10066870262E+04  0.00000000000E+00 0.  1.
         -2   -1    0    0    0  501 -0.00000000000E+00 -0.00000000000E+00 -0.29779583522E+02  0.29779583522E+02  0.00000000000E+00 0. -1.
         25    2    1    2    0    0  0.11687252725E+03  0.31087729090E+02  0.69690796247E+03  0.71829953979E+03  0.12509151119E+03 0.  0.
          5    1    3    3  502    0  0.11231090674E+02  0.15062032633E+02  0.75149947003E+01  0.20662762886E+02  0.41800000000E+01 0. -1.
         -5    1    3    3    0  502  0.10564143658E+03  0.16025696458E+02  0.68939296777E+03  0.69763677690E+03  0.41800000000E+01 0. -1.
        -11    1    1    2    0    0 -0.18266541310E+01 -0.33570642761E+02  0.41920453336E+02  0.53736850751E+02  0.00000000000E+00 0.  1.
         11    1    1    2    0    0 -0.11504587312E+03  0.24829136707E+01  0.23807902685E+03  0.26443021916E+03  0.00000000000E+00 0. -1.
</event>
<event>
 7    1  0.3902777E-009  0.2234761E+03  0.7561462E-02  0.1131318E+00
          2   -1    0    0  501    0  0.00000000000E+00  0.00000000000E+00  0.19739782950E+04  0.19739782950E+04  0.00000000000E+00 0. -1.
         -2   -1    0    0    0  501 -0.00000000000E+00 -0.00000000000E+00 -0.29702244680E+02  0.29702244680E+02  0.00000000000E+00 0.  1.
         25    2    1    2    0    0 -0.50773359795E+02  0.20981046763E+03  0.10216544034E+04  0.10516762702E+04  0.12508753303E+03 0.  0.
          5    1    3    3  502    0 -0.28324231775E+02  0.16888499532E+03  0.51247750637E+03  0.54034717607E+03  0.41800000000E+01 0.  1.
         -5    1    3    3    0  502 -0.22449128020E+02  0.40925472308E+02  0.50917689706E+03  0.51132909416E+03  0.41800000000E+01 0.  1.
        -11    1    1    2    0    0  0.68306494092E+02 -0.12759420621E+03  0.47507827073E+03  0.49663409258E+03  0.00000000000E+00 0. -1.
         11    1    1    2    0    0 -0.17533134297E+02 -0.82216261419E+02  0.44754337619E+03  0.45537017690E+03  0.00000000000E+00 0.  1.
</event>
<event>
 7    1  0.2842702E-009  0.1012472E+03  0.7561462E-02  0.1277695E+00
          4   -1    0    0  501    0  0.00000000000E+00  0.00000000000E+00  0.82061368188E+02  0.82061368188E+02  0.00000000000E+00 0. -1.
         -4   -1    0    0    0  501 -0.00000000000E+00 -0.00000000000E+00 -0.24446623582E+03  0.24446623582E+03  0.00000000000E+00 0.  1.
         25    2    1    2    0    0 -0.82261307781E+02  0.21916767546E+02 -0.95462719971E+02  0.17890746965E+03  0.12508990501E+03 0.  0.
          5    1    3    3  502    0 -0.87637384045E+02  0.10370051411E+02 -0.12114442841E+03  0.14993763365E+03  0.41800000000E+01 0.  1.
         -5    1    3    3    0  502  0.53760762640E+01  0.11546716135E+02  0.25681708443E+02  0.28969836003E+02  0.41800000000E+01 0.  1.
        -11    1    1    2    0    0  0.35904388207E+02  0.17453820555E+02  0.17472138430E+02  0.43577936686E+02  0.00000000000E+00 0. -1.
         11    1    1    2    0    0  0.46356919574E+02 -0.39370588101E+02 -0.84414286092E+02  0.10404219767E+03  0.00000000000E+00 0.  1.
</event>
<event>
 7    1  0.2842702E-009  0.2619062E+03  0.7561462E-02  0.1106003E+00
         -2   -1    0    0    0  501 -0.00000000000E+00  0.00000000000E+00  0.18023482120E+03  0.18023482120E+03  0.00000000000E+00 0. -1.
          2   -1    0    0  501    0  0.00000000000E+00 -0.00000000000E+00 -0.40794862750E+03  0.40794862750E+03  0.00000000000E+00 0.  1.
         25    2    1    2    0    0  0.20014289266E+03 -0.14359938312E+03 -0.99712950396E+02  0.29371426873E+03  0.12508972326E+03 0.  0.
          5    1    3    3  502    0  0.52293824862E+02  0.18667391786E+02 -0.10212737594E+02  0.56611730621E+02  0.41800000000E+01 0.  1.
         -5    1    3    3    0  502  0.14784906780E+03 -0.16226677490E+03 -0.89500212802E+02  0.23710253811E+03  0.41800000000E+01 0.  1.
        -11    1    1    2    0    0 -0.32669929586E+02  0.39980346067E+02 -0.74056260535E+02  0.90277805108E+02  0.00000000000E+00 0.  1.
         11    1    1    2    0    0 -0.16747296307E+03  0.10361903705E+03 -0.53944595372E+02  0.20419137487E+03  0.00000000000E+00 0. -1.
</event>
<event>
 7    1  0.2842702E-009  0.9420873E+02  0.7561462E-02  0.1292968E+00
         -2   -1    0    0    0  501 -0.00000000000E+00  0.00000000000E+00  0.71762876958E+02  0.71762876958E+02  0.00000000000E+00 0.  1.
          2   -1    0    0  501    0  0.00000000000E+00 -0.00000000000E+00 -0.23479921503E+03  0.23479921503E+03  0.00000000000E+00 0. -1.
         25    2    1    2    0    0 -0.10834749753E+02  0.14462632607E+02 -0.17378013206E+03  0.21487668194E+03  0.12508355048E+03 0.  0.
          5    1    3    3  502    0  0.42396707766E+02 -0.17871346766E+02 -0.13177093163E+03  0.13963494079E+03  0.41800000000E+01 0. -1.
         -5    1    3    3    0  502 -0.53231457519E+02  0.32333979373E+02 -0.42009200424E+02  0.75241741155E+02  0.41800000000E+01 0. -1.
        -11    1    1    2    0    0  0.53768645687E+01 -0.46746272612E+02  0.27917522240E+02  0.54713003242E+02  0.00000000000E+00 0.  1.
         11    1    1    2    0    0  0.54578851846E+01  0.32283640006E+02 -0.17173728250E+02  0.36972406801E+02  0.00000000000E+00 0. -1.
</event>
<event>
 7    1  0.2842702E-009  0.1194168E+03  0.7561462E-02  0.1244062E+00
          2   -1    0    0  501    0  0.00000000000E+00  0.00000000000E+00  0.49424068906E+02  0.49424068906E+02  0.00000000000E+00 0. -1.
         -2   -1    0    0    0  501 -0.00000000000E+00 -0.00000000000E+00 -0.47171881094E+03  0.47171881094E+03  0.00000000000E+00 0.  1.
         25    2    1    2    0    0 -0.77276204110E+02  0.55873836878E+02 -0.12674067480E+03  0.20200181763E+03  0.12509211928E+03 0.  0.
          5    1    3    3  502    0 -0.70638547164E+02  0.85873500392E+02 -0.12965546988E+03  0.17085688656E+03  0.41800000000E+01 0. -1.
         -5    1    3    3    0  502 -0.66376569453E+01 -0.29999663514E+02  0.29147950816E+01  0.31144931065E+02  0.41800000000E+01 0. -1.
        -11    1    1    2    0    0  0.36043707743E+02 -0.16872789354E+02 -0.36694067127E+02  0.54132194218E+02  0.00000000000E+00 0. -1.
         11    1    1    2    0    0  0.41232496366E+02 -0.39001047524E+02 -0.25886000011E+03  0.26500886801E+03  0.00000000000E+00 0.  1.
</event>
<event>
 7    1  0.2842702E-009  0.1131775E+03  0.7561462E-02  0.1254796E+00
         -1   -1    0    0    0  501 -0.00000000000E+00  0.00000000000E+00  0.10075364240E+03  0.10075364240E+03  0.00000000000E+00 0. -1.
          1   -1    0    0  501    0  0.00000000000E+00 -0.00000000000E+00 -0.19451031973E+03  0.19451031973E+03  0.00000000000E+00 0.  1.
         25    2    1    2    0    0  0.79390847121E+01 -0.46000981096E+02  0.27713341792E+02  0.13635227561E+03  0.12507915263E+03 0.  0.
          5    1    3    3  502    0  0.61785506570E+02 -0.47897485989E+02  0.74721442757E+01  0.78644283493E+02  0.41800000000E+01 0. -1.
         -5    1    3    3    0  502 -0.53846421857E+02  0.18965048931E+01  0.20241197516E+02  0.57707992120E+02  0.41800000000E+01 0. -1.
        -11    1    1    2    0    0  0.29657780490E+02  0.47946256022E+02 -0.10196190428E+03  0.11651033145E+03  0.00000000000E+00 0. -1.
         11    1    1    2    0    0 -0.37596865202E+02 -0.19452749266E+01 -0.19508114840E+02  0.42401355075E+02  0.00000000000E+00 0.  1.
</event>
<event>
 7    1  0.2842702E-009  0.6166622E+02  0.7561462E-02  0.1390969E+00
          1   -1    0    0  501    0  0.00000000000E+00  0.00000000000E+00  0.75543796911E+02  0.75543796911E+02  0.00000000000E+00 0. -1.
         -1   -1    0    0    0  501 -0.00000000000E+00 -0.00000000000E+00 -0.21101745158E+03  0.21101745158E+03  0.00000000000E+00 0.  1.
         25    2    1    2    0    0  0.45580279393E+02  0.34557711324E+02 -0.42702544244E+02  0.14401667836E+03  0.12508196944E+03 0.  0.
          5    1    3    3  502    0  0.34583573884E+02  0.84987570334E+01  0.41645130309E+02  0.54954906352E+02  0.41800000000E+01 0.  1.
         -5    1    3    3    0  502  0.10996705509E+02  0.26058954291E+02 -0.84347674553E+02  0.89061772009E+02  0.41800000000E+01 0.  1.
        -11    1    1    2    0    0 -0.27547807838E+02 -0.29037058132E+02  0.73226546388E+01  0.40689725147E+02  0.00000000000E+00 0. -1.
         11    1    1    2    0    0 -0.18032471556E+02 -0.55206531925E+01 -0.10009376506E+03  0.10185484498E+03  0.00000000000E+00 0.  1.
</event>
<event>
 7    1  0.2842702E-009  0.1331812E+03  0.7561462E-02  0.1222810E+00
          1   -1    0    0  501    0  0.00000000000E+00  0.00000000000E+00  0.61347651345E+03  0.61347651345E+03  0.00000000000E+00 0. -1.
         -1   -1    0    0    0  501 -0.00000000000E+00 -0.00000000000E+00 -0.42913435707E+02  0.42913435707E+02  0.00000000000E+00 0.  1.
         25    2    1    2    0    0  0.76804646194E+02 -0.26807055372E+02  0.48144883328E+03  0.50404241147E+03  0.12509277194E+03 0.  0.
          5    1    3    3  502    0  0.38067372412E+02  0.49465916864E+02  0.23266418910E+03  0.24092758053E+03  0.41800000000E+01 0.  1.
         -5    1    3    3    0  502  0.38737273782E+02 -0.76272972236E+02  0.24878464419E+03  0.26311483093E+03  0.41800000000E+01 0.  1.
        -11    1    1    2    0    0 -0.89737570922E+02  0.15159242635E+01  0.85059214222E+02  0.12365354660E+03  0.00000000000E+00 0. -1.
         11    1    1    2    0    0  0.12932924728E+02  0.25291131109E+02  0.40550302366E+01  0.28693991095E+02  0.00000000000E+00 0.  1.
</event>
<event>
 7    1  0.2842702E-009  0.2070563E+03  0.7561462E-02  0.1143919E+00
         -1   -1    0    0    0  501 -0.00000000000E+00  0.00000000000E+00  0.11541588616E+03  0.11541588616E+03  0.00000000000E+00 0.  1.
          1   -1    0    0  501    0  0.00000000000E+00 -0.00000000000E+00 -0.46907506529E+03  0.46907506529E+03  0.00000000000E+00 0. -1.
         25    2    1    2    0    0 -0.20541685838E+03 -0.72304458711E+01 -0.19162908320E+03  0.30759959838E+03  0.12508973716E+03 0.  0.
          5    1    3    3  502    0 -0.13886814747E+03 -0.29071186671E+01 -0.19642281724E+03  0.24060799915E+03  0.41800000000E+01 0.  1.
         -5    1    3    3    0  502 -0.66548710912E+02 -0.43233272041E+01  0.47937340404E+01  0.66991599236E+02  0.41800000000E+01 0.  1.
        -11    1    1    2    0    0  0.77366337096E+02 -0.13734103505E+02 -0.11415830126E+03  0.13858677232E+03  0.00000000000E+00 0. -1.
         11    1    1    2    0    0  0.12805052128E+03  0.20964549376E+02 -0.47871794663E+02  0.13830458075E+03  0.00000000000E+00 0.  1.
</event>
<event>
 7    1  0.2842702E-009  0.1342971E+03  0.7561462E-02  0.1221215E+00
         -2   -1    0    0    0  501 -0.00000000000E+00  0.00000000000E+00  0.38279494941E+03  0.38279494941E+03  0.00000000000E+00 0.  1.
          2   -1    0    0  501    0  0.00000000000E+00 -0.00000000000E+00 -0.91145492150E+02  0.91145492150E+02  0.00000000000E+00 0. -1.
         25    2    1    2    0    0 -0.45049028344E+02 -0.71610134497E+02 -0.58674425878E+01  0.15112386080E+03  0.12508624266E+03 0.  0.
          5    1    3    3  502    0  0.21358636902E+02 -0.73948192446E+02  0.20095400084E+02  0.79660680646E+02  0.41800000000E+01 0. -1.
         -5    1    3    3    0  502 -0.66407665246E+02  0.23380579495E+01 -0.25962842672E+02  0.71463180156E+02  0.41800000000E+01 0. -1.
        -11    1    1    2    0    0 -0.22857507942E+02 -0.41057095099E+01  0.46465920481E+02  0.51946167193E+02  0.00000000000E+00 0.  1.
         11    1    1    2    0    0  0.67906536287E+02  0.75715844007E+02  0.25105097937E+03  0.27087041357E+03  0.00000000000E+00 0. -1.
</event>
<event>
 7    1  0.2842702E-009  0.8241578E+02  0.7561462E-02  0.1322332E+00
         -1   -1    0    0    0  501 -0.00000000000E+00  0.00000000000E+00  0.10324903283E+04  0.10324903283E+04  0.00000000000E+00 0.  1.
          1   -1    0    0  501    0  0.00000000000E+00 -0.00000000000E+00 -0.14942461190E+02  0.14942461190E+02  0.00000000000E+00 0. -1.
         25    2    1    2    0    0 -0.49823678733E+01  0.59527392829E+02  0.65448366361E+03  0.66900261224E+03  0.12508914728E+03 0.  0.
          5    1    3    3  502    0 -0.25537992809E+02  0.36797635154E+02  0.62385120759E+03  0.62547106779E+03  0.41800000000E+01 0. -1.
         -5    1    3    3    0  502  0.20555624936E+02  0.22729757675E+02  0.30632456015E+02  0.43531544448E+02  0.41800000000E+01 0. -1.
        -11    1    1    2    0    0  0.32645887704E+02 -0.13737690539E+02  0.52745973490E+02  0.63534367430E+02  0.00000000000E+00 0. -1.
         11    1    1    2    0    0 -0.27663519831E+02 -0.45789702290E+02  0.31031823000E+03  0.31489580981E+03  0.00000000000E+00 0.  1.
</event>
<event>
 7    1  0.2842702E-009  0.1445506E+03  0.7561462E-02  0.1207334E+00
          3   -1    0    0  501    0  0.00000000000E+00  0.00000000000E+00  0.10927167115E+04  0.10927167115E+04  0.00000000000E+00 0. -1.
         -3   -1    0    0    0  501 -0.00000000000E+00 -0.00000000000E+00 -0.24295460759E+02  0.24295460759E+02  0.00000000000E+00 0.  1.
         25    2    1    2    0    0  0.94586417012E+02 -0.25833764820E+02  0.81385546377E+03  0.82922869648E+03  0.12508213890E+03 0.  0.
          5    1    3    3  502    0 -0.52362941870E+01  0.39031625021E+02  0.18515545197E+03  0.18934333979E+03  0.41800000000E+01 0.  1.
         -5    1    3    3    0  502  0.99822711199E+02 -0.64865389840E+02  0.62870001180E+03  0.63988535669E+03  0.41800000000E+01 0.  1.
        -11    1    1    2    0    0 -0.11107279549E+03  0.19805074993E+02  0.19095923968E+03  0.22179909403E+03  0.00000000000E+00 0.  1.
         11    1    1    2    0    0  0.16486378481E+02  0.60286898269E+01  0.63606547324E+02  0.65984381780E+02  0.00000000000E+00 0. -1.
</event>
<event>
 7    1  0.2842702E-009  0.1104765E+03  0.7561462E-02  0.1259690E+00
          2   -1    0    0  501    0  0.00000000000E+00  0.00000000000E+00  0.17293952989E+03  0.17293952989E+03  0.00000000000E+00 0. -1.
         -2   -1    0    0    0  501 -0.00000000000E+00 -0.00000000000E+00 -0.87900382139E+02  0.87900382139E+02  0.00000000000E+00 0.  1.
         25    2    1    2    0    0  0.19824109933E+02 -0.56422508748E+02  0.57321957238E+02  0.15003588668E+03  0.12509382752E+03 0.  0.
          5    1    3    3  502    0  0.56555586844E+02  0.13931804358E+02  0.16463401824E+02  0.60672444945E+02  0.41800000000E+01 0.  1.
         -5    1    3    3    0  502 -0.36731476911E+02 -0.70354313106E+02  0.40858555414E+02  0.89363441738E+02  0.41800000000E+01 0.  1.
        -11    1    1    2    0    0  0.13881870737E+02  0.45621628593E+02 -0.19731895077E+02  0.51608013079E+02  0.00000000000E+00 0.  1.
         11    1    1    2    0    0 -0.33705980671E+02  0.10800880155E+02  0.47449085591E+02  0.59196012269E+02  0.00000000000E+00 0. -1.
</event>
<event>
 7    1  0.2842702E-009  0.9314963E+02  0.7561462E-02  0.1295399E+00
          2   -1    0    0  501    0  0.00000000000E+00  0.00000000000E+00  0.89569956180E+03  0.89569956180E+03  0.00000000000E+00 0. -1.
         -2   -1    0    0    0  501 -0.00000000000E+00 -0.00000000000E+00 -0.31093829591E+02  0.31093829591E+02  0.00000000000E+00 0.  1.
         25    2    1    2    0    0 -0.51787678014E+02 -0.24308875348E+02  0.77797736810E+03  0.79004392211E+03  0.12509088128E+03 0.  0.
          5    1    3    3  502    0 -0.44335778030E+02 -0.46648934760E+02  0.17358253177E+03  0.18517600294E+03  0.41800000000E+01 0. -1.
         -5    1    3    3    0  502 -0.74518999839E+01  0.22340059412E+02  0.60439483632E+03  0.60486791917E+03  0.41800000000E+01 0. -1.
        -11    1    1    2    0    0  0.41925039692E+02  0.52984018497E+02  0.81715279353E+02  0.10603019404E+03  0.00000000000E+00 0. -1.
         11    1    1    2    0    0  0.98626383219E+01 -0.28675143149E+02  0.49130847615E+01  0.30719275238E+02  0.00000000000E+00 0.  1.
</event>
<event>
 7    1  0.2842702E-009  0.4834915E+02  0.7561462E-02  0.1454455E+00
         -1   -1    0    0    0  501 -0.00000000000E+00  0.00000000000E+00  0.11263443063E+03  0.11263443063E+03  0.00000000000E+00 0.  1.
          1   -1    0    0  501    0  0.00000000000E+00 -0.00000000000E+00 -0.12034970980E+03  0.12034970980E+03  0.00000000000E+00 0. -1.
         25    2    1    2    0    0 -0.19989118708E+02 -0.94807673143E+01  0.49576714508E+02  0.13637487058E+03  0.12510317698E+03 0.  0.
          5    1    3    3  502    0 -0.12470044365E+02 -0.16415022679E+02 -0.40492878052E+02  0.45630039984E+02  0.41800000000E+01 0.  1.
         -5    1    3    3    0  502 -0.75190743427E+01  0.69342553647E+01  0.90069592560E+02  0.90744830598E+02  0.41800000000E+01 0.  1.
        -11    1    1    2    0    0  0.24190309924E+02  0.32892001130E+02 -0.76177076464E+01  0.41534134184E+02  0.00000000000E+00 0.  1.
         11    1    1    2    0    0 -0.42011912166E+01 -0.23411233816E+02 -0.49674286025E+02  0.55075135665E+02  0.00000000000E+00 0. -1.
</event>
<event>
 7    1  0.2842702E-009  0.1230992E+03  0.7561462E-02  0.1238070E+00
         -3   -1    0    0    0  501 -0.00000000000E+00  0.00000000000E+00  0.83368959514E+02  0.83368959514E+02  0.00000000000E+00 0.  1.
          3   -1    0    0  501    0  0.00000000000E+00 -0.00000000000E+00 -0.21210318744E+03  0.21210318744E+03  0.00000000000E+00 0. -1.
         25    2    1    2    0    0  0.52072890880E+02  0.61713666621E+02 -0.62588804958E+02  0.16150756146E+03  0.12508865372E+03 0.  0.
          5    1    3    3  502    0 -0.23143375003E+02  0.49760782957E+02  0.10313704113E+02  0.55996394702E+02  0.41800000000E+01 0. -1.
         -5    1    3    3    0  502  0.75216265883E+02  0.11952883664E+02 -0.72902509071E+02  0.10551116676E+03  0.41800000000E+01 0. -1.
        -11    1    1    2    0    0 -0.25056804089E+02  0.17912378130E+02 -0.82842721659E+01  0.31895546503E+02  0.00000000000E+00 0. -1.
         11    1    1    2    0    0 -0.27016086791E+02 -0.79626044751E+02 -0.57861150798E+02  0.10206903899E+03  0.00000000000E+00 0.  1.
</event>
<event>
 7    1  0.2842702E-009  0.1113951E+03  0.7561462E-02  0.1258008E+00
         -2   -1    0    0    0  501 -0.00000000000E+00  0.00000000000E+00  0.38115996147E+02  0.38115996147E+02  0.00000000000E+00 0. -1.
          2   -1    0    0  501    0  0.00000000000E+00 -0.00000000000E+00 -0.52599258962E+03  0.52599258962E+03  0.00000000000E+00 0.  1.
         25    2    1    2    0    0 -0.25125420811E+01  0.86569837476E+02 -0.32743296094E+03  0.36105332800E+03  0.12508601888E+03 0.  0.
          5    1    3    3  502    0  0.23573373483E+02  0.18255510092E+02 -0.25922581012E+03  0.26096831343E+03  0.41800000000E+01 0. -1.
         -5    1    3    3    0  502 -0.26085915564E+02  0.68314327384E+02 -0.68207150821E+02  0.10008501456E+03  0.41800000000E+01 0. -1.
        -11    1    1    2    0    0 -0.17152345999E+02 -0.96076801454E+02 -0.14972474850E+03  0.17872452284E+03  0.00000000000E+00 0.  1.
         11    1    1    2    0    0  0.19664888080E+02  0.95069639784E+01 -0.10718884037E+02  0.24330734931E+02  0.00000000000E+00 0. -1.
</event>
<event>
 7    1  0.2842702E-009  0.1061158E+03  0.7561462E-02  0.1267937E+00
          1   -1    0    0  501    0  0.00000000000E+00  0.00000000000E+00  0.95243379637E+03  0.95243379637E+03  0.00000000000E+00 0. -1.
         -1   -1    0    0    0  501 -0.00000000000E+00 -0.00000000000E+00 -0.16919330539E+02  0.16919330539E+02  0.00000000000E+00 0.  1.
         25    2    1    2    0    0 -0.22064700184E+02 -0.60653845023E+02  0.49193185267E+03  0.51167408123E+03  0.12509067843E+03 0.  0.
          5    1    3    3  502    0  0.14464539685E+02  0.12746435656E+02  0.32549307290E+03  0.32609033632E+03  0.41800000000E+01 0. -1.
         -5    1    3    3    0  502 -0.36529239868E+02 -0.73400280679E+02  0.16643877976E+03  0.18558374492E+03  0.41800000000E+01 0. -1.
        -11    1    1    2    0    0  0.57155874392E+02  0.38396005265E+02  0.22974594105E+03  0.23984212438E+03  0.00000000000E+00 0.  1.
         11    1    1    2    0    0 -0.35091174208E+02  0.22257839759E+02  0.21383667211E+03  0.21783692129E+03  0.00000000000E+00 0. -1.
</event>
<event>
 7    1  0.2842702E-009  0.1101427E+03  0.7561462E-02  0.1260306E+00
          1   -1    0    0  501    0  0.00000000000E+00  0.00000000000E+00  0.35261374543E+03  0.35261374543E+03  0.00000000000E+00 0. -1.
         -1   -1    0    0    0  501 -0.00000000000E+00 -0.00000000000E+00 -0.53912365265E+02  0.53912365265E+02  0.00000000000E+00 0.  1.
         25    2    1    2    0    0  0.50328949687E+02  0.69156197874E+02  0.14341121169E+03  0.20863851113E+03  0.12509064637E+03 0.  0.
          5    1    3    3  502    0  0.22074313710E+02 -0.24328121636E+02  0.92865508804E+02  0.98593143542E+02  0.41800000000E+01 0.  1.
         -5    1    3    3    0  502  0.28254635978E+02  0.93484319510E+02  0.50545702883E+02  0.11004536759E+03  0.41800000000E+01 0.  1.
        -11    1    1    2    0    0 -0.14555250980E+02 -0.42164342999E+02  0.98241041005E+01  0.45674940317E+02  0.00000000000E+00 0.  1.
         11    1    1    2    0    0 -0.35773698708E+02 -0.26991854875E+02  0.14546606438E+03  0.15221265925E+03  0.00000000000E+00 0. -1.
</event>
<event>
 7    1  0.2842702E-009  0.1795951E+03  0.7561462E-02  0.1168195E+00
         -1   -1    0    0    0  501 -0.00000000000E+00  0.00000000000E+00  0.10329556894E+03  0.10329556894E+03  0.00000000000E+00 0.  1.
          1   -1    0    0  501    0  0.00000000000E+00 -0.00000000000E+00 -0.44980597063E+03  0.44980597063E+03  0.00000000000E+00 0. -1.
         25    2    1    2    0    0 -0.13811339047E+03 -0.10625076563E+03 -0.26508740380E+03  0.34100655386E+03  0.12509837848E+03 0.  0.
          5    1    3    3  502    0 -0.11519664476E+03 -0.98276868064E+02 -0.11838600695E+03  0.19225329335E+03  0.41800000000E+01 0.  1.
         -5    1    3    3    0  502 -0.22916745711E+02 -0.79738975618E+01 -0.14670139685E+03  0.14875326051E+03  0.41800000000E+01 0.  1.
        -11    1    1    2    0    0  0.14016911810E+03  0.89705904303E+02 -0.45551354553E+02  0.17253827644E+03  0.00000000000E+00 0.  1.
         11    1    1    2    0    0 -0.20557276244E+01  0.16544861324E+02 -0.35871643339E+02  0.39556709268E+02  0.00000000000E+00 0. -1.
</event>
<event>
 7    1  0.2842702E-009  0.1816986E+03  0.7561462E-02  0.1166169E+00
         -2   -1    0    0    0  501 -0.00000000000E+00  0.00000000000E+00  0.18067831601E+03  0.18067831601E+03  0.00000000000E+00 0. -1.
          2   -1    0    0  501    0  0.00000000000E+00 -0.00000000000E+00 -0.28950825495E+03  0.28950825495E+03  0.00000000000E+00 0.  1.
         25    2    1    2    0    0 -0.27316137064E+01  0.15872463779E+03  0.70346845437E+02  0.21400663519E+03  0.12509671813E+03 0.  0.
          5    1    3    3  502    0  0.41022272910E+02  0.91106632380E+02 -0.95808195198E+01  0.10046148437E+03  0.41800000000E+01 0. -1.
         -5    1    3    3    0  502 -0.43753886616E+02  0.67618005410E+02  0.79927664957E+02  0.11354515082E+03  0.41800000000E+01 0. -1.
        -11    1    1    2    0    0 -0.10650944773E+02  0.93297769415E+01 -0.18420771845E+02  0.23233858864E+02  0.00000000000E+00 0.  1.
         11    1    1    2    0    0  0.13382558480E+02 -0.16805441473E+03 -0.16075601253E+03  0.23294607691E+03  0.00000000000E+00 0. -1.
</event>
<event>
 7    1  0.2842702E-009  0.1942623E+03  0.7561462E-02  0.1154672E+00
          3   -1    0    0  501    0  0.00000000000E+00  0.00000000000E+00  0.44140852356E+03  0.44140852356E+03  0.00000000000E+00 0. -1.
         -3   -1    0    0    0  501 -0.00000000000E+00 -0.00000000000E+00 -0.96716621712E+02  0.96716621712E+02  0.00000000000E+00 0.  1.
         25    2    1    2    0    0 -0.21393391700E+01  0.17300466485E+03  0.14232982686E+03  0.25659489821E+03  0.12509185163E+03 0.  0.
          5    1    3    3  502    0  0.34028381873E+02  0.16599222833E+03  0.88439630043E+02  0.19118156606E+03  0.41800000000E+01 0.  1.
         -5    1    3    3    0  502 -0.36167721043E+02  0.70124365258E+01  0.53890196815E+02  0.65413332159E+02  0.41800000000E+01 0.  1.
        -11    1    1    2    0    0  0.13446815629E+02 -0.16961407777E+03  0.20776784163E+03  0.26854651039E+03  0.00000000000E+00 0. -1.
         11    1    1    2    0    0 -0.11307476459E+02 -0.33905870766E+01 -0.54057666433E+01  0.12983736658E+02  0.00000000000E+00 0.  1.
</event>
<event>
 6    1  0.2842702E-009  0.7414363E+02  0.7561462E-02  0.1346544E+00
         -1   -1    0    0    0  501 -0.00000000000E+00  0.00000000000E+00  0.47737982922E+02  0.47737982922E+02  0.00000000000E+00 0.  1.
          1   -1    0    0  501    0  0.00000000000E+00 -0.00000000000E+00 -0.29170560708E+03  0.29170560708E+03  0.00000000000E+00 0. -1.
          5    1    1    2  502    0 -0.39380889096E+02 -0.17432713535E+02 -0.11651119545E+03  0.12428630251E+03  0.41800000000E+01 0.  1.
         -5    1    1    2    0  502  0.67848674425E+01  0.78464310031E+01  0.29766910098E+02  0.31798462895E+02  0.41800000000E+01 0.  1.
        -11    1    1    2    0    0  0.99858703739E+01 -0.38992893324E+02 -0.58119320671E+02  0.70696667334E+02  0.00000000000E+00 0.  1.
         11    1    1    2    0    0  0.22610151280E+02  0.48579175855E+02 -0.99104018130E+02  0.11266215725E+03  0.00000000000E+00 0. -1.
</event>
<event>
 7    1  0.2842702E-009  0.1348450E+03  0.7561462E-02  0.1220439E+00
          1   -1    0    0  501    0  0.00000000000E+00  0.00000000000E+00  0.51916219818E+03  0.51916219818E+03  0.00000000000E+00 0. -1.
         -1   -1    0    0    0  501 -0.00000000000E+00 -0.00000000000E+00 -0.38275883545E+02  0.38275883545E+02  0.00000000000E+00 0.  1.
         25    2    1    2    0    0  0.43910104420E+02 -0.69717779668E+02  0.32421202097E+03  0.35714048976E+03  0.12508888363E+03 0.  0.
          5    1    3    3  502    0  0.16225721556E+02 -0.10398115199E+03  0.23685768762E+03  0.25921880833E+03  0.41800000000E+01 0.  1.
         -5    1    3    3    0  502  0.27684382864E+02  0.34263372319E+02  0.87354333353E+02  0.97921681423E+02  0.41800000000E+01 0.  1.
        -11    1    1    2    0    0  0.68229490671E+01  0.69045756644E+02  0.62768465539E+02  0.93561473966E+02  0.00000000000E+00 0. -1.
         11    1    1    2    0    0 -0.50733053487E+02  0.67202302347E+00  0.93905828125E+02  0.10673611801E+03  0.00000000000E+00 0.  1.
</event>
<event>
 7    1  0.2842702E-009  0.1635638E+03  0.7561462E-02  0.1184731E+00
         -2   -1    0    0    0  501 -0.00000000000E+00  0.00000000000E+00  0.32070947467E+02  0.32070947467E+02  0.00000000000E+00 0.  1.
          2   -1    0    0  501    0  0.00000000000E+00 -0.00000000000E+00 -0.84889968688E+03  0.84889968688E+03  0.00000000000E+00 0. -1.
         25    2    1    2    0    0 -0.79438984425E+02  0.93521329793E+02 -0.47515119268E+03  0.50643237218E+03  0.12509316651E+03 0.  0.
          5    1    3    3  502    0 -0.10910810790E+03  0.47297114340E+02 -0.35063439715E+03  0.37027496418E+03  0.41800000000E+01 0. -1.
         -5    1    3    3    0  502  0.29669123478E+02  0.46224215453E+02 -0.12451679554E+03  0.13615740800E+03  0.41800000000E+01 0. -1.
        -11    1    1    2    0    0  0.97992644096E+02 -0.60473246907E+02 -0.24555057698E+03  0.27120961956E+03  0.00000000000E+00 0.  1.
         11    1    1    2    0    0 -0.18553659671E+02 -0.33048082886E+02 -0.96126969756E+02  0.10332864261E+03  0.00000000000E+00 0. -1.
</event>
<event>
 7    1  0.2842702E-009  0.9361815E+02  0.7561462E-02  0.1294319E+00
         -4   -1    0    0    0  501 -0.00000000000E+00  0.00000000000E+00  0.81864990578E+02  0.81864990578E+02  0.00000000000E+00 0.  1.
          4   -1    0    0  501    0  0.00000000000E+00 -0.00000000000E+00 -0.17140002766E+03  0.17140002766E+03  0.00000000000E+00 0. -1.
         25    2    1    2    0    0  0.12939074662E+02  0.29697409555E+02 -0.13739479782E+02  0.12993988039E+03  0.12508494483E+03 0.  0.
          5    1    3    3  502    0 -0.91735996015E+01  0.68750652193E+02  0.21489081931E+02  0.72732799677E+02  0.41800000000E+01 0. -1.
         -5    1    3    3    0  502  0.22112674264E+02 -0.39053242638E+02 -0.35228561713E+02  0.57207080716E+02  0.41800000000E+01 0. -1.
        -11    1    1    2    0    0 -0.39418000840E+02 -0.21805255072E+02 -0.83294610775E+02  0.94695512687E+02  0.00000000000E+00 0. -1.
         11    1    1    2    0    0  0.26478926178E+02 -0.78921544834E+01  0.74990534714E+01  0.28629625161E+02  0.00000000000E+00 0.  1.
</event>
<event>
 7    1  0.2842702E-009  0.1077263E+03  0.7561462E-02  0.1264839E+00
          1   -1    0    0  501    0  0.00000000000E+00  0.00000000000E+00  0.17119438236E+02  0.17119438236E+02  0.00000000000E+00 0. -1.
         -1   -1    0    0    0  501 -0.00000000000E+00 -0.00000000000E+00 -0.77398169651E+03  0.77398169651E+03  0.00000000000E+00 0.  1.
         25    2    1    2    0    0 -0.36670130700E+01  0.34475939747E+02 -0.51532785238E+03  0.53142393745E+03  0.12508624407E+03 0.  0.
          5    1    3    3  502    0  0.49792475379E+02 -0.12899110218E+02 -0.13717205038E+03  0.14655825277E+03  0.41800000000E+01 0.  1.
         -5    1    3    3    0  502 -0.53459488449E+02  0.47375049965E+02 -0.37815580199E+03  0.38486568468E+03  0.41800000000E+01 0.  1.
        -11    1    1    2    0    0  0.19062342725E+02 -0.59740704882E+02 -0.13074545649E+03  0.14500585893E+03  0.00000000000E+00 0. -1.
         11    1    1    2    0    0 -0.15395329655E+02  0.25264765135E+02 -0.11078894941E+03  0.11467133837E+03  0.00000000000E+00 0.  1.
</event>
<event>
 7    1  0.2842702E-009  0.1294578E+03  0.7561462E-02  0.1228262E+00
         -1   -1    0    0    0  501 -0.00000000000E+00  0.00000000000E+00  0.28259584428E+02  0.28259584428E+02  0.00000000000E+00 0.  1.
          1   -1    0    0  501    0  0.00000000000E+00 -0.00000000000E+00 -0.84278678758E+03  0.84278678758E+03  0.00000000000E+00 0. -1.
         25    2    1    2    0    0  0.77935183443E+02  0.27309345949E+02 -0.64603539142E+03  0.66319481124E+03  0.12508372191E+03 0.  0.
          5    1    3    3  502    0  0.19456731658E+00  0.57777103194E+02 -0.16322347423E+03  0.17319817104E+03  0.41800000000E+01 0.  1.
         -5    1    3    3    0  502  0.77740616126E+02 -0.30467757245E+02 -0.48281191719E+03  0.48999664020E+03  0.41800000000E+01 0.  1.
        -11    1    1    2    0    0 -0.19434374379E+02  0.29834487988E+02 -0.28020395042E+02  0.45309316032E+02  0.00000000000E+00 0.  1.
         11    1    1    2    0    0 -0.58500809064E+02 -0.57143833937E+02 -0.14047141669E+03  0.16254224474E+03  0.00000000000E+00 0. -1.
</event>
<event>
 7    1  0.2842702E-009  0.8860659E+02  0.7561462E-02  0.1306262E+00
          2   -1    0    0  501    0  0.00000000000E+00  0.00000000000E+00  0.10495795692E+04  0.10495795692E+04  0.00000000000E+00 0. -1.
         -2   -1    0    0    0  501 -0.00000000000E+00 -0.00000000000E+00 -0.22135380315E+02  0.22135380315E+02  0.00000000000E+00 0.  1.
         25    2    1    2    0    0 -0.23717824845E+02 -0.15797880858E+01  0.91770464414E+03  0.92649600125E+03  0.12509194817E+03 0.  0.
          5    1    3    3  502    0 -0.35495309628E+02  0.41050022653E+02  0.77792734442E+03  0.77982911395E+03  0.41800000000E+01 0.  1.
         -5    1    3    3    0  502  0.11777484782E+02 -0.42629810739E+02  0.13977729972E+03  0.14666688729E+03  0.41800000000E+01 0.  1.
        -11    1    1    2    0    0  0.45231899559E+02  0.20546328321E+02  0.24716088544E+02  0.55488389579E+02  0.00000000000E+00 0.  1.
         11    1    1    2    0    0 -0.21514074714E+02 -0.18966540235E+02  0.85023456230E+02  0.89730558722E+02  0.00000000000E+00 0. -1.
</event>
<event>
 7    1  0.2842702E-009  0.3147319E+03  0.7561462E-02  0.1078100E+00
          1   -1    0    0  501    0  0.00000000000E+00  0.00000000000E+00  0.10486586711E+04  0.10486586711E+04  0.00000000000E+00 0. -1.
         -1   -1    0    0    0  501 -0.00000000000E+00 -0.00000000000E+00 -0.94949455381E+02  0.94949455381E+02  0.00000000000E+00 0.  1.
         25    2    1    2    0    0  0.20170301191E+03  0.21622347166E+03  0.49950920173E+03  0.59379615957E+03  0.12509093412E+03 0.  0.
          5    1    3    3  502    0  0.14705851106E+03  0.68552799377E+02  0.22730296150E+03  0.27930234637E+03  0.41800000000E+01 0.  1.
         -5    1    3    3    0  502  0.54644500848E+02  0.14767067228E+03  0.27220624022E+03  0.31449381320E+03  0.41800000000E+01 0.  1.
        -11    1    1    2    0    0 -0.42105465741E+02 -0.11038670967E+03  0.18260813343E+03  0.21749442823E+03  0.00000000000E+00 0. -1.
         11    1    1    2    0    0 -0.15959754617E+03 -0.10583676199E+03  0.27159188060E+03  0.33231753872E+03  0.00000000000E+00 0.  1.
</event>
<event>
 7    1  0.2842702E-009  0.1391551E+03  0.7561462E-02  0.1214470E+00
         -1   -1    0    0    0  501 -0.00000000000E+00  0.00000000000E+00  0.66754705620E+02  0.66754705620E+02  0.00000000000E+00 0.  1.
          1   -1    0    0  501    0  0.00000000000E+00 -0.00000000000E+00 -0.40192573421E+03  0.40192573421E+03  0.00000000000E+00 0. -1.
         25    2    1    2    0    0 -0.45056005335E+02 -0.10705296663E+03 -0.18161066506E+03  0.24924020092E+03  0.12509141781E+03 0.  0.
          5    1    3    3  502    0 -0.35923160889E+02 -0.40198774374E+02 -0.17280150871E+03  0.18106421171E+03  0.41800000000E+01 0.  1.
         -5    1    3    3    0  502 -0.91328444463E+01 -0.66854192252E+02 -0.88091563502E+01  0.68175989211E+02  0.41800000000E+01 0.  1.
        -11    1    1    2    0    0  0.78642521917E+02  0.87994920560E+02 -0.11942705291E+03  0.16790048620E+03  0.00000000000E+00 0.  1.
         11    1    1    2    0    0 -0.33586516581E+02  0.19058046066E+02 -0.34133310616E+02  0.51539752711E+02  0.00000000000E+00 0. -1.
</event>
<event>
 7    1  0.2842702E-009  0.1074960E+03  0.7561462E-02  0.1265279E+00
         -1   -1    0    0    0  501 -0.00000000000E+00  0.00000000000E+00  0.10689507196E+03  0.10689507196E+03  0.00000000000E+00 0.  1.
          1   -1    0    0  501    0  0.00000000000E+00 -0.00000000000E+00 -0.22362279098E+03  0.22362279098E+03  0.00000000000E+00 0. -1.
         25    2    1    2    0    0  0.12338333191E+02 -0.35606055803E+02 -0.17836965234E+03  0.22109493147E+03  0.12508880913E+03 0.  0.
          5    1    3    3  502    0  0.58172408272E+02 -0.49515534274E+02 -0.14015837767E+03  0.15967986865E+03  0.41800000000E+01 0.  1.
         -5    1    3    3    0  502 -0.45834075081E+02  0.13909478471E+02 -0.38211274666E+02  0.61415062822E+02  0.41800000000E+01 0.  1.
        -11    1    1    2    0    0 -0.16602883212E+02  0.61735824770E+02  0.44018203887E+02  0.77618103973E+02  0.00000000000E+00 0. -1.
         11    1    1    2    0    0  0.42645500210E+01 -0.26129768967E+02  0.17623729429E+02  0.31804827497E+02  0.00000000000E+00 0.  1.
</event>
<event>
 7    1  0.2842702E-009  0.2081735E+03  0.7561462E-02  0.1143021E+00
          2   -1    0    0  501    0  0.00000000000E+00  0.00000000000E+00  0.10750057035E+04  0.10750057035E+04  0.00000000000E+00 0. -1.
         -2   -1    0    0    0  501 -0.00000000000E+00 -0.00000000000E+00 -0.59753922756E+02  0.59753922756E+02  0.00000000000E+00 0.  1.
         25    2    1    2    0    0 -0.13224496986E+03 -0.14753135405E+03  0.77931567321E+03  0.81377853291E+03  0.12509336367E+03 0.  0.
          5    1    3    3  502    0 -0.41544036685E+02  0.33466037192E+01  0.59687993588E+02  0.72919378214E+02  0.41800000000E+01 0.  1.
         -5    1    3    3    0  502 -0.90700933176E+02 -0.15087795777E+03  0.71962767963E+03  0.74085915470E+03  0.41800000000E+01 0.  1.
        -11    1    1    2    0    0  0.31802260062E+02  0.41938054290E+02  0.12299805741E+02  0.54050618534E+02  0.00000000000E+00 0.  1.
         11    1    1    2    0    0  0.10044270980E+03  0.10559329976E+03  0.22363630183E+03  0.26693047485E+03  0.00000000000E+00 0. -1.
</event>
<event>
 7    1  0.2842702E-009  0.1085389E+03  0.7561462E-02  0.1263300E+00
         -1   -1    0    0    0  501 -0.00000000000E+00  0.00000000000E+00  0.35941290057E+02  0.35941290057E+02  0.00000000000E+00 0.  1.
          1   -1    0    0  501    0  0.00000000000E+00 -0.00000000000E+00 -0.45480149060E+03  0.45480149060E+03  0.00000000000E+00 0. -1.
         25    2    1    2    0    0  0.52070692205E+01  0.42437347430E+02 -0.33584756682E+03  0.36093007293E+03  0.12509551304E+03 0.  0.
          5    1    3    3  502    0 -0.21743361767E+02 -0.31588388552E+02 -0.20127651346E+03  0.20493976515E+03  0.41800000000E+01 0. -1.
         -5    1    3    3    0  502  0.26950430988E+02  0.74025735983E+02 -0.13457105336E+03  0.15599030778E+03  0.41800000000E+01 0. -1.
        -11    1    1    2    0    0 -0.47566763120E+02 -0.19180577366E+02 -0.46723091851E+02  0.69379671474E+02  0.00000000000E+00 0.  1.
         11    1    1    2    0    0  0.42359693899E+02 -0.23256770064E+02 -0.36289541877E+02  0.60433036253E+02  0.00000000000E+00 0. -1.
</event>
<event>
 7    1  0.2842702E-009  0.1512922E+03  0.7561462E-02  0.1198894E+00
         -4   -1    0    0    0  501 -0.00000000000E+00  0.00000000000E+00  0.10978533004E+03  0.10978533004E+03  0.00000000000E+00 0.  1.
          4   -1    0    0  501    0  0.00000000000E+00 -0.00000000000E+00 -0.28648119401E+03  0.28648119401E+03  0.00000000000E+00 0. -1.
         25    2    1    2    0    0  0.98535728753E+02  0.47855437867E+02 -0.21885918944E+01  0.16628291208E+03  0.12508310894E+03 0.  0.
          5    1    3    3  502    0  0.94086496307E+02  0.84982862492E+02 -0.11938843420E+02  0.12741414398E+03  0.41800000000E+01 0. -1.
         -5    1    3    3    0  502  0.44492324464E+01 -0.37127424625E+02  0.97502515252E+01  0.38868768098E+02  0.41800000000E+01 0. -1.
        -11    1    1    2    0    0 -0.24940956270E+01 -0.41798142461E+02 -0.99567056162E+02  0.10801344314E+03  0.00000000000E+00 0. -1.
         11    1    1    2    0    0 -0.96041633126E+02 -0.60572954066E+01 -0.74940215916E+02  0.12197016882E+03  0.00000000000E+00 0.  1.
</event>
<event>
 7    1  0.2842702E-009  0.1245139E+03  0.7561462E-02  0.1235831E+00
         -2   -1    0    0    0  501 -0.00000000000E+00  0.00000000000E+00  0.13041294378E+03  0.13041294378E+03  0.00000000000E+00 0.  1.
          2   -1    0    0  501    0  0.00000000000E+00 -0.00000000000E+00 -0.29451849440E+03  0.29451849440E+03  0.00000000000E+00 0. -1.
         25    2    1    2    0    0 -0.24929398309E+02 -0.86181023321E+02  0.62025048231E+02  0.16595675659E+03  0.12508355116E+03 0.  0.
          5    1    3    3  502    0 -0.10033649440E+02 -0.10954880327E+03  0.14848143113E+02  0.11108354591E+03  0.41800000000E+01 0. -1.
         -5    1    3    3    0  502 -0.14895748869E+02  0.23367779948E+02  0.47176905117E+02  0.54873210682E+02  0.41800000000E+01 0. -1.
        -11    1    1    2    0    0  0.46301128098E+02  0.45246574957E+02 -0.18881305520E+03  0.19960314833E+03  0.00000000000E+00 0. -1.
         11    1    1    2    0    0 -0.21371729789E+02  0.40934448364E+02 -0.37317543646E+02  0.59371533253E+02  0.00000000000E+00 0.  1.
</event>
<event>
 7    1  0.2842702E-009  0.1029592E+03  0.7561462E-02  0.1274193E+00
          1   -1    0    0  501    0  0.00000000000E+00  0.00000000000E+00  0.50451187207E+02  0.50451187207E+02  0.00000000000E+00 0. -1.
         -1   -1    0    0    0  501 -0.00000000000E+00 -0.00000000000E+00 -0.22339744408E+03  0.22339744408E+03  0.00000000000E+00 0.  1.
         25    2    1    2    0    0  0.50278239706E+01 -0.30108010765E+00 -0.94077921150E+02  0.15659943248E+03  0.12508939740E+03 0.  0.
          5    1    3    3  502    0 -0.51063252832E+02  0.25650628622E+02 -0.21540967804E+02  0.61211896168E+02  0.41800000000E+01 0. -1.
         -5    1    3    3    0  502  0.56091076803E+02 -0.25951708730E+02 -0.72536953346E+02  0.95387536312E+02  0.41800000000E+01 0. -1.
        -11    1    1    2    0    0 -0.44409896180E+02 -0.10909996872E+02 -0.44152187106E+02  0.63566363249E+02  0.00000000000E+00 0.  1.
         11    1    1    2    0    0  0.39382072210E+02  0.11211076980E+02 -0.34716148612E+02  0.53682835553E+02  0.00000000000E+00 0. -1.
</event>
<event>
 7    1  0.2842702E-009  0.1007250E+03  0.7561462E-02  0.1278779E+00
         -1   -1    0    0    0  501 -0.00000000000E+00  0.00000000000E+00  0.25978873813E+02  0.25978873813E+02  0.00000000000E+00 0.  1.
          1   -1    0    0  501    0  0.00000000000E+00 -0.00000000000E+00 -0.49664810284E+03  0.49664810284E+03  0.00000000000E+00 0. -1.
         25    2    1    2    0    0 -0.12276731173E+02 -0.30492835763E+02 -0.29000143597E+03  0.31753563053E+03  0.12509001810E+03 0.  0.
          5    1    3    3  502    0  0.24858141564E+02  0.39718372998E+02 -0.77779525945E+02  0.90898863644E+02  0.41800000000E+01 0.  1.
         -5    1    3    3    0  502 -0.37134872738E+02 -0.70211208761E+02 -0.21222191002E+03  0.22663676688E+03  0.41800000000E+01 0.  1.
        -11    1    1    2    0    0  0.27780486544E+02  0.45489415575E+02 -0.51437668704E+02  0.74073450869E+02  0.00000000000E+00 0.  1.
         11    1    1    2    0    0 -0.15503755371E+02 -0.14996579811E+02 -0.12923012436E+03  0.13101789526E+03  0.00000000000E+00 0. -1.
</event>
<event>
 7    1  0.2912873E-009  0.1059980E+03  0.7561462E-02  0.1268166E+00
          1   -1    0    0  501    0  0.00000000000E+00  0.00000000000E+00  0.37346241562E+03  0.37346241562E+03  0.00000000000E+00 0. -1.
         -1   -1    0    0    0  501 -0.00000000000E+00 -0.00000000000E+00 -0.46239421398E+02  0.46239421398E+02  0.00000000000E+00 0.  1.
         25    2    1    2    0    0 -0.23361269632E+02 -0.29007913162E+02  0.79155891707E+02  0.15264806135E+03  0.12509423447E+03 0.  0.
          5    1    3    3  502    0 -0.49408133683E+02  0.34338490804E+02  0.48933465392E+02  0.77667574057E+02  0.41800000000E+01 0. -1.
         -5    1    3    3    0  502  0.26046864051E+02 -0.63346403965E+02  0.30222426315E+02  0.74980487292E+02  0.41800000000E+01 0. -1.
        -11    1    1    2    0    0  0.25580497514E+02 -0.20944167515E+02  0.34788154852E+02  0.47992038131E+02  0.00000000000E+00 0.  1.
         11    1    1    2    0    0 -0.22192278822E+01  0.49952080676E+02  0.21327894766E+03  0.21906173754E+03  0.00000000000E+00 0. -1.
</event>
<event>
 7    1  0.2842702E-009  0.1026622E+03  0.7561462E-02  0.1274795E+00
         -2   -1    0    0    0  501 -0.00000000000E+00  0.00000000000E+00  0.28816012742E+02  0.28816012742E+02  0.00000000000E+00 0.  1.
          2   -1    0    0  501    0  0.00000000000E+00 -0.00000000000E+00 -0.57997433040E+03  0.57997433040E+03  0.00000000000E+00 0. -1.
         25    2    1    2    0    0 -0.37570381802E+02  0.28353917064E+02 -0.43729174724E+03  0.45726004426E+03  0.12508875916E+03 0.  0.
          5    1    3    3  502    0 -0.59172673701E+01  0.75671287203E+02 -0.27004892395E+03  0.28054420594E+03  0.41800000000E+01 0. -1.
         -5    1    3    3    0  502 -0.31653114432E+02 -0.47317370139E+02 -0.16724282329E+03  0.17671583832E+03  0.41800000000E+01 0. -1.
        -11    1    1    2    0    0  0.90739264169E+01  0.16647759531E+02  0.63878407834E+01  0.20007212397E+02  0.00000000000E+00 0.  1.
         11    1    1    2    0    0  0.28496455385E+02 -0.45001676595E+02 -0.12025441120E+03  0.13152308649E+03  0.00000000000E+00 0. -1.
</event>
<event>
 7    1  0.2842702E-009  0.1038011E+03  0.7561462E-02  0.1272500E+00
         -3   -1    0    0    0  501 -0.00000000000E+00  0.00000000000E+00  0.31968372623E+03  0.31968372623E+03  0.00000000000E+00 0.  1.
          3   -1    0    0  501    0  0.00000000000E+00 -0.00000000000E+00 -0.40716467258E+02  0.40716467258E+02  0.00000000000E+00 0. -1.
         25    2    1    2    0    0 -0.14585209126E+02  0.42070090087E+02  0.12245006284E+03  0.18062172926E+03  0.12509024897E+03 0.  0.
          5    1    3    3  502    0  0.46948896202E+02  0.49234280016E+02  0.46446538712E+02  0.82480097851E+02  0.41800000000E+01 0. -1.
         -5    1    3    3    0  502 -0.61534105328E+02 -0.71641899289E+01  0.76003524129E+02  0.98141631411E+02  0.41800000000E+01 0. -1.
        -11    1    1    2    0    0  0.17418773072E+02  0.13296269714E+02  0.92649472313E+02  0.95205720225E+02  0.00000000000E+00 0.  1.
         11    1    1    2    0    0 -0.28335639462E+01 -0.55366359801E+02  0.63867723821E+02  0.84572744004E+02  0.00000000000E+00 0. -1.
</event>
<event>
 7    1  0.2842702E-009  0.1655788E+03  0.7561462E-02  0.1182539E+00
          1   -1    0    0  501    0  0.00000000000E+00  0.00000000000E+00  0.16477466781E+04  0.16477466781E+04  0.00000000000E+00 0. -1.
         -1   -1    0    0    0  501 -0.00000000000E+00 -0.00000000000E+00 -0.20491460652E+02  0.20491460652E+02  0.00000000000E+00 0.  1.
         25    2    1    2    0    0  0.11137629025E+03 -0.85363432965E+02  0.10846674980E+04  0.11008371257E+04  0.12508877758E+03 0.  0.
          5    1    3    3  502    0  0.82849755736E+02 -0.86530131372E+01  0.28420519402E+03  0.29619085294E+03  0.41800000000E+01 0.  1.
         -5    1    3    3    0  502  0.28526534516E+02 -0.76710419828E+02  0.80046230400E+03  0.80464627272E+03  0.41800000000E+01 0.  1.
        -11    1    1    2    0    0 -0.50447944418E+02 -0.11150964890E+02  0.18067767429E+03  0.18791956019E+03  0.00000000000E+00 0.  1.
         11    1    1    2    0    0 -0.60928345834E+02  0.96514397855E+02  0.36191004515E+03  0.37948145290E+03  0.00000000000E+00 0. -1.
</event>
<event>
 7    1  0.2842702E-009  0.1253113E+03  0.7561462E-02  0.1234584E+00
          2   -1    0    0  501    0  0.00000000000E+00  0.00000000000E+00  0.10987283586E+04  0.10987283586E+04  0.00000000000E+00 0. -1.
         -2   -1    0    0    0  501 -0.00000000000E+00 -0.00000000000E+00 -0.23391120670E+02  0.23391120670E+02  0.00000000000E+00 0.  1.
         25    2    1    2    0    0  0.64752080248E+02  0.78957989140E+02  0.80119649724E+03  0.81730763592E+03  0.12509495832E+03 0.  0.
          5    1    3    3  502    0  0.23187602895E+02  0.94766072222E+02  0.69884994312E+03  0.70563941838E+03  0.41800000000E+01 0.  1.
         -5    1    3    3    0  502  0.41564477353E+02 -0.15808083081E+02  0.10234655412E+03  0.11166821754E+03  0.41800000000E+01 0.  1.
        -11    1    1    2    0    0 -0.29311586688E+02 -0.62906714380E+02  0.76131799473E+02  0.10301686619E+03  0.00000000000E+00 0.  1.
         11    1    1    2    0    0 -0.35440493560E+02 -0.16051274761E+02  0.19800894117E+03  0.20179497711E+03  0.00000000000E+00 0. -1.
</event>
<event>
 7    1  0.2842702E-009  0.2401984E+03  0.7561462E-02  0.1119661E+00
         -2   -1    0    0    0  501 -0.00000000000E+00  0.00000000000E+00  0.60600718686E+02  0.60600718686E+02  0.00000000000E+00 0.  1.
          2   -1    0    0  501    0  0.00000000000E+00 -0.00000000000E+00 -0.97502696693E+03  0.97502696693E+03  0.00000000000E+00 0. -1.
         25    2    1    2    0    0 -0.98194551735E+02  0.19163357109E+03 -0.39735377511E+03  0.46893880817E+03  0.12509191684E+03 0.  0.
          5    1    3    3  502    0 -0.91990116816E+01  0.15006916608E+03 -0.22886081111E+03  0.27386149727E+03  0.41800000000E+01 0.  1.
         -5    1    3    3    0  502 -0.88995540053E+02  0.41564405016E+02 -0.16849296400E+03  0.19507731090E+03  0.41800000000E+01 0.  1.
        -11    1    1    2    0    0  0.23579489748E+02 -0.13746183015E+03 -0.29929810308E+03  0.33019857902E+03  0.00000000000E+00 0.  1.
         11    1    1    2    0    0  0.74615061987E+02 -0.54171740944E+02 -0.21777437006E+03  0.23649029842E+03  0.00000000000E+00 0. -1.
</event>
<event>
 7    1  0.2842702E-009  0.1843622E+03  0.7561462E-02  0.1163647E+00
         -2   -1    0    0    0  501 -0.00000000000E+00  0.00000000000E+00  0.22549314240E+03  0.22549314240E+03  0.00000000000E+00 0.  1.
          2   -1    0    0  501    0  0.00000000000E+00 -0.00000000000E+00 -0.18187264154E+03  0.18187264154E+03  0.00000000000E+00 0. -1.
         25    2    1    2    0    0 -0.12219935039E+03  0.10368712647E+03 -0.37836169379E+02  0.20678211204E+03  0.12507423683E+03 0.  0.
          5    1    3    3  502    0 -0.94635192294E+02  0.12318758381E+03 -0.59554353544E+02  0.16641873047E+03  0.41800000000E+01 0. -1.
         -5    1    3    3    0  502 -0.27564158098E+02 -0.19500457348E+02  0.21718184165E+02  0.40363381571E+02  0.41800000000E+01 0. -1.
        -11    1    1    2    0    0  0.10849541130E+03 -0.11744256088E+03  0.84638508535E+02  0.18090795037E+03  0.00000000000E+00 0.  1.
         11    1    1    2    0    0  0.13703939093E+02  0.13755434419E+02 -0.31818382999E+01  0.19675721529E+02  0.00000000000E+00 0. -1.
</event>
<event>
 7    1  0.2842702E-009  0.1117632E+03  0.7561462E-02  0.1257339E+00
         -1   -1    0    0    0  501 -0.00000000000E+00  0.00000000000E+00  0.49871837287E+02  0.49871837287E+02  0.00000000000E+00 0.  1.
          1   -1    0    0  501    0  0.00000000000E+00 -0.00000000000E+00 -0.33292236501E+03  0.33292236501E+03  0.00000000000E+00 0. -1.
         25    2    1    2    0    0  0.35425926814E+02  0.44244540299E+02 -0.97187099613E+02  0.16824245976E+03  0.12509043647E+03 0.  0.
          5    1    3    3  502    0  0.65987706653E+02 -0.12201387193E+02 -0.25455222916E+02  0.71893616215E+02  0.41800000000E+01 0. -1.
         -5    1    3    3    0  502 -0.30561779838E+02  0.56445927492E+02 -0.71731876697E+02  0.96348843542E+02  0.41800000000E+01 0. -1.
        -11    1    1    2    0    0 -0.18778750130E+02  0.18912202841E+02 -0.11554928765E+03  0.11858309639E+03  0.00000000000E+00 0.  1.
         11    1    1    2    0    0 -0.16647176684E+02 -0.63156743140E+02 -0.70314140455E+02  0.95968646148E+02  0.00000000000E+00 0. -1.
</event>
<event>
 7    1  0.2842702E-009  0.1458896E+03  0.7561462E-02  0.1205617E+00
         -2   -1    0    0    0  501 -0.00000000000E+00  0.00000000000E+00  0.52141755205E+02  0.52141755205E+02  0.00000000000E+00 0.  1.
          2   -1    0    0  501    0  0.00000000000E+00 -0.00000000000E+00 -0.51037047551E+03  0.51037047551E+03  0.00000000000E+00 0. -1.
         25    2    1    2    0    0 -0.10760622812E+03 -0.27768036111E+02 -0.16229847858E+03  0.23313483865E+03  0.12514348837E+03 0.  0.
          5    1    3    3  502    0 -0.86288947816E+02 -0.73828693238E+02 -0.91364249387E+02  0.14581274610E+03  0.41800000000E+01 0.  1.
         -5    1    3    3    0  502 -0.21317280309E+02  0.46060657127E+02 -0.70934229193E+02  0.87322092542E+02  0.41800000000E+01 0.  1.
        -11    1    1    2    0    0  0.74016129575E+02  0.47794781465E+02 -0.26576259712E+03  0.27998658289E+03  0.00000000000E+00 0. -1.
         11    1    1    2    0    0  0.33590098550E+02 -0.20026745354E+02 -0.30167644613E+02  0.49390809181E+02  0.00000000000E+00 0.  1.
</event>
<event>
 7    1  0.2842702E-009  0.1878733E+03  0.7561462E-02  0.1160394E+00
          2   -1    0    0  501    0  0.00000000000E+00  0.00000000000E+00  0.64696414710E+03  0.64696414710E+03  0.00000000000E+00 0. -1.
         -2   -1    0    0    0  501 -0.00000000000E+00 -0.00000000000E+00 -0.73984035198E+02  0.73984035198E+02  0.00000000000E+00 0.  1.
         25    2    1    2    0    0 -0.10142189922E+02 -0.16999260602E+03  0.43664522996E+03  0.48508392510E+03  0.12508799874E+03 0.  0.
          5    1    3    3  502    0 -0.57509043029E+02 -0.12169878019E+03  0.35045438423E+03  0.37543791891E+03  0.41800000000E+01 0.  1.
         -5    1    3    3    0  502  0.47366853107E+02 -0.48293825832E+02  0.86190845736E+02  0.10964600620E+03  0.41800000000E+01 0.  1.
        -11    1    1    2    0    0 -0.54896411321E+01  0.13339902506E+03  0.14286456555E+03  0.19553956156E+03  0.00000000000E+00 0.  1.
         11    1    1    2    0    0  0.15631831054E+02  0.36593580962E+02 -0.65296836090E+01  0.40324695631E+02  0.00000000000E+00 0. -1.
</event>
<event>
 7    1  0.2842702E-009  0.1000324E+03  0.7561462E-02  0.1280228E+00
         -1   -1    0    0    0  501 -0.00000000000E+00  0.00000000000E+00  0.10703794771E+03  0.10703794771E+03  0.00000000000E+00 0.  1.
          1   -1    0    0  501    0  0.00000000000E+00 -0.00000000000E+00 -0.19053430035E+03  0.19053430035E+03  0.00000000000E+00 0. -1.
         25    2    1    2    0    0  0.61643971283E+01  0.94125881966E+02 -0.30024856572E+02  0.15952623697E+03  0.12509774907E+03 0.  0.
          5    1    3    3  502    0 -0.87245767785E+01  0.17159526544E+00  0.40113551999E+02  0.41263993249E+02  0.41800000000E+01 0.  1.
         -5    1    3    3    0  502  0.14888973907E+02  0.93954286701E+02 -0.70138408571E+02  0.11826224372E+03  0.41800000000E+01 0.  1.
        -11    1    1    2    0    0 -0.68591896486E+01 -0.22068856605E+02  0.23255521497E+02  0.32785701068E+02  0.00000000000E+00 0. -1.
         11    1    1    2    0    0  0.69479252031E+00 -0.72057025362E+02 -0.76727017564E+02  0.10526031002E+03  0.00000000000E+00 0.  1.
</event>
<event>
 7    1  0.2842702E-009  0.9178397E+02  0.7561462E-02  0.1298588E+00
         -1   -1    0    0    0  501 -0.00000000000E+00  0.00000000000E+00  0.33989589382E+02  0.33989589382E+02  0.00000000000E+00 0.  1.
          1   -1    0    0  501    0  0.00000000000E+00 -0.00000000000E+00 -0.46308522503E+03  0.46308522503E+03  0.00000000000E+00 0. -1.
         25    2    1    2    0    0 -0.48461544781E+02  0.36777452236E+02 -0.27988975305E+03  0.31254852508E+03  0.12508878586E+03 0.  0.
          5    1    3    3  502    0 -0.59385734789E+02 -0.64512685147E+01 -0.49052610653E+02  0.77407463295E+02  0.41800000000E+01 0.  1.
         -5    1    3    3    0  502  0.10924190009E+02  0.43228720751E+02 -0.23083714240E+03  0.23514106178E+03  0.41800000000E+01 0.  1.
        -11    1    1    2    0    0  0.32876890434E+02  0.59604310657E+01 -0.13155391511E+03  0.13573079696E+03  0.00000000000E+00 0. -1.
         11    1    1    2    0    0  0.15584654347E+02 -0.42737883302E+02 -0.17651967493E+02  0.48795492380E+02  0.00000000000E+00 0.  1.
</event>
<event>
 7    1  0.2842702E-009  0.1081860E+03  0.7561462E-02  0.1263966E+00
          2   -1    0    0  501    0  0.00000000000E+00  0.00000000000E+00  0.31333518638E+03  0.31333518638E+03  0.00000000000E+00 0. -1.
         -2   -1    0    0    0  501 -0.00000000000E+00 -0.00000000000E+00 -0.71005895467E+02  0.71005895467E+02  0.00000000000E+00 0.  1.
         25    2    1    2    0    0 -0.92317181197E+02 -0.41544437851E+02  0.14391597304E+03  0.21588832693E+03  0.12509020804E+03 0.  0.
          5    1    3    3  502    0 -0.49588323679E+02  0.24710011270E+01  0.14610055788E+03  0.15436305615E+03  0.41800000000E+01 0. -1.
         -5    1    3    3    0  502 -0.42728857518E+02 -0.44015438978E+02 -0.21845848413E+01  0.61525270777E+02  0.41800000000E+01 0. -1.
        -11    1    1    2    0    0  0.65856889729E+02  0.14925130290E+02  0.49189358915E+01  0.67705873965E+02  0.00000000000E+00 0.  1.
         11    1    1    2    0    0  0.26460291467E+02  0.26619307561E+02  0.93494381983E+02  0.10074688095E+03  0.00000000000E+00 0. -1.
</event>
<event>
 7    1  0.2842702E-009  0.1043846E+03  0.7561462E-02  0.1271337E+00
         -1   -1    0    0    0  501 -0.00000000000E+00  0.00000000000E+00  0.14221394942E+03  0.14221394942E+03  0.00000000000E+00 0.  1.
          1   -1    0    0  501    0  0.00000000000E+00 -0.00000000000E+00 -0.10545043050E+03  0.10545043050E+03  0.00000000000E+00 0. -1.
         25    2    1    2    0    0 -0.83672209322E+01 -0.21582604067E+02 -0.33905035498E+02  0.13165730758E+03  0.12509306944E+03 0.  0.
          5    1    3    3  502    0  0.50068828437E+02  0.14243281028E+02  0.54530658785E+01  0.52506827775E+02  0.41800000000E+01 0.  1.
         -5    1    3    3    0  502 -0.58436049369E+02 -0.35825885095E+02 -0.39358101377E+02  0.79150479801E+02  0.41800000000E+01 0.  1.
        -11    1    1    2    0    0 -0.36733629836E+02  0.21912728845E+02  0.17315942703E+02  0.46145087691E+02  0.00000000000E+00 0. -1.
         11    1    1    2    0    0  0.45100850768E+02 -0.33012477787E+00  0.53352611715E+02  0.69861984649E+02  0.00000000000E+00 0.  1.
</event>
<event>
 7    1  0.2842702E-009  0.1519703E+03  0.7561462E-02  0.1198073E+00
         -1   -1    0    0    0  501 -0.00000000000E+00  0.00000000000E+00  0.12804487727E+03  0.12804487727E+03  0.00000000000E+00 0.  1.
          1   -1    0    0  501    0  0.00000000000E+00 -0.00000000000E+00 -0.22204662074E+03  0.22204662074E+03  0.00000000000E+00 0. -1.
         25    2    1    2    0    0 -0.10333399375E+03 -0.34425382130E+02  0.21942226168E+02  0.16730625104E+03  0.12508756593E+03 0.  0.
          5    1    3    3  502    0 -0.12572540335E+03 -0.52448618175E+02  0.12974032305E+02  0.13690702141E+03  0.41800000000E+01 0.  1.
         -5    1    3    3    0  502  0.22391409600E+02  0.18023236045E+02  0.89681938628E+01  0.30399229637E+02  0.41800000000E+01 0.  1.
        -11    1    1    2    0    0  0.60350919449E+01  0.40659544727E+02 -0.18967199267E+02  0.45270029382E+02  0.00000000000E+00 0.  1.
         11    1    1    2    0    0  0.97298901807E+02 -0.62341625970E+01 -0.96976770371E+02  0.13751521759E+03  0.00000000000E+00 0. -1.
</event>
<event>
 7    1  0.2842702E-009  0.2413722E+03  0.7561462E-02  0.1118882E+00
         -2   -1    0    0    0  501 -0.00000000000E+00  0.00000000000E+00  0.77018652211E+02  0.77018652211E+02  0.00000000000E+00 0.  1.
          2   -1    0    0  501    0  0.00000000000E+00 -0.00000000000E+00 -0.90479850065E+03  0.90479850065E+03  0.00000000000E+00 0. -1.
         25    2    1    2    0    0 -0.13594163402E+03 -0.19902609760E+03 -0.43522221907E+03  0.51298745797E+03  0.12508491786E+03 0.  0.
          5    1    3    3  502    0 -0.11073917502E+03 -0.16601722066E+03 -0.23439774889E+03  0.30787117359E+03  0.41800000000E+01 0.  1.
         -5    1    3    3    0  502 -0.25202458998E+02 -0.33008876939E+02 -0.20082447018E+03  0.20511628439E+03  0.41800000000E+01 0.  1.
        -11    1    1    2    0    0  0.62171423179E+02  0.10298119326E+03 -0.11688147851E+03  0.16772504895E+03  0.00000000000E+00 0.  1.
         11    1    1    2    0    0  0.73770210842E+02  0.96044904339E+02 -0.27567615086E+03  0.30110464594E+03  0.00000000000E+00 0. -1.
</event>
<event>
 7    1  0.2842702E-009  0.1163104E+03  0.7561462E-02  0.1249311E+00
         -1   -1    0    0    0  501 -0.00000000000E+00  0.00000000000E+00  0.23484868004E+03  0.23484868004E+03  0.00000000000E+00 0.  1.
          1   -1    0    0  501    0  0.00000000000E+00 -0.00000000000E+00 -0.72197536473E+02  0.72197536473E+02  0.00000000000E+00 0. -1.
         25    2    1    2    0    0  0.46677424461E+02  0.53419915967E+02  0.75530228004E+02  0.16241701153E+03  0.12506798517E+03 0.  0.
          5    1    3    3  502    0  0.61035446207E+02 -0.30325550432E+01 -0.66352852734E+01  0.61611861638E+02  0.41800000000E+01 0. -1.
         -5    1    3    3    0  502 -0.14358021746E+02  0.56452471011E+02  0.82165513278E+02  0.10080514989E+03  0.41800000000E+01 0. -1.
        -11    1    1    2    0    0 -0.72572918091E+02 -0.31802791849E+02  0.46667536774E+02  0.91957082371E+02  0.00000000000E+00 0. -1.
         11    1    1    2    0    0  0.25895493630E+02 -0.21617124118E+02  0.40453378783E+02  0.52672122612E+02  0.00000000000E+00 0.  1.
</event>
<event>
 7    1  0.2842702E-009  0.3790434E+03  0.7561462E-02  0.1051288E+00
         -2   -1    0    0    0  501 -0.00000000000E+00  0.00000000000E+00  0.10984211892E+03  0.10984211892E+03  0.00000000000E+00 0.  1.
          2   -1    0    0  501    0  0.00000000000E+00 -0.00000000000E+00 -0.21095164948E+04  0.21095164948E+04  0.00000000000E+00 0. -1.
         25    2    1    2    0    0  0.48903634848E+01 -0.36874789302E+03 -0.34105979580E+03  0.51765500655E+03  0.12508396072E+03 0.  0.
          5    1    3    3  502    0  0.62719742895E+02 -0.23882615424E+03 -0.20868707568E+03  0.32332563470E+03  0.41800000000E+01 0. -1.
         -5    1    3    3    0  502 -0.57829379410E+02 -0.12992173878E+03 -0.13237272012E+03  0.19432937185E+03  0.41800000000E+01 0. -1.
        -11    1    1    2    0    0  0.95750899099E+00  0.20540795634E+03 -0.11257212783E+04  0.11443084120E+04  0.00000000000E+00 0.  1.
         11    1    1    2    0    0 -0.58478724758E+01  0.16333993668E+03 -0.53289330183E+03  0.55739519523E+03  0.00000000000E+00 0. -1.
</event>
<event>
 7    1  0.2842702E-009  0.8745213E+02  0.7561462E-02  0.1309142E+00
         -1   -1    0    0    0  501 -0.00000000000E+00  0.00000000000E+00  0.15163943387E+02  0.15163943387E+02  0.00000000000E+00 0.  1.
          1   -1    0    0  501    0  0.00000000000E+00 -0.00000000000E+00 -0.94296535252E+03  0.94296535252E+03  0.00000000000E+00 0. -1.
         25    2    1    2    0    0 -0.42614096265E+02 -0.33257400038E+02 -0.56046376253E+03  0.57679232630E+03  0.12509093776E+03 0.  0.
          5    1    3    3  502    0 -0.90890212835E+00  0.12433777445E+02 -0.24351103560E+00  0.13151297360E+02  0.41800000000E+01 0. -1.
         -5    1    3    3    0  502 -0.41705194137E+02 -0.45691177484E+02 -0.56022025150E+03  0.56364102894E+03  0.41800000000E+01 0. -1.
        -11    1    1    2    0    0  0.28056871613E+02  0.61711264666E+02 -0.28648653191E+03  0.29439769225E+03  0.00000000000E+00 0.  1.
         11    1    1    2    0    0  0.14557224653E+02 -0.28453864627E+02 -0.80851114685E+02  0.86939277359E+02  0.00000000000E+00 0. -1.
</event>
<event>
 7    1  0.2842702E-009  0.1077873E+03  0.7561462E-02  0.1264723E+00
         -2   -1    0    0    0  501 -0.00000000000E+00  0.00000000000E+00  0.76759218956E+02  0.76759218956E+02  0.00000000000E+00 0.  1.
          2   -1    0    0  501    0  0.00000000000E+00 -0.00000000000E+00 -0.21804732092E+03  0.21804732092E+03  0.00000000000E+00 0. -1.
         25    2    1    2    0    0  0.48422270607E+02 -0.15553954168E+02 -0.24981491233E+02  0.13732714252E+03  0.12509207564E+03 0.  0.
          5    1    3    3  502    0 -0.40179518115E+02  0.99847028659E+01  0.33938959677E+00  0.41613405924E+02  0.41800000000E+01 0.  1.
         -5    1    3    3    0  502  0.88601788722E+02 -0.25538657034E+02 -0.25320880829E+02  0.95713736600E+02  0.41800000000E+01 0.  1.
        -11    1    1    2    0    0  0.73240586095E+01  0.24165705366E+02 -0.93135882360E+02  0.96498268033E+02  0.00000000000E+00 0. -1.
         11    1    1    2    0    0 -0.55746329217E+02 -0.86117511985E+01 -0.23170728372E+02  0.60981129320E+02  0.00000000000E+00 0.  1.
</event>
<event>
 7    1  0.2842702E-009  0.9823196E+02  0.7561462E-02  0.1284058E+00
          2   -1    0    0  501    0  0.00000000000E+00  0.00000000000E+00  0.79322505308E+02  0.79322505308E+02  0.00000000000E+00 0. -1.
         -2   -1    0    0    0  501 -0.00000000000E+00 -0.00000000000E+00 -0.18939642774E+03  0.18939642774E+03  0.00000000000E+00 0.  1.
         25    2    1    2    0    0 -0.49126261638E+02 -0.31717089627E+02 -0.65720403237E+02  0.15292479789E+03  0.12508980394E+03 0.  0.
          5    1    3    3  502    0 -0.28454470538E+01 -0.74258157667E+02 -0.42960747299E+02  0.85938750034E+02  0.41800000000E+01 0. -1.
         -5    1    3    3    0  502 -0.46280814584E+02  0.42541068039E+02 -0.22759655938E+02  0.66986047852E+02  0.41800000000E+01 0. -1.
        -11    1    1    2    0    0  0.34136699713E+02  0.26305267556E+02 -0.71983144873E+02  0.83897881465E+02  0.00000000000E+00 0.  1.
         11    1    1    2    0    0  0.14989561924E+02  0.54118220717E+01  0.27629625678E+02  0.31896253697E+02  0.00000000000E+00 0. -1.
</event>
<event>
 7    1  0.2842702E-009  0.5546732E+02  0.7561462E-02  0.1417902E+00
          3   -1    0    0  501    0  0.00000000000E+00  0.00000000000E+00  0.29598971864E+03  0.29598971864E+03  0.00000000000E+00 0. -1.
         -3   -1    0    0    0  501 -0.00000000000E+00 -0.00000000000E+00 -0.41926824911E+02  0.41926824911E+02  0.00000000000E+00 0.  1.
         25    2    1    2    0    0 -0.31115238872E+02 -0.11881781551E+02  0.14349646588E+03  0.19325312682E+03  0.12508477319E+03 0.  0.
          5    1    3    3  502    0 -0.27736602935E+02 -0.26651418369E+02  0.16338494946E+03  0.16790393489E+03  0.41800000000E+01 0. -1.
         -5    1    3    3    0  502 -0.33786359375E+01  0.14769636818E+02 -0.19888483575E+02  0.25349191929E+02  0.41800000000E+01 0. -1.
        -11    1    1    2    0    0  0.21979404542E+02 -0.15999065058E+02 -0.30162868694E+01  0.27352555515E+02  0.00000000000E+00 0.  1.
         11    1    1    2    0    0  0.91358343304E+01  0.27880846608E+02  0.11358271472E+03  0.11731086121E+03  0.00000000000E+00 0. -1.
</event>
<event>
 7    1  0.2842702E-009  0.1309999E+03  0.7561462E-02  0.1225980E+00
          2   -1    0    0  501    0  0.00000000000E+00  0.00000000000E+00  0.80860661088E+03  0.80860661088E+03  0.00000000000E+00 0. -1.
         -2   -1    0    0    0  501 -0.00000000000E+00 -0.00000000000E+00 -0.35726490790E+02  0.35726490790E+02  0.00000000000E+00 0.  1.
         25    2    1    2    0    0  0.12582186582E+03 -0.11767443760E+02  0.32617404553E+03  0.37149281139E+03  0.12509111193E+03 0.  0.
          5    1    3    3  502    0  0.12829125115E+03 -0.14927605589E+02  0.16204693329E+03  0.20726350262E+03  0.41800000000E+01 0.  1.
         -5    1    3    3    0  502 -0.24693853262E+01  0.31601618288E+01  0.16412711224E+03  0.16422930877E+03  0.41800000000E+01 0.  1.
        -11    1    1    2    0    0 -0.91710058683E+02  0.29867588579E+01  0.41634803859E+03  0.42633947135E+03  0.00000000000E+00 0. -1.
         11    1    1    2    0    0 -0.34111807138E+02  0.87806849026E+01  0.30358035976E+02  0.46500818938E+02  0.00000000000E+00 0.  1.
</event>
<event>
 7    1  0.2842702E-009  0.1134213E+03  0.7561462E-02  0.1254362E+00
          1   -1    0    0  501    0  0.00000000000E+00  0.00000000000E+00  0.38702150102E+03  0.38702150102E+03  0.00000000000E+00 0. -1.
         -1   -1    0    0    0  501 -0.00000000000E+00 -0.00000000000E+00 -0.46773853784E+02  0.46773853784E+02  0.00000000000E+00 0.  1.
         25    2    1    2    0    0 -0.57471462230E+02 -0.45119597040E+02  0.13927886432E+03  0.20095926342E+03  0.12508907425E+03 0.  0.
          5    1    3    3  502    0 -0.70916437895E+02 -0.82732403070E+01  0.14444134930E+03  0.16117804893E+03  0.41800000000E+01 0. -1.
         -5    1    3    3    0  502  0.13444975665E+02 -0.36846356733E+02 -0.51624849749E+01  0.39781214489E+02  0.41800000000E+01 0. -1.
        -11    1    1    2    0    0 -0.23136731504E+02  0.22224101504E+02  0.39219791657E+02  0.50669626898E+02  0.00000000000E+00 0.  1.
         11    1    1    2    0    0  0.80608193734E+02  0.22895495536E+02  0.16174899126E+03  0.18216646449E+03  0.00000000000E+00 0. -1.
</event>
<event>
 7    1  0.2842702E-009  0.1204201E+03  0.7561462E-02  0.1242406E+00
          2   -1    0    0  501    0  0.00000000000E+00  0.00000000000E+00  0.86318647745E+02  0.86318647745E+02  0.00000000000E+00 0. -1.
         -2   -1    0    0    0  501 -0.00000000000E+00 -0.00000000000E+00 -0.18054545268E+03  0.18054545268E+03  0.00000000000E+00 0.  1.
         25    2    1    2    0    0 -0.38873769712E+02  0.48407668489E+02 -0.69198727255E+02  0.15588090054E+03  0.12512361472E+03 0.  0.
          5    1    3    3  502    0 -0.47293093133E+02 -0.29511933238E+02 -0.50190046931E+02  0.75127252528E+02  0.41800000000E+01 0.  1.
         -5    1    3    3    0  502  0.84193234212E+01  0.77919601727E+02 -0.19008680324E+02  0.80753648015E+02  0.41800000000E+01 0.  1.
        -11    1    1    2    0    0  0.60686414958E+02 -0.56762693049E+02 -0.11221048330E+02  0.83849604699E+02  0.00000000000E+00 0. -1.
         11    1    1    2    0    0 -0.21812645247E+02  0.83550245602E+01 -0.13807029350E+02  0.27133595182E+02  0.00000000000E+00 0.  1.
</event>
<event>
 7    1  0.2842702E-009  0.9361190E+02  0.7561462E-02  0.1294333E+00
          3   -1    0    0  501    0  0.00000000000E+00  0.00000000000E+00  0.46281880296E+02  0.46281880296E+02  0.00000000000E+00 0. -1.
         -3   -1    0    0    0  501 -0.00000000000E+00 -0.00000000000E+00 -0.29282060334E+03  0.29282060334E+03  0.00000000000E+00 0.  1.
         25    2    1    2    0    0  0.21003840540E+02 -0.26541448595E+02 -0.10164757110E+03  0.16470770137E+03  0.12510311095E+03 0.  0.
          5    1    3    3  502    0 -0.43016702770E+02  0.21809786444E+02 -0.29238705341E+02  0.56555086349E+02  0.41800000000E+01 0.  1.
         -5    1    3    3    0  502  0.64020543309E+02 -0.48351235039E+02 -0.72408865757E+02  0.10815261502E+03  0.41800000000E+01 0.  1.
        -11    1    1    2    0    0 -0.32696034040E+02  0.38133694956E+01 -0.14514844506E+03  0.14883428211E+03  0.00000000000E+00 0.  1.
         11    1    1    2    0    0  0.11692193501E+02  0.22728079100E+02  0.25729311225E+00  0.25560500155E+02  0.00000000000E+00 0. -1.
</event>
<event>
 7    1  0.2842702E-009  0.7051162E+02  0.7561462E-02  0.1358362E+00
          1   -1    0    0  501    0  0.00000000000E+00  0.00000000000E+00  0.17997998093E+03  0.17997998093E+03  0.00000000000E+00 0. -1.
         -1   -1    0    0    0  501 -0.00000000000E+00 -0.00000000000E+00 -0.74843875652E+02  0.74843875652E+02  0.00000000000E+00 0.  1.
         25    2    1    2    0    0 -0.36609722208E+02  0.26224090596E+02  0.61752210631E+02  0.14659222982E+03  0.12509185281E+03 0.  0.
          5    1    3    3  502    0 -0.80432288524E+01 -0.50415427594E+01 -0.37337042606E+02  0.38750972044E+02  0.41800000000E+01 0. -1.
         -5    1    3    3    0  502 -0.28566493355E+02  0.31265633355E+02  0.99089253238E+02  0.10784125778E+03  0.41800000000E+01 0. -1.
        -11    1    1    2    0    0 -0.15332980973E+01 -0.45383863956E+02  0.47050660221E+02  0.65389683726E+02  0.00000000000E+00 0. -1.
         11    1    1    2    0    0  0.38143020305E+02  0.19159773360E+02 -0.36667655743E+01  0.42841943034E+02  0.00000000000E+00 0.  1.
</event>
<event>
 7    1  0.2842702E-009  0.1863797E+03  0.7561462E-02  0.1161768E+00
          1   -1    0    0  501    0  0.00000000000E+00  0.00000000000E+00  0.11117888170E+04  0.11117888170E+04  0.00000000000E+00 0. -1.
         -1   -1    0    0    0  501 -0.00000000000E+00 -0.00000000000E+00 -0.39912271170E+02  0.39912271170E+02  0.00000000000E+00 0.  1.
         25    2    1    2    0    0  0.15475505616E+03 -0.40276537630E+02  0.78222870703E+03  0.80814603252E+03  0.12508770079E+03 0.  0.
          5    1    3    3  502    0  0.99812650236E+02 -0.74565995931E+02  0.36031968373E+03  0.38127470383E+03  0.41800000000E+01 0.  1.
         -5    1    3    3    0  502  0.54942405928E+02  0.34289458301E+02  0.42190902330E+03  0.42687132869E+03  0.41800000000E+01 0.  1.
        -11    1    1    2    0    0 -0.54237000871E+02 -0.28631607452E+02  0.11877597288E+03  0.13367555102E+03  0.00000000000E+00 0. -1.
         11    1    1    2    0    0 -0.10051805529E+03  0.68908145082E+02  0.17087186596E+03  0.20987950465E+03  0.00000000000E+00 0.  1.
</event>
<event>
 7    1  0.2842702E-009  0.1330025E+03  0.7561462E-02  0.1223067E+00
         -1   -1    0    0    0  501 -0.00000000000E+00  0.00000000000E+00  0.10655319129E+03  0.10655319129E+03  0.00000000000E+00 0. -1.
          1   -1    0    0  501    0  0.00000000000E+00 -0.00000000000E+00 -0.25256045449E+03  0.25256045449E+03  0.00000000000E+00 0.  1.
         25    2    1    2    0    0 -0.21466435839E+02  0.10594766889E+03 -0.12295276506E+02  0.16578340624E+03  0.12508895854E+03 0.  0.
          5    1    3    3  502    0  0.28688116910E+02  0.75996582816E+02 -0.50609097825E+02  0.95797921868E+02  0.41800000000E+01 0.  1.
         -5    1    3    3    0  502 -0.50154552749E+02  0.29951086071E+02  0.38313821319E+02  0.69985484369E+02  0.41800000000E+01 0.  1.
        -11    1    1    2    0    0 -0.22752650718E+02 -0.24586280231E+02 -0.36871298833E+01  0.33701086289E+02  0.00000000000E+00 0. -1.
         11    1    1    2    0    0  0.44219086558E+02 -0.81361388656E+02 -0.13002485681E+03  0.15962915326E+03  0.00000000000E+00 0.  1.
</event>
<event>
 7    1  0.2842702E-009  0.1041982E+03  0.7561462E-02  0.1271708E+00
          1   -1    0    0  501    0  0.00000000000E+00  0.00000000000E+00  0.24744840263E+02  0.24744840263E+02  0.00000000000E+00 0. -1.
         -1   -1    0    0    0  501 -0.00000000000E+00 -0.00000000000E+00 -0.54786145762E+03  0.54786145762E+03  0.00000000000E+00 0.  1.
         25    2    1    2    0    0  0.76080174856E+01 -0.41901726236E+02 -0.30759504130E+03  0.33477740806E+03  0.12509023511E+03 0.  0.
          5    1    3    3  502    0 -0.48650545355E+02  0.12850802938E+02 -0.15665925776E+03  0.16459530413E+03  0.41800000000E+01 0.  1.
         -5    1    3    3    0  502  0.56258562841E+02 -0.54752529174E+02 -0.15093578354E+03  0.17018210392E+03  0.41800000000E+01 0.  1.
        -11    1    1    2    0    0  0.29039324466E+02  0.27244751655E+02 -0.18120060372E+03  0.18552416998E+03  0.00000000000E+00 0.  1.
         11    1    1    2    0    0 -0.36647341952E+02  0.14656974581E+02 -0.34320972329E+02  0.52304719840E+02  0.00000000000E+00 0. -1.
</event>
<event>
 7    1  0.2842702E-009  0.5915572E+02  0.7561462E-02  0.1401409E+00
         -2   -1    0    0    0  501 -0.00000000000E+00  0.00000000000E+00  0.53898282962E+02  0.53898282962E+02  0.00000000000E+00 0.  1.
          2   -1    0    0  501    0  0.00000000000E+00 -0.00000000000E+00 -0.26370219434E+03  0.26370219434E+03  0.00000000000E+00 0. -1.
         25    2    1    2    0    0 -0.20483409294E+01  0.13574083409E+02 -0.17069866860E+03  0.21206497275E+03  0.12508023731E+03 0.  0.
          5    1    3    3  502    0  0.34933342030E+01 -0.23674531782E+02 -0.17243258740E+03  0.17413545428E+03  0.41800000000E+01 0. -1.
         -5    1    3    3    0  502 -0.55416751324E+01  0.37248615191E+02  0.17339188026E+01  0.37929518470E+02  0.41800000000E+01 0. -1.
        -11    1    1    2    0    0 -0.25721647259E+02 -0.11807404278E+02  0.23653188264E+02  0.36884837651E+02  0.00000000000E+00 0.  1.
         11    1    1    2    0    0  0.27769988188E+02 -0.17666791315E+01 -0.62758431048E+02  0.68650666907E+02  0.00000000000E+00 0. -1.
</event>
<event>
 7    1  0.2926404E-009  0.1153400E+03  0.7561462E-02  0.1250989E+00
          1   -1    0    0  501    0  0.00000000000E+00  0.00000000000E+00  0.18065227127E+03  0.18065227127E+03  0.00000000000E+00 0. -1.
         -1   -1    0    0    0  501 -0.00000000000E+00 -0.00000000000E+00 -0.10961566517E+03  0.10961566517E+03  0.00000000000E+00 0.  1.
         25    2    1    2    0    0 -0.68344063347E+02  0.56536590466E+02  0.51370049544E+02  0.16171853752E+03  0.12508679519E+03 0.  0.
          5    1    3    3  502    0 -0.69608911700E+02 -0.12016799620E+02 -0.76225724294E+01  0.71171483556E+02  0.41800000000E+01 0. -1.
         -5    1    3    3    0  502  0.12648483527E+01  0.68553390086E+02  0.58992621974E+02  0.90547053961E+02  0.41800000000E+01 0. -1.
        -11    1    1    2    0    0  0.29167839040E+02 -0.37949688058E+02 -0.34619194972E+02  0.59071400174E+02  0.00000000000E+00 0.  1.
         11    1    1    2    0    0  0.39176224307E+02 -0.18586902408E+02  0.54285751525E+02  0.69477998753E+02  0.00000000000E+00 0. -1.
</event>
<event>
 7    1  0.2842702E-009  0.1080660E+03  0.7561462E-02  0.1264194E+00
         -2   -1    0    0    0  501 -0.00000000000E+00  0.00000000000E+00  0.80082531038E+01  0.80082531038E+01  0.00000000000E+00 0. -1.
          2   -1    0    0  501    0  0.00000000000E+00 -0.00000000000E+00 -0.21713847341E+04  0.21713847341E+04  0.00000000000E+00 0.  1.
         25    2    1    2    0    0  0.42797354233E+02  0.33812585037E+00 -0.17415634688E+04  0.17465746975E+04  0.12509248758E+03 0.  0.
          5    1    3    3  502    0 -0.32164849514E+02  0.25387472240E+02 -0.98972796413E+03  0.99058468425E+03  0.41800000000E+01 0.  1.
         -5    1    3    3    0  502  0.74962203747E+02 -0.25049346389E+02 -0.75183550464E+03  0.75599001328E+03  0.41800000000E+01 0.  1.
        -11    1    1    2    0    0 -0.33162472758E+02 -0.41726938966E+02 -0.26765048172E+03  0.27290596805E+03  0.00000000000E+00 0. -1.
         11    1    1    2    0    0 -0.96348814752E+01  0.41388813116E+02 -0.15416253046E+03  0.15991232157E+03  0.00000000000E+00 0.  1.
</event>
<event>
 7    1  0.2842702E-009  0.1681935E+03  0.7561462E-02  0.1179745E+00
         -2   -1    0    0    0  501 -0.00000000000E+00  0.00000000000E+00  0.43213313830E+02  0.43213313830E+02  0.00000000000E+00 0.  1.
          2   -1    0    0  501    0  0.00000000000E+00 -0.00000000000E+00 -0.87646969771E+03  0.87646969771E+03  0.00000000000E+00 0. -1.
         25    2    1    2    0    0 -0.15767283165E+03  0.59655975087E+01 -0.35472373577E+03  0.40788826265E+03  0.12509035092E+03 0.  0.
          5    1    3    3  502    0 -0.51644470773E+02 -0.12173852068E+02 -0.25714346149E+03  0.26259395695E+03  0.41800000000E+01 0. -1.
         -5    1    3    3    0  502 -0.10602836088E+03  0.18139449577E+02 -0.97580274279E+02  0.14529430570E+03  0.41800000000E+01 0. -1.
        -11    1    1    2    0    0  0.24879870394E+02 -0.31650425899E+02 -0.17368030062E+03  0.17828517671E+03  0.00000000000E+00 0. -1.
         11    1    1    2    0    0  0.13279296126E+03  0.25684828390E+02 -0.30485234748E+03  0.33350957218E+03  0.00000000000E+00 0.  1.
</event>
<event>
 7    1  0.2842702E-009  0.1106501E+03  0.7561462E-02  0.1259371E+00
         -1   -1    0    0    0  501 -0.00000000000E+00  0.00000000000E+00  0.16992061479E+02  0.16992061479E+02  0.00000000000E+00 0.  1.
          1   -1    0    0  501    0  0.00000000000E+00 -0.00000000000E+00 -0.74877277453E+03  0.74877277453E+03  0.00000000000E+00 0. -1.
         25    2    1    2    0    0 -0.27359929323E+02  0.40077014233E+01 -0.47527852778E+03  0.49224168249E+03  0.12509023786E+03 0.  0.
          5    1    3    3  502    0 -0.49735391954E+02  0.53722893530E+02 -0.28192480580E+03  0.29130538448E+03  0.41800000000E+01 0. -1.
         -5    1    3    3    0  502  0.22375462630E+02 -0.49715192107E+02 -0.19335372198E+03  0.20093629801E+03  0.41800000000E+01 0. -1.
        -11    1    1    2    0    0  0.45040250944E+02  0.30584937446E+02 -0.17426544709E+03  0.18257192734E+03  0.00000000000E+00 0. -1.
         11    1    1    2    0    0 -0.17680321620E+02 -0.34592638869E+02 -0.82236738182E+02  0.90951226179E+02  0.00000000000E+00 0.  1.
</event>
<event>
 7    1  0.2842702E-009  0.1168212E+03  0.7561462E-02  0.1248435E+00
         -2   -1    0    0    0  501 -0.00000000000E+00  0.00000000000E+00  0.46182249727E+02  0.46182249727E+02  0.00000000000E+00 0.  1.
          2   -1    0    0  501    0  0.00000000000E+00 -0.00000000000E+00 -0.32408640432E+03  0.32408640432E+03  0.00000000000E+00 0. -1.
         25    2    1    2    0    0  0.72588719060E+01  0.54098869407E+02 -0.12586448781E+03  0.18565936921E+03  0.12509257848E+03 0.  0.
          5    1    3    3  502    0  0.50838334086E+01 -0.40465287420E+02 -0.47575508200E+02  0.62802756536E+02  0.41800000000E+01 0.  1.
         -5    1    3    3    0  502  0.21750384974E+01  0.94564156827E+02 -0.78288979615E+02  0.12285661267E+03  0.41800000000E+01 0.  1.
        -11    1    1    2    0    0 -0.36941377097E+02 -0.57229579951E+02 -0.71668718218E+02  0.98875150236E+02  0.00000000000E+00 0.  1.
         11    1    1    2    0    0  0.29682505191E+02  0.31307105442E+01 -0.80370948565E+02  0.85734134604E+02  0.00000000000E+00 0. -1.
</event>
<event>
 7    1  0.2842702E-009  0.1244462E+03  0.7561462E-02  0.1235937E+00
          3   -1    0    0  501    0  0.00000000000E+00  0.00000000000E+00  0.79843704871E+03  0.79843704871E+03  0.00000000000E+00 0. -1.
         -3   -1    0    0    0  501 -0.00000000000E+00 -0.00000000000E+00 -0.40980349367E+02  0.40980349367E+02  0.00000000000E+00 0.  1.
         25    2    1    2    0    0 -0.54386945369E+02  0.90741960001E+02  0.62648888639E+03  0.64755520308E+03  0.12508946052E+03 0.  0.
          5    1    3    3  502    0 -0.37290747835E+02  0.33862390520E+02  0.54111194837E+03  0.54346745481E+03  0.41800000000E+01 0.  1.
         -5    1    3    3    0  502 -0.17096197534E+02  0.56879569481E+02  0.85376938020E+02  0.10408774827E+03  0.41800000000E+01 0.  1.
        -11    1    1    2    0    0  0.72926470471E+02 -0.36631892946E+02  0.63450330214E+02  0.10337364306E+03  0.00000000000E+00 0.  1.
         11    1    1    2    0    0 -0.18539525102E+02 -0.54110067055E+02  0.67517482733E+02  0.88488551928E+02  0.00000000000E+00 0. -1.
</event>
<event>
 7    1  0.2842702E-009  0.3065695E+03  0.7561462E-02  0.1082002E+00
          2   -1    0    0  501    0  0.00000000000E+00  0.00000000000E+00  0.99721422990E+02  0.99721422990E+02  0.00000000000E+00 0. -1.
         -2   -1    0    0    0  501 -0.00000000000E+00 -0.00000000000E+00 -0.10067369124E+04  0.10067369124E+04  0.00000000000E+00 0.  1.
         25    2    1    2    0    0  0.26491224617E+03  0.11169417966E+03 -0.32691119190E+03  0.45296018597E+03  0.12509162538E+03 0.  0.
          5    1    3    3  502    0  0.52201277090E+02  0.83021465832E+02 -0.11686778154E+03  0.15262073215E+03  0.41800000000E+01 0.  1.
         -5    1    3    3    0  502  0.21271096908E+03  0.28672713832E+02 -0.21004341036E+03  0.30033945382E+03  0.41800000000E+01 0.  1.
        -11    1    1    2    0    0 -0.20727303876E+03 -0.44900997403E+02 -0.42786884919E+03  0.47754577191E+03  0.00000000000E+00 0.  1.
         11    1    1    2    0    0 -0.57639207407E+02 -0.66793182261E+02 -0.15223544829E+03  0.17595237748E+03  0.00000000000E+00 0. -1.
</event>
<event>
 7    1  0.2842702E-009  0.9256126E+02  0.7561462E-02  0.1296765E+00
          2   -1    0    0  501    0  0.00000000000E+00  0.00000000000E+00  0.94412198546E+02  0.94412198546E+02  0.00000000000E+00 0. -1.
         -2   -1    0    0    0  501 -0.00000000000E+00 -0.00000000000E+00 -0.13164269765E+03  0.13164269765E+03  0.00000000000E+00 0.  1.
         25    2    1    2    0    0  0.15051888800E+02  0.65816448414E+01  0.19814387386E+01  0.12618012929E+03  0.12509045337E+03 0.  0.
          5    1    3    3  502    0 -0.12090558810E+02 -0.55949922312E+02  0.63515460778E+01  0.57744176820E+02  0.41800000000E+01 0.  1.
         -5    1    3    3    0  502  0.27142447610E+02  0.62531567154E+02 -0.43701073392E+01  0.68435952475E+02  0.41800000000E+01 0.  1.
        -11    1    1    2    0    0 -0.99197140473E+01  0.25281845324E+02 -0.56916149564E+02  0.63063622723E+02  0.00000000000E+00 0.  1.
         11    1    1    2    0    0 -0.51321747526E+01 -0.31863490165E+02  0.17704211719E+02  0.36811144180E+02  0.00000000000E+00 0. -1.
</event>
<event>
 7    1  0.2842702E-009  0.4486666E+03  0.7561462E-02  0.1028120E+00
         -1   -1    0    0    0  501 -0.00000000000E+00  0.00000000000E+00  0.42195226165E+03  0.42195226165E+03  0.00000000000E+00 0.  1.
          1   -1    0    0  501    0  0.00000000000E+00 -0.00000000000E+00 -0.55044476805E+03  0.55044476805E+03  0.00000000000E+00 0. -1.
         25    2    1    2    0    0  0.42199412243E+03  0.12915121652E+03  0.97776084279E+02  0.46900765597E+03  0.12509573377E+03 0.  0.
          5    1    3    3  502    0  0.29114018704E+03  0.52051185363E+02  0.11228179141E+03  0.31638047899E+03  0.41800000000E+01 0.  1.
         -5    1    3    3    0  502  0.13085393539E+03  0.77100031158E+02 -0.14505707130E+02  0.15262717697E+03  0.41800000000E+01 0.  1.
        -11    1    1    2    0    0 -0.53629264858E+02 -0.48963831161E+02 -0.33553913924E+02  0.79996374610E+02  0.00000000000E+00 0. -1.
         11    1    1    2    0    0 -0.36836485757E+03 -0.80187385361E+02 -0.19271467676E+03  0.42339299912E+03  0.00000000000E+00 0.  1.
</event>
<event>
 7    1  0.2842702E-009  0.1109704E+03  0.7561462E-02  0.1258783E+00
         -2   -1    0    0    0  501 -0.00000000000E+00  0.00000000000E+00  0.14089177864E+02  0.14089177864E+02  0.00000000000E+00 0.  1.
          2   -1    0    0  501    0  0.00000000000E+00 -0.00000000000E+00 -0.25304695362E+04  0.25304695362E+04  0.00000000000E+00 0. -1.
         25    2    1    2    0    0  0.40675338972E+02 -0.31618845447E+02 -0.22994412775E+04  0.23034174141E+04  0.12508941025E+03 0.  0.
          5    1    3    3  502    0  0.81924822060E+02 -0.24175094089E+02 -0.18590979228E+04  0.18610638545E+04  0.41800000000E+01 0. -1.
         -5    1    3    3    0  502 -0.41249483088E+02 -0.74437513582E+01 -0.44034335467E+03  0.44235355960E+03  0.41800000000E+01 0. -1.
        -11    1    1    2    0    0 -0.71622695296E+01  0.53692542134E+02 -0.17458565653E+03  0.18279589342E+03  0.00000000000E+00 0. -1.
         11    1    1    2    0    0 -0.33513069442E+02 -0.22073696687E+02 -0.42353424325E+02  0.58345406511E+02  0.00000000000E+00 0.  1.
</event>
<event>
 7    1  0.2842702E-009  0.1984698E+03  0.7561462E-02  0.1151036E+00
          2   -1    0    0  501    0  0.00000000000E+00  0.00000000000E+00  0.11596200305E+04  0.11596200305E+04  0.00000000000E+00 0.  1.
         -2   -1    0    0    0  501 -0.00000000000E+00 -0.00000000000E+00 -0.40614566457E+02  0.40614566457E+02  0.00000000000E+00 0. -1.
         25    2    1    2    0    0  0.11912793020E+03 -0.12171419633E+03  0.36495313993E+03  0.42172159094E+03  0.12510993800E+03 0.  0.
          5    1    3    3  502    0  0.14144793619E+02 -0.10142768505E+03  0.15097765934E+03  0.18248116753E+03  0.41800000000E+01 0.  1.
         -5    1    3    3    0  502  0.10498313658E+03 -0.20286511275E+02  0.21397548058E+03  0.23924042342E+03  0.41800000000E+01 0.  1.
        -11    1    1    2    0    0 -0.43789608823E+02  0.99789334389E+02  0.53087712917E+03  0.54194646172E+03  0.00000000000E+00 0.  1.
         11    1    1    2    0    0 -0.75338321373E+02  0.21924861938E+02  0.22317519495E+03  0.23656654430E+03  0.00000000000E+00 0. -1.
</event>
<event>
 7    1  0.2842702E-009  0.1224360E+03  0.7561462E-02  0.1239132E+00
          2   -1    0    0  501    0  0.00000000000E+00  0.00000000000E+00  0.15228980960E+04  0.15228980960E+04  0.00000000000E+00 0. -1.
         -2   -1    0    0    0  501 -0.00000000000E+00 -0.00000000000E+00 -0.26455393425E+02  0.26455393425E+02  0.00000000000E+00 0.  1.
         25    2    1    2    0    0  0.17822576018E+02 -0.73108109262E+02  0.13132876332E+04  0.13213768821E+04  0.12510002884E+03 0.  0.
          5    1    3    3  502    0 -0.14777005240E+02 -0.98564813020E+02  0.10618896028E+04  0.10665647581E+04  0.41800000000E+01 0.  1.
         -5    1    3    3    0  502  0.32599581258E+02  0.25456703757E+02  0.25139803036E+03  0.25481212399E+03  0.41800000000E+01 0.  1.
        -11    1    1    2    0    0 -0.45334674418E+02  0.51121804235E+02  0.37129592955E+02  0.77764247864E+02  0.00000000000E+00 0.  1.
         11    1    1    2    0    0  0.27512098400E+02  0.21986305027E+02  0.14602547643E+03  0.15021235946E+03  0.00000000000E+00 0. -1.
</event>
<event>
 6    1  0.2842702E-009  0.1354344E+03  0.7561462E-02  0.1219608E+00
          1   -1    0    0  501    0  0.00000000000E+00  0.00000000000E+00  0.22803204600E+03  0.22803204600E+03  0.00000000000E+00 0. -1.
         -1   -1    0    0    0  501 -0.00000000000E+00 -0.00000000000E+00 -0.12478215208E+03  0.12478215208E+03  0.00000000000E+00 0.  1.
          5    1    1    2  502    0 -0.22854938179E+02  0.12294840739E+03  0.12372526269E+03  0.17596611067E+03  0.41800000000E+01 0.  1.
         -5    1    1    2    0  502 -0.10272249386E+02 -0.12077183012E+02 -0.18291865493E+02  0.24565060557E+02  0.41800000000E+01 0.  1.
        -11    1    1    2    0    0  0.30818447153E+01 -0.95589747004E+02 -0.38170086711E+02  0.10297501162E+03  0.00000000000E+00 0.  1.
         11    1    1    2    0    0  0.30045342849E+02 -0.15281477376E+02  0.35986583439E+02  0.49308015224E+02  0.00000000000E+00 0. -1.
</event>
<event>
 7    1  0.2842702E-009  0.1269238E+03  0.7561462E-02  0.1232093E+00
         -1   -1    0    0    0  501 -0.00000000000E+00  0.00000000000E+00  0.90498133687E+02  0.90498133687E+02  0.00000000000E+00 0.  1.
          1   -1    0    0  501    0  0.00000000000E+00 -0.00000000000E+00 -0.27780434929E+03  0.27780434929E+03  0.00000000000E+00 0. -1.
         25    2    1    2    0    0  0.81643617209E+02 -0.50530138524E+02 -0.26810966727E+02  0.15995399365E+03  0.12508987576E+03 0.  0.
          5    1    3    3  502    0 -0.15657950508E+02 -0.26098865401E+02  0.31369296413E+02  0.43907030722E+02  0.41800000000E+01 0.  1.
         -5    1    3    3    0  502  0.97301567717E+02 -0.24431273123E+02 -0.58180263140E+02  0.11604696293E+03  0.41800000000E+01 0.  1.
        -11    1    1    2    0    0 -0.47265696716E+02 -0.14261357450E+02 -0.10612674794E+03  0.11704836193E+03  0.00000000000E+00 0. -1.
         11    1    1    2    0    0 -0.34377920493E+02  0.64791495974E+02 -0.54368500938E+02  0.91300127395E+02  0.00000000000E+00 0.  1.
</event>
<event>
 6    1  0.2842702E-009  0.3854043E+03  0.7561462E-02  0.1048954E+00
         -1   -1    0    0    0  501 -0.00000000000E+00  0.00000000000E+00  0.16868306710E+04  0.16868306710E+04  0.00000000000E+00 0.  1.
          1   -1    0    0  501    0  0.00000000000E+00 -0.00000000000E+00 -0.98117920007E+02  0.98117920007E+02  0.00000000000E+00 0. -1.
          5    1    1    2  502    0  0.22988386568E+03 -0.39811604435E+02  0.49806196680E+03  0.55001340958E+03  0.41800000000E+01 0. -1.
         -5    1    1    2    0  502  0.12187806042E+03 -0.10073830441E+03  0.52512941248E+03  0.54843490028E+03  0.41800000000E+01 0. -1.
        -11    1    1    2    0    0 -0.64080435622E+02  0.33727680519E+02  0.55346650513E+02  0.91143350749E+02  0.00000000000E+00 0. -1.
         11    1    1    2    0    0 -0.28768149048E+03  0.10682222833E+03  0.51017472122E+03  0.59535693042E+03  0.00000000000E+00 0.  1.
</event>
<event>
 7    1  0.2842702E-009  0.1216991E+03  0.7561462E-02  0.1240320E+00
         -4   -1    0    0    0  501 -0.00000000000E+00  0.00000000000E+00  0.19332923084E+02  0.19332923084E+02  0.00000000000E+00 0.  1.
          4   -1    0    0  501    0  0.00000000000E+00 -0.00000000000E+00 -0.86091144718E+03  0.86091144718E+03  0.00000000000E+00 0. -1.
         25    2    1    2    0    0 -0.42532970422E+02 -0.31016943149E+02 -0.31943382116E+03  0.34706802562E+03  0.12508854454E+03 0.  0.
          5    1    3    3  502    0 -0.36588066134E+02  0.45560286229E+02 -0.12860325074E+03  0.14131770860E+03  0.41800000000E+01 0.  1.
         -5    1    3    3    0  502 -0.59449042878E+01 -0.76577229377E+02 -0.19083057042E+03  0.20575031701E+03  0.41800000000E+01 0.  1.
        -11    1    1    2    0    0 -0.57543024678E+01  0.54077793339E+02 -0.26527376521E+03  0.27079086070E+03  0.00000000000E+00 0.  1.
         11    1    1    2    0    0  0.48287272889E+02 -0.23060850191E+02 -0.25687093772E+03  0.26238548394E+03  0.00000000000E+00 0. -1.
</event>
<event>
 7    1  0.2842702E-009  0.8749527E+02  0.7561462E-02  0.1309033E+00
         -1   -1    0    0    0  501 -0.00000000000E+00  0.00000000000E+00  0.11610618927E+03  0.11610618927E+03  0.00000000000E+00 0.  1.
          1   -1    0    0  501    0  0.00000000000E+00 -0.00000000000E+00 -0.14097443952E+03  0.14097443952E+03  0.00000000000E+00 0. -1.
         25    2    1    2    0    0  0.61045365686E+02  0.29008297645E+02  0.27026430915E+01  0.14220763971E+03  0.12509072911E+03 0.  0.
          5    1    3    3  502    0  0.62818004265E+01  0.22044331242E+01  0.58756462943E+02  0.59279970307E+02  0.41800000000E+01 0.  1.
         -5    1    3    3    0  502  0.54763565260E+02  0.26803864520E+02 -0.56053819851E+02  0.82927669406E+02  0.41800000000E+01 0.  1.
        -11    1    1    2    0    0 -0.37339662418E+02 -0.57743067650E+02 -0.39980846253E+00  0.68765340819E+02  0.00000000000E+00 0.  1.
         11    1    1    2    0    0 -0.23705703269E+02  0.28734770005E+02 -0.27171084872E+02  0.46107648257E+02  0.00000000000E+00 0. -1.
</event>
<event>
 7    1  0.2842702E-009  0.1129359E+03  0.7561462E-02  0.1255228E+00
         -1   -1    0    0    0  501 -0.00000000000E+00  0.00000000000E+00  0.40806850893E+03  0.40806850893E+03  0.00000000000E+00 0.  1.
          1   -1    0    0  501    0  0.00000000000E+00 -0.00000000000E+00 -0.36764701898E+02  0.36764701898E+02  0.00000000000E+00 0. -1.
         25    2    1    2    0    0  0.38987595745E+02 -0.32771535319E+02  0.26377501907E+03  0.29634400438E+03  0.12509397305E+03 0.  0.
          5    1    3    3  502    0  0.62198894035E+02  0.22073121543E+02  0.19151841035E+03  0.20261465647E+03  0.41800000000E+01 0. -1.
         -5    1    3    3    0  502 -0.23211298290E+02 -0.54844656862E+02  0.72256608724E+02  0.93729347906E+02  0.41800000000E+01 0. -1.
        -11    1    1    2    0    0  0.23133073979E+02  0.29964938488E+02  0.25877679037E+02  0.45855107923E+02  0.00000000000E+00 0. -1.
         11    1    1    2    0    0 -0.62120669724E+02  0.28065968313E+01  0.81651108922E+02  0.10263409853E+03  0.00000000000E+00 0.  1.
</event>
<event>
 7    1  0.2842702E-009  0.8552486E+02  0.7561462E-02  0.1314066E+00
          3   -1    0    0  501    0  0.00000000000E+00  0.00000000000E+00  0.45718208697E+03  0.45718208697E+03  0.00000000000E+00 0. -1.
         -3   -1    0    0    0  501 -0.00000000000E+00 -0.00000000000E+00 -0.25743694865E+02  0.25743694865E+02  0.00000000000E+00 0.  1.
         25    2    1    2    0    0 -0.11917760777E+02 -0.80382529991E+01  0.24549488565E+03  0.27590233347E+03  0.12509081582E+03 0.  0.
          5    1    3    3  502    0 -0.29746292808E+02 -0.43787701119E+02  0.39899899443E+02  0.66420471849E+02  0.41800000000E+01 0.  1.
         -5    1    3    3    0  502  0.17828532031E+02  0.35749448120E+02  0.20559498621E+03  0.20948186162E+03  0.41800000000E+01 0.  1.
        -11    1    1    2    0    0  0.95962104524E+01  0.42334150410E+02  0.15434279987E+03  0.16033080621E+03  0.00000000000E+00 0.  1.
         11    1    1    2    0    0  0.23215503251E+01 -0.34295897411E+02  0.31600706579E+02  0.46692642156E+02  0.00000000000E+00 0. -1.
</event>
<event>
 7    1  0.2842702E-009  0.9168651E+02  0.7561462E-02  0.1298818E+00
          3   -1    0    0  501    0  0.00000000000E+00  0.00000000000E+00  0.21470683521E+03  0.21470683521E+03  0.00000000000E+00 0. -1.
         -3   -1    0    0    0  501 -0.00000000000E+00 -0.00000000000E+00 -0.66088123809E+02  0.66088123809E+02  0.00000000000E+00 0.  1.
         25    2    1    2    0    0 -0.39753106636E+02 -0.26381215494E+01  0.46379273515E+02  0.13923364906E+03  0.12509077842E+03 0.  0.
          5    1    3    3  502    0 -0.54842931165E+02  0.20147498598E+02  0.77797118400E+02  0.97383432009E+02  0.41800000000E+01 0.  1.
         -5    1    3    3    0  502  0.15089824529E+02 -0.22785620147E+02 -0.31417844885E+02  0.41850217049E+02  0.41800000000E+01 0.  1.
        -11    1    1    2    0    0  0.39887672745E+02 -0.38838746969E+02  0.67192219292E+02  0.87259779031E+02  0.00000000000E+00 0.  1.
         11    1    1    2    0    0 -0.13456610869E+00  0.41476868519E+02  0.35047218592E+02  0.54301530929E+02  0.00000000000E+00 0. -1.
</event>
<event>
 7    1  0.2842702E-009  0.1525744E+03  0.7561462E-02  0.1197345E+00
          2   -1    0    0  501    0  0.00000000000E+00  0.00000000000E+00  0.14495838144E+04  0.14495838144E+04  0.00000000000E+00 0. -1.
         -2   -1    0    0    0  501 -0.00000000000E+00 -0.00000000000E+00 -0.17900601042E+02  0.17900601042E+02  0.00000000000E+00 0.  1.
         25    2    1    2    0    0  0.43155792846E+02 -0.10849552501E+03  0.91564021099E+03  0.93149269403E+03  0.12509173292E+03 0.  0.
          5    1    3    3  502    0 -0.10973949468E+02 -0.10574965295E+03  0.43659242578E+03  0.44937048781E+03  0.41800000000E+01 0.  1.
         -5    1    3    3    0  502  0.54129742314E+02 -0.27458720638E+01  0.47904778521E+03  0.48212220622E+03  0.41800000000E+01 0.  1.
        -11    1    1    2    0    0 -0.38004026708E+02  0.23055667224E+01  0.11766738871E+03  0.12367391014E+03  0.00000000000E+00 0. -1.
         11    1    1    2    0    0 -0.51517661379E+01  0.10618995829E+03  0.39837561371E+03  0.41231781132E+03  0.00000000000E+00 0.  1.
</event>
<event>
 7    1  0.2842702E-009  0.9123452E+02  0.7561462E-02  0.1299889E+00
          2   -1    0    0  501    0  0.00000000000E+00  0.00000000000E+00  0.47231710442E+03  0.47231710442E+03  0.00000000000E+00 0. -1.
         -2   -1    0    0    0  501 -0.00000000000E+00 -0.00000000000E+00 -0.27544437551E+02  0.27544437551E+02  0.00000000000E+00 0.  1.
         25    2    1    2    0    0 -0.14064370356E+02  0.89626360938E+01  0.17922256400E+03  0.21919080431E+03  0.12508295602E+03 0.  0.
          5    1    3    3  502    0 -0.48637149270E+02  0.38545331355E+02  0.43283266429E+02  0.75777492774E+02  0.41800000000E+01 0. -1.
         -5    1    3    3    0  502  0.34572778914E+02 -0.29582695261E+02  0.13593929758E+03  0.14341331154E+03  0.41800000000E+01 0. -1.
        -11    1    1    2    0    0 -0.58267212741E+01  0.30143715009E+02  0.37626985867E+02  0.48563199038E+02  0.00000000000E+00 0.  1.
         11    1    1    2    0    0  0.19891091630E+02 -0.39106351103E+02  0.22792311699E+03  0.23210753862E+03  0.00000000000E+00 0. -1.
</event>
<event>
 7    1  0.2842702E-009  0.1243024E+03  0.7561462E-02  0.1236164E+00
         -1   -1    0    0    0  501 -0.00000000000E+00  0.00000000000E+00  0.23937567604E+02  0.23937567604E+02  0.00000000000E+00 0.  1.
          1   -1    0    0  501    0  0.00000000000E+00 -0.00000000000E+00 -0.87457452210E+03  0.87457452210E+03  0.00000000000E+00 0. -1.
         25    2    1    2    0    0 -0.38350840534E+02  0.85331557256E+02 -0.51969078294E+03  0.54265822797E+03  0.12508869204E+03 0.  0.
          5    1    3    3  502    0  0.17916080477E+02 -0.94971208009E+01 -0.25566239078E+03  0.25649934055E+03  0.41800000000E+01 0. -1.
         -5    1    3    3    0  502 -0.56266921011E+02  0.94828678057E+02 -0.26402839217E+03  0.28615888742E+03  0.41800000000E+01 0. -1.
        -11    1    1    2    0    0  0.56059726238E+02 -0.39939395521E+02 -0.26540614539E+03  0.27418656100E+03  0.00000000000E+00 0.  1.
         11    1    1    2    0    0 -0.17708885704E+02 -0.45392161735E+02 -0.65540026155E+02  0.81667300728E+02  0.00000000000E+00 0. -1.
</event>
<event>
 7    1  0.2842702E-009  0.1114901E+03  0.7561462E-02  0.1257835E+00
          1   -1    0    0  501    0  0.00000000000E+00  0.00000000000E+00  0.19675632098E+03  0.19675632098E+03  0.00000000000E+00 0. -1.
         -1   -1    0    0    0  501 -0.00000000000E+00 -0.00000000000E+00 -0.82168473318E+02  0.82168473318E+02  0.00000000000E+00 0.  1.
         25    2    1    2    0    0 -0.61085846900E+02  0.68475905019E+01  0.37449814097E+02  0.14432130606E+03  0.12509108929E+03 0.  0.
          5    1    3    3  502    0  0.17949074950E+01 -0.45494326036E+02  0.42257897249E+02  0.62258795959E+02  0.41800000000E+01 0. -1.
         -5    1    3    3    0  502 -0.62880754395E+02  0.52341916538E+02 -0.48080831518E+01  0.82062510099E+02  0.41800000000E+01 0. -1.
        -11    1    1    2    0    0 -0.16203565840E+02 -0.79310024362E+01 -0.78916941471E+01  0.19690992410E+02  0.00000000000E+00 0.  1.
         11    1    1    2    0    0  0.77289412740E+02  0.10834119343E+01  0.85029727714E+02  0.11491249583E+03  0.00000000000E+00 0. -1.
</event>
<event>
 7    1  0.2842702E-009  0.1730614E+03  0.7561462E-02  0.1174692E+00
          2   -1    0    0  501    0  0.00000000000E+00  0.00000000000E+00  0.32332220452E+03  0.32332220452E+03  0.00000000000E+00 0. -1.
         -2   -1    0    0    0  501 -0.00000000000E+00 -0.00000000000E+00 -0.11721450767E+03  0.11721450767E+03  0.00000000000E+00 0.  1.
         25    2    1    2    0    0 -0.15931816495E+03 -0.18364778069E+02  0.86462409975E+02  0.22100012649E+03  0.12508303168E+03 0.  0.
          5    1    3    3  502    0 -0.11936162670E+03 -0.24280957555E+02  0.11795606798E+03  0.16961093480E+03  0.41800000000E+01 0.  1.
         -5    1    3    3    0  502 -0.39956538246E+02  0.59161794861E+01 -0.31493658006E+02  0.51389191693E+02  0.41800000000E+01 0.  1.
        -11    1    1    2    0    0  0.20190064591E+01 -0.21314869382E+02  0.19003782171E+02  0.28627675083E+02  0.00000000000E+00 0.  1.
         11    1    1    2    0    0  0.15729915849E+03  0.39679647451E+02  0.10064150470E+03  0.19090891061E+03  0.00000000000E+00 0. -1.
</event>
<event>
 7    1  0.2842702E-009  0.1114707E+03  0.7561462E-02  0.1257870E+00
         -2   -1    0    0    0  501 -0.00000000000E+00  0.00000000000E+00  0.16749522818E+02  0.16749522818E+02  0.00000000000E+00 0.  1.
          2   -1    0    0  501    0  0.00000000000E+00 -0.00000000000E+00 -0.82769362920E+03  0.82769362920E+03  0.00000000000E+00 0. -1.
         25    2    1    2    0    0 -0.42551025718E+02 -0.18092145362E+02 -0.55434487908E+03  0.57016117794E+03  0.12509040072E+03 0.  0.
          5    1    3    3  502    0 -0.10437941844E+02 -0.70679480219E+02 -0.29100987012E+03  0.29968109126E+03  0.41800000000E+01 0. -1.
         -5    1    3    3    0  502 -0.32113083874E+02  0.52587334856E+02 -0.26333500897E+03  0.27048008668E+03  0.41800000000E+01 0. -1.
        -11    1    1    2    0    0  0.31101320782E+02 -0.28166372478E+02 -0.69279515729E+02  0.80995604774E+02  0.00000000000E+00 0.  1.
         11    1    1    2    0    0  0.11449704936E+02  0.46258517840E+02 -0.18731971156E+03  0.19328636930E+03  0.00000000000E+00 0. -1.
</event>
<event>
 7    1  0.2842702E-009  0.9136298E+02  0.7561462E-02  0.1299584E+00
          1   -1    0    0  501    0  0.00000000000E+00  0.00000000000E+00  0.12623573499E+03  0.12623573499E+03  0.00000000000E+00 0. -1.
         -1   -1    0    0    0  501 -0.00000000000E+00 -0.00000000000E+00 -0.11432666511E+03  0.11432666511E+03  0.00000000000E+00 0.  1.
         25    2    1    2    0    0  0.34713054145E+01 -0.45487695636E+02  0.30008676565E+02  0.13648393421E+03  0.12508462420E+03 0.  0.
          5    1    3    3  502    0  0.28575387294E+01 -0.87891684035E+02  0.76727311218E+01  0.88371131332E+02  0.41800000000E+01 0. -1.
         -5    1    3    3    0  502  0.61376668512E+00  0.42403988399E+02  0.22335945443E+02  0.48112802876E+02  0.41800000000E+01 0. -1.
        -11    1    1    2    0    0 -0.12529363326E+02  0.11874567124E+02 -0.52422359437E+02  0.55191431026E+02  0.00000000000E+00 0.  1.
         11    1    1    2    0    0  0.90580579116E+01  0.33613128512E+02  0.34322752748E+02  0.48887034863E+02  0.00000000000E+00 0. -1.
</event>
<event>
 7    1  0.2842702E-009  0.1112598E+03  0.7561462E-02  0.1258255E+00
          2   -1    0    0  501    0  0.00000000000E+00  0.00000000000E+00  0.22399296503E+03  0.22399296503E+03  0.00000000000E+00 0. -1.
         -2   -1    0    0    0  501 -0.00000000000E+00 -0.00000000000E+00 -0.92161166244E+02  0.92161166244E+02  0.00000000000E+00 0.  1.
         25    2    1    2    0    0 -0.12030154277E+02 -0.43704869714E+02 -0.18352632021E+02  0.13430988412E+03  0.12508991015E+03 0.  0.
          5    1    3    3  502    0 -0.11382801591E+02  0.39412648397E+02 -0.28991758984E+02  0.50407534305E+02  0.41800000000E+01 0. -1.
         -5    1    3    3    0  502 -0.64735268529E+00 -0.83117518111E+02  0.10639126962E+02  0.83902349818E+02  0.41800000000E+01 0. -1.
        -11    1    1    2    0    0  0.42635240979E+02 -0.24197629560E+01  0.92579436493E+02  0.10195376936E+03  0.00000000000E+00 0. -1.
         11    1    1    2    0    0 -0.30605086703E+02  0.46124632670E+02  0.57604994315E+02  0.79890477787E+02  0.00000000000E+00 0.  1.
</event>
<event>
 7    1  0.2842702E-009  0.1315465E+03  0.7561462E-02  0.1225179E+00
          2   -1    0    0  501    0  0.00000000000E+00  0.00000000000E+00  0.32245318631E+03  0.32245318631E+03  0.00000000000E+00 0. -1.
         -2   -1    0    0    0  501 -0.00000000000E+00 -0.00000000000E+00 -0.83539406487E+02  0.83539406487E+02  0.00000000000E+00 0.  1.
         25    2    1    2    0    0 -0.11249193330E+03 -0.36987589697E+02  0.86410473591E+02  0.19269295301E+03  0.12506513241E+03 0.  0.
          5    1    3    3  502    0 -0.25988084623E+02 -0.50565896511E+02  0.88191716840E+02  0.10501210288E+03  0.41800000000E+01 0.  1.
         -5    1    3    3    0  502 -0.86503848679E+02  0.13578306813E+02 -0.17812432485E+01  0.87680850131E+02  0.41800000000E+01 0.  1.
        -11    1    1    2    0    0  0.44402769495E+02  0.13944850146E+02  0.20846211495E+01  0.46587663922E+02  0.00000000000E+00 0.  1.
         11    1    1    2    0    0  0.68089163807E+02  0.23042739551E+02  0.15041868508E+03  0.16671197586E+03  0.00000000000E+00 0. -1.
</event>
<event>
 7    1  0.2842702E-009  0.9426284E+02  0.7561462E-02  0.1292845E+00
          1   -1    0    0  501    0  0.00000000000E+00  0.00000000000E+00  0.93380341357E+02  0.93380341357E+02  0.00000000000E+00 0. -1.
         -1   -1    0    0    0  501 -0.00000000000E+00 -0.00000000000E+00 -0.19667522324E+03  0.19667522324E+03  0.00000000000E+00 0.  1.
         25    2    1    2    0    0 -0.48166040016E+02  0.16735224979E+02  0.11813999554E+02  0.13560149187E+03  0.12509260108E+03 0.  0.
          5    1    3    3  502    0 -0.88007555100E+02 -0.48932271885E+01 -0.12045661083E+01  0.88250760940E+02  0.41800000000E+01 0. -1.
         -5    1    3    3    0  502  0.39841515084E+02  0.21628452167E+02  0.13018565663E+02  0.47350730927E+02  0.41800000000E+01 0. -1.
        -11    1    1    2    0    0  0.15527839553E+02 -0.15730672591E+02 -0.11948160494E+03  0.12150893704E+03  0.00000000000E+00 0.  1.
         11    1    1    2    0    0  0.32638200463E+02 -0.10045523878E+01  0.43727235022E+01  0.32945135692E+02  0.00000000000E+00 0. -1.
</event>
<event>
 7    1  0.2842702E-009  0.1196482E+03  0.7561462E-02  0.1243679E+00
         -4   -1    0    0    0  501 -0.00000000000E+00  0.00000000000E+00  0.23622821987E+03  0.23622821987E+03  0.00000000000E+00 0. -1.
          4   -1    0    0  501    0  0.00000000000E+00 -0.00000000000E+00 -0.80865937758E+02  0.80865937758E+02  0.00000000000E+00 0.  1.
         25    2    1    2    0    0  0.14987180661E+02  0.54222024705E+02  0.15887389438E+03  0.20988691529E+03  0.12508780655E+03 0.  0.
          5    1    3    3  502    0 -0.53152057957E+02  0.36283195056E+02  0.57773856628E+02  0.86584654635E+02  0.41800000000E+01 0. -1.
         -5    1    3    3    0  502  0.68139238618E+02  0.17938829649E+02  0.10110003776E+03  0.12330226066E+03  0.41800000000E+01 0. -1.
        -11    1    1    2    0    0 -0.19597951079E+02  0.21076947396E+02 -0.12217918104E+02  0.31266514370E+02  0.00000000000E+00 0.  1.
         11    1    1    2    0    0  0.46107704183E+01 -0.75298972102E+02  0.87063058369E+01  0.75940727971E+02  0.00000000000E+00 0. -1.
</event>
<event>
 7    1  0.2842702E-009  0.1060415E+03  0.7561462E-02  0.1268081E+00
          3   -1    0    0  501    0  0.00000000000E+00  0.00000000000E+00  0.95830711682E+02  0.95830711682E+02  0.00000000000E+00 0. -1.
         -3   -1    0    0    0  501 -0.00000000000E+00 -0.00000000000E+00 -0.18404046695E+03  0.18404046695E+03  0.00000000000E+00 0.  1.
         25    2    1    2    0    0 -0.96356170678E+01 -0.63275781137E+02 -0.93437678444E+02  0.16876424472E+03  0.12511634964E+03 0.  0.
          5    1    3    3  502    0 -0.42976058579E+02  0.20530385874E+02 -0.47749578797E+02  0.67571688083E+02  0.41800000000E+01 0. -1.
         -5    1    3    3    0  502  0.33340441511E+02 -0.83806167011E+02 -0.45688099647E+02  0.10119255664E+03  0.41800000000E+01 0. -1.
        -11    1    1    2    0    0 -0.13087377290E+02  0.11439034709E+02  0.40737928509E+02  0.44291193014E+02  0.00000000000E+00 0. -1.
         11    1    1    2    0    0  0.22722994358E+02  0.51836746428E+02 -0.35510005330E+02  0.66815740896E+02  0.00000000000E+00 0.  1.
</event>
<event>
 7    1  0.2842702E-009  0.9815984E+02  0.7561462E-02  0.1284214E+00
          1   -1    0    0  501    0  0.00000000000E+00  0.00000000000E+00  0.29965393627E+02  0.29965393627E+02  0.00000000000E+00 0. -1.
         -1   -1    0    0    0  501 -0.00000000000E+00 -0.00000000000E+00 -0.45587636022E+03  0.45587636022E+03  0.00000000000E+00 0.  1.
         25    2    1    2    0    0 -0.37051202513E+02  0.15112213666E+02 -0.27954419647E+03  0.30885868265E+03  0.12509019730E+03 0.  0.
          5    1    3    3  502    0  0.43749128555E+02  0.22820135132E+02 -0.92543537375E+02  0.10495962808E+03  0.41800000000E+01 0.  1.
         -5    1    3    3    0  502 -0.80800331068E+02 -0.77079214660E+01 -0.18700065909E+03  0.20389905457E+03  0.41800000000E+01 0.  1.
        -11    1    1    2    0    0  0.17223575959E+02  0.19263813824E+02 -0.53301697022E+00  0.25846280176E+02  0.00000000000E+00 0. -1.
         11    1    1    2    0    0  0.19827626555E+02 -0.34376027490E+02 -0.14583375315E+03  0.15113679102E+03  0.00000000000E+00 0.  1.
</event>
<event>
 7    1  0.2842702E-009  0.1413901E+03  0.7561462E-02  0.1211471E+00
          1   -1    0    0  501    0  0.00000000000E+00  0.00000000000E+00  0.19753403816E+03  0.19753403816E+03  0.00000000000E+00 0. -1.
         -1   -1    0    0    0  501 -0.00000000000E+00 -0.00000000000E+00 -0.16722612227E+03  0.16722612227E+03  0.00000000000E+00 0.  1.
         25    2    1    2    0    0 -0.85347802578E+02  0.77007840525E+02 -0.72939134441E+02  0.18488401429E+03  0.12509007354E+03 0.  0.
          5    1    3    3  502    0 -0.54950510684E+01  0.86727820938E+02 -0.22571772913E+02  0.89882522457E+02  0.41800000000E+01 0.  1.
         -5    1    3    3    0  502 -0.79852751509E+02 -0.97199804121E+01 -0.50367361528E+02  0.95001491831E+02  0.41800000000E+01 0.  1.
        -11    1    1    2    0    0  0.48812779053E+02 -0.49271354870E+02  0.11336916268E+03  0.13290192195E+03  0.00000000000E+00 0. -1.
         11    1    1    2    0    0  0.36535023525E+02 -0.27736485656E+02 -0.10122112345E+02  0.46974224196E+02  0.00000000000E+00 0.  1.
</event>
<event>
 7    1  0.2842702E-009  0.8836058E+02  0.7561462E-02  0.1306871E+00
         -2   -1    0    0    0  501 -0.00000000000E+00  0.00000000000E+00  0.13577835615E+02  0.13577835615E+02  0.00000000000E+00 0.  1.
          2   -1    0    0  501    0  0.00000000000E+00 -0.00000000000E+00 -0.10131413060E+04  0.10131413060E+04  0.00000000000E+00 0. -1.
         25    2    1    2    0    0  0.23866162588E+02  0.24104476035E+02 -0.67523878760E+03  0.68756580561E+03  0.12509475321E+03 0.  0.
          5    1    3    3  502    0  0.48777375305E+02 -0.46453638381E+01 -0.60963736321E+03  0.61161752654E+03  0.41800000000E+01 0. -1.
         -5    1    3    3    0  502 -0.24911212717E+02  0.28749839873E+02 -0.65601424388E+02  0.75948279068E+02  0.41800000000E+01 0. -1.
        -11    1    1    2    0    0 -0.21782251468E+02  0.28922367138E+02 -0.64528529886E+02  0.73992573744E+02  0.00000000000E+00 0.  1.
         11    1    1    2    0    0 -0.20839111203E+01 -0.53026843173E+02 -0.25979615286E+03  0.26516076222E+03  0.00000000000E+00 0. -1.
</event>
<event>
 7    1  0.2842702E-009  0.8438718E+02  0.7561462E-02  0.1317043E+00
         -1   -1    0    0    0  501 -0.00000000000E+00  0.00000000000E+00  0.25225362568E+03  0.25225362568E+03  0.00000000000E+00 0.  1.
          1   -1    0    0  501    0  0.00000000000E+00 -0.00000000000E+00 -0.64354440298E+02  0.64354440298E+02  0.00000000000E+00 0. -1.
         25    2    1    2    0    0  0.75892348917E+01  0.50565321326E+02  0.14784953384E+03  0.20030317153E+03  0.12508967848E+03 0.  0.
          5    1    3    3  502    0 -0.20742260567E+02  0.31142576336E+01 -0.16402249918E+02  0.26952665479E+02  0.41800000000E+01 0. -1.
         -5    1    3    3    0  502  0.28331495459E+02  0.47451063692E+02  0.16425178376E+03  0.17335050605E+03  0.41800000000E+01 0. -1.
        -11    1    1    2    0    0 -0.21838191809E+02 -0.66849258135E+02  0.55607486021E+02  0.89654461329E+02  0.00000000000E+00 0.  1.
         11    1    1    2    0    0  0.14248956917E+02  0.16283936809E+02 -0.15557834484E+02  0.26650433112E+02  0.00000000000E+00 0. -1.
</event>
<event>
 7    1  0.2842702E-009  0.1430647E+03  0.7561462E-02  0.1209264E+00
          1   -1    0    0  501    0  0.00000000000E+00  0.00000000000E+00  0.28889116212E+02  0.28889116212E+02  0.00000000000E+00 0. -1.
         -1   -1    0    0    0  501 -0.00000000000E+00 -0.00000000000E+00 -0.92191468529E+03  0.92191468529E+03  0.00000000000E+00 0.  1.
         25    2    1    2    0    0 -0.12053311315E+03 -0.49269987034E+01 -0.44438089879E+03  0.47715200742E+03  0.12508856179E+03 0.  0.
          5    1    3    3  502    0 -0.10200639208E+03  0.37288729764E+02 -0.39407362327E+03  0.40878753203E+03  0.41800000000E+01 0. -1.
         -5    1    3    3    0  502 -0.18526721079E+02 -0.42215728468E+02 -0.50307275524E+02  0.68364475385E+02  0.41800000000E+01 0. -1.
        -11    1    1    2    0    0  0.47682157715E+02 -0.23238255635E+02 -0.31012916802E+03  0.31463265175E+03  0.00000000000E+00 0. -1.
         11    1    1    2    0    0  0.72850955440E+02  0.28165254339E+02 -0.13851550227E+03  0.15901914234E+03  0.00000000000E+00 0.  1.
</event>
<event>
 7    1  0.2842702E-009  0.1277216E+03  0.7561462E-02  0.1230876E+00
         -1   -1    0    0    0  501 -0.00000000000E+00  0.00000000000E+00  0.86984640682E+02  0.86984640682E+02  0.00000000000E+00 0.  1.
          1   -1    0    0  501    0  0.00000000000E+00 -0.00000000000E+00 -0.46770934272E+03  0.46770934272E+03  0.00000000000E+00 0. -1.
         25    2    1    2    0    0 -0.84384466054E+02  0.19485984151E+02  0.33938302279E+00  0.15214014727E+03  0.12508424178E+03 0.  0.
          5    1    3    3  502    0 -0.71215309294E+02 -0.40603367820E+02 -0.24508224312E+02  0.85664340394E+02  0.41800000000E+01 0.  1.
         -5    1    3    3    0  502 -0.13169156760E+02  0.60089351971E+02  0.24847607335E+02  0.66475806880E+02  0.41800000000E+01 0.  1.
        -11    1    1    2    0    0  0.46119461497E+02 -0.46008290127E+02 -0.11263406753E+03  0.13011610453E+03  0.00000000000E+00 0.  1.
         11    1    1    2    0    0  0.38265004557E+02  0.26522305976E+02 -0.26843001753E+03  0.27243773160E+03  0.00000000000E+00 0. -1.
</event>
<event>
 7    1  0.2842702E-009  0.1030513E+03  0.7561462E-02  0.1274007E+00
          1   -1    0    0  501    0  0.00000000000E+00  0.00000000000E+00  0.24565180867E+02  0.24565180867E+02  0.00000000000E+00 0. -1.
         -1   -1    0    0    0  501 -0.00000000000E+00 -0.00000000000E+00 -0.51285550243E+03  0.51285550243E+03  0.00000000000E+00 0.  1.
         25    2    1    2    0    0  0.96280817890E+01  0.14529150101E+02 -0.23036989657E+03  0.26271919223E+03  0.12508912247E+03 0.  0.
          5    1    3    3  502    0  0.45093158170E+02 -0.34176164063E+02 -0.16120510339E+03  0.17089751567E+03  0.41800000000E+01 0.  1.
         -5    1    3    3    0  502 -0.35465076381E+02  0.48705314164E+02 -0.69164793183E+02  0.91821676561E+02  0.41800000000E+01 0.  1.
        -11    1    1    2    0    0  0.31172871328E+02 -0.31923662055E+02 -0.17573880535E+03  0.18131463210E+03  0.00000000000E+00 0.  1.
         11    1    1    2    0    0 -0.40800953117E+02  0.17394511954E+02 -0.82181619638E+02  0.93386858967E+02  0.00000000000E+00 0. -1.
</event>
<event>
 7    1  0.2842702E-009  0.1870477E+03  0.7561462E-02  0.1161151E+00
          2   -1    0    0  501    0  0.00000000000E+00  0.00000000000E+00  0.23298067868E+04  0.23298067868E+04  0.00000000000E+00 0. -1.
         -2   -1    0    0    0  501 -0.00000000000E+00 -0.00000000000E+00 -0.19925059772E+02  0.19925059772E+02  0.00000000000E+00 0.  1.
         25    2    1    2    0    0 -0.15147219428E+03 -0.80973305216E+02  0.15186917660E+04  0.15334836620E+04  0.12508780754E+03 0.  0.
          5    1    3    3  502    0 -0.10077925553E+03 -0.65407115235E+02  0.13752859108E+04  0.13805301004E+04  0.41800000000E+01 0.  1.
         -5    1    3    3    0  502 -0.50692938758E+02 -0.15566189981E+02  0.14340585515E+03  0.15295356158E+03  0.41800000000E+01 0.  1.
        -11    1    1    2    0    0 -0.16063300002E+02  0.61455506829E+01  0.70372667690E+02  0.72443838647E+02  0.00000000000E+00 0.  1.
         11    1    1    2    0    0  0.16753549429E+03  0.74827754533E+02  0.72081729333E+03  0.74380434595E+03  0.00000000000E+00 0. -1.
</event>
<event>
 7    1  0.3821261E-009  0.1505150E+03  0.7561462E-02  0.1199842E+00
          2   -1    0    0  501    0  0.00000000000E+00  0.00000000000E+00  0.86268608170E+03  0.86268608170E+03  0.00000000000E+00 0. -1.
         -2   -1    0    0    0  501 -0.00000000000E+00 -0.00000000000E+00 -0.39191565758E+02  0.39191565758E+02  0.00000000000E+00 0.  1.
         25    2    1    2    0    0 -0.61109209738E+02  0.12963010456E+03  0.52127017688E+03  0.55489559262E+03  0.12509285307E+03 0.  0.
          5    1    3    3  502    0 -0.34112284491E+02  0.60974982282E+02  0.43804617363E+03  0.44360288440E+03  0.41800000000E+01 0. -1.
         -5    1    3    3    0  502 -0.26996925247E+02  0.68655122273E+02  0.83224003252E+02  0.11129270823E+03  0.41800000000E+01 0. -1.
        -11    1    1    2    0    0  0.83982340738E+01 -0.91996726034E+02  0.24001123115E+03  0.25717565790E+03  0.00000000000E+00 0. -1.
         11    1    1    2    0    0  0.52710975664E+02 -0.37633378521E+02  0.62213107913E+02  0.89806396935E+02  0.00000000000E+00 0.  1.
</event>
<event>
 7    1  0.2842702E-009  0.1447102E+03  0.7561462E-02  0.1207128E+00
          2   -1    0    0  501    0  0.00000000000E+00  0.00000000000E+00  0.92933527886E+03  0.92933527886E+03  0.00000000000E+00 0. -1.
         -2   -1    0    0    0  501 -0.00000000000E+00 -0.00000000000E+00 -0.34647484374E+02  0.34647484374E+02  0.00000000000E+00 0.  1.
         25    2    1    2    0    0  0.55135144029E+02  0.11833743764E+03  0.31859956690E+03  0.36632923846E+03  0.12509114146E+03 0.  0.
          5    1    3    3  502    0 -0.55327663009E+01 -0.11152106760E+02  0.12458267752E+03  0.12527288983E+03  0.41800000000E+01 0.  1.
         -5    1    3    3    0  502  0.60667910330E+02  0.12948954440E+03  0.19401688938E+03  0.24105634864E+03  0.41800000000E+01 0.  1.
        -11    1    1    2    0    0 -0.87742577839E+01 -0.49274070772E+02  0.78062323432E+02  0.92728895117E+02  0.00000000000E+00 0.  1.
         11    1    1    2    0    0 -0.46360886245E+02 -0.69063366872E+02  0.49802590416E+03  0.50492462966E+03  0.00000000000E+00 0. -1.
</event>
<event>
 7    1  0.2842702E-009  0.2331184E+03  0.7561462E-02  0.1124464E+00
          2   -1    0    0  501    0  0.00000000000E+00  0.00000000000E+00  0.10545730695E+04  0.10545730695E+04  0.00000000000E+00 0. -1.
         -2   -1    0    0    0  501 -0.00000000000E+00 -0.00000000000E+00 -0.61541115068E+02  0.61541115068E+02  0.00000000000E+00 0.  1.
         25    2    1    2    0    0 -0.69088161755E+02 -0.21939769276E+03  0.53722617362E+03  0.59763543562E+03  0.12509048965E+03 0.  0.
          5    1    3    3  502    0 -0.58431365505E+02 -0.98531650805E+02  0.39163505219E+03  0.40806641272E+03  0.41800000000E+01 0. -1.
         -5    1    3    3    0  502 -0.10656796250E+02 -0.12086604195E+03  0.14559112143E+03  0.18956902290E+03  0.41800000000E+01 0. -1.
        -11    1    1    2    0    0  0.39420724901E+02  0.13983781148E+03  0.37116310171E+03  0.39858581905E+03  0.00000000000E+00 0. -1.
         11    1    1    2    0    0  0.29667436855E+02  0.79559881270E+02  0.84642679117E+02  0.11989292992E+03  0.00000000000E+00 0.  1.
</event>
<event>
 7    1  0.2842702E-009  0.1282259E+03  0.7561462E-02  0.1230112E+00
          1   -1    0    0  501    0  0.00000000000E+00  0.00000000000E+00  0.25227274667E+03  0.25227274667E+03  0.00000000000E+00 0. -1.
         -1   -1    0    0    0  501 -0.00000000000E+00 -0.00000000000E+00 -0.68028383544E+02  0.68028383544E+02  0.00000000000E+00 0.  1.
         25    2    1    2    0    0 -0.46529680833E+02 -0.50110720260E+02  0.70697722956E+02  0.15912404794E+03  0.12508476774E+03 0.  0.
          5    1    3    3  502    0 -0.86706832052E+02 -0.13173928623E+02  0.44812284071E+02  0.98576063644E+02  0.41800000000E+01 0. -1.
         -5    1    3    3    0  502  0.40177151219E+02 -0.36936791637E+02  0.25885438885E+02  0.60547984300E+02  0.41800000000E+01 0. -1.
        -11    1    1    2    0    0 -0.44848080935E+01  0.61484219518E+02  0.54089499028E+02  0.82012783507E+02  0.00000000000E+00 0.  1.
         11    1    1    2    0    0  0.51014488926E+02 -0.11373499258E+02  0.59457141137E+02  0.79164298759E+02  0.00000000000E+00 0. -1.
</event>
<event>
 7    1  0.2842702E-009  0.8236052E+02  0.7561462E-02  0.1322483E+00
         -1   -1    0    0    0  501 -0.00000000000E+00  0.00000000000E+00  0.55679980488E+02  0.55679980488E+02  0.00000000000E+00 0.  1.
          1   -1    0    0  501    0  0.00000000000E+00 -0.00000000000E+00 -0.26279699440E+03  0.26279699440E+03  0.00000000000E+00 0. -1.
         25    2    1    2    0    0 -0.45879498056E+02  0.10853845748E+02 -0.84096645631E+02  0.15793693835E+03  0.12509634839E+03 0.  0.
          5    1    3    3  502    0 -0.27674707036E+02  0.39407863882E+02 -0.10661173143E+03  0.11705726301E+03  0.41800000000E+01 0.  1.
         -5    1    3    3    0  502 -0.18204791020E+02 -0.28554018134E+02  0.22515085795E+02  0.40879675342E+02  0.41800000000E+01 0.  1.
        -11    1    1    2    0    0 -0.96931150107E+01  0.17403285273E+02 -0.85470173432E+02  0.87760933013E+02  0.00000000000E+00 0. -1.
         11    1    1    2    0    0  0.55572613066E+02 -0.28257131020E+02 -0.37550194849E+02  0.72779103524E+02  0.00000000000E+00 0.  1.
</event>
<event>
 7    1  0.2842702E-009  0.9076728E+02  0.7561462E-02  0.1301004E+00
         -2   -1    0    0    0  501 -0.00000000000E+00  0.00000000000E+00  0.47336862738E+02  0.47336862738E+02  0.00000000000E+00 0.  1.
          2   -1    0    0  501    0  0.00000000000E+00 -0.00000000000E+00 -0.33088603448E+03  0.33088603448E+03  0.00000000000E+00 0. -1.
         25    2    1    2    0    0  0.58372374480E+02  0.12395009670E+02 -0.16694662461E+03  0.21697767956E+03  0.12508863893E+03 0.  0.
          5    1    3    3  502    0  0.20634357169E+02  0.22876585782E+02 -0.17417750211E+03  0.17693046520E+03  0.41800000000E+01 0.  1.
         -5    1    3    3    0  502  0.37738017311E+02 -0.10481576112E+02  0.72308775039E+01  0.40047214358E+02  0.41800000000E+01 0.  1.
        -11    1    1    2    0    0 -0.81360837641E+02 -0.24638917960E+02 -0.94237330363E+02  0.12691468242E+03  0.00000000000E+00 0.  1.
         11    1    1    2    0    0  0.22988463161E+02  0.12243908290E+02 -0.22365216767E+02  0.34330535238E+02  0.00000000000E+00 0. -1.
</event>
<event>
 7    1  0.2842702E-009  0.1840698E+03  0.7561462E-02  0.1163921E+00
          2   -1    0    0  501    0  0.00000000000E+00  0.00000000000E+00  0.10351295119E+03  0.10351295119E+03  0.00000000000E+00 0. -1.
         -2   -1    0    0    0  501 -0.00000000000E+00 -0.00000000000E+00 -0.43751598261E+03  0.43751598261E+03  0.00000000000E+00 0.  1.
         25    2    1    2    0    0  0.15152694115E+03 -0.11533465854E+02 -0.44308480000E+02  0.20175022493E+03  0.12508587903E+03 0.  0.
          5    1    3    3  502    0  0.54697180134E+02  0.54559987018E+02 -0.31670002267E+01  0.77434333396E+02  0.41800000000E+01 0. -1.
         -5    1    3    3    0  502  0.96829761015E+02 -0.66093452873E+02 -0.41141479773E+02  0.12431589154E+03  0.41800000000E+01 0. -1.
        -11    1    1    2    0    0  0.50124082021E+01 -0.13982624082E+02 -0.10539995956E+02  0.18213443577E+02  0.00000000000E+00 0. -1.
         11    1    1    2    0    0 -0.15653934935E+03  0.25516089936E+02 -0.27915455547E+03  0.32106526530E+03  0.00000000000E+00 0.  1.
</event>
<event>
 7    1  0.2842702E-009  0.1882469E+03  0.7561462E-02  0.1160052E+00
          2   -1    0    0  501    0  0.00000000000E+00  0.00000000000E+00  0.98255969742E+02  0.98255969742E+02  0.00000000000E+00 0.  1.
         -2   -1    0    0    0  501 -0.00000000000E+00 -0.00000000000E+00 -0.53247846916E+03  0.53247846916E+03  0.00000000000E+00 0. -1.
         25    2    1    2    0    0 -0.15268615652E+03 -0.31388377421E+02 -0.39823691295E+03  0.44557814466E+03  0.12509576944E+03 0.  0.
          5    1    3    3  502    0 -0.16321410120E+03 -0.55287225624E+02 -0.35929274357E+03  0.39850253215E+03  0.41800000000E+01 0.  1.
         -5    1    3    3    0  502  0.10527944678E+02  0.23898848203E+02 -0.38944169380E+02  0.47075612511E+02  0.41800000000E+01 0.  1.
        -11    1    1    2    0    0  0.10531178803E+02  0.33896508364E+02  0.78939918682E+01  0.36361987210E+02  0.00000000000E+00 0.  1.
         11    1    1    2    0    0  0.14215497772E+03 -0.25081309430E+01 -0.43879578336E+02  0.14879430703E+03  0.00000000000E+00 0. -1.
</event>
<event>
 7    1  0.2842702E-009  0.1040040E+03  0.7561462E-02  0.1272095E+00
         -4   -1    0    0    0  501 -0.00000000000E+00  0.00000000000E+00  0.45944227741E+03  0.45944227741E+03  0.00000000000E+00 0.  1.
          4   -1    0    0  501    0  0.00000000000E+00 -0.00000000000E+00 -0.26936467999E+02  0.26936467999E+02  0.00000000000E+00 0. -1.
         25    2    1    2    0    0 -0.12035520100E+02  0.19496058560E+02  0.22099563760E+03  0.25497388180E+03  0.12509060125E+03 0.  0.
          5    1    3    3  502    0 -0.23988072887E+02 -0.50018180206E+02  0.11242554587E+03  0.12543612620E+03  0.41800000000E+01 0.  1.
         -5    1    3    3    0  502  0.11952552787E+02  0.69514238766E+02  0.10857009173E+03  0.12953775560E+03  0.41800000000E+01 0.  1.
        -11    1    1    2    0    0 -0.25382188879E+02 -0.33270502006E+02  0.50771128149E+02  0.65794295114E+02  0.00000000000E+00 0. -1.
         11    1    1    2    0    0  0.37417708979E+02  0.13774443445E+02  0.16073904366E+03  0.16561056849E+03  0.00000000000E+00 0.  1.
</event>
<event>
 7    1  0.2842702E-009  0.2309771E+03  0.7561462E-02  0.1125954E+00
         -2   -1    0    0    0  501 -0.00000000000E+00  0.00000000000E+00  0.41585265968E+02  0.41585265968E+02  0.00000000000E+00 0.  1.
          2   -1    0    0  501    0  0.00000000000E+00 -0.00000000000E+00 -0.19957380004E+04  0.19957380004E+04  0.00000000000E+00 0. -1.
         25    2    1    2    0    0  0.10713183266E+03 -0.19017873800E+03 -0.15414622574E+04  0.15618574742E+04  0.12509075520E+03 0.  0.
          5    1    3    3  502    0  0.14827050746E+02 -0.10880596039E+03 -0.43915602656E+03  0.45269643970E+03  0.41800000000E+01 0. -1.
         -5    1    3    3    0  502  0.92304781916E+02 -0.81372777610E+02 -0.11023062308E+04  0.11091610345E+04  0.41800000000E+01 0. -1.
        -11    1    1    2    0    0 -0.88133657794E+01  0.83118172312E+02 -0.21016998961E+03  0.22618074745E+03  0.00000000000E+00 0.  1.
         11    1    1    2    0    0 -0.98318466883E+02  0.10706056569E+03 -0.20252048748E+03  0.24928504469E+03  0.00000000000E+00 0. -1.
</event>
<event>
 7    1  0.2842702E-009  0.1334648E+03  0.7561462E-02  0.1222403E+00
         -1   -1    0    0    0  501 -0.00000000000E+00  0.00000000000E+00  0.38558695179E+03  0.38558695179E+03  0.00000000000E+00 0.  1.
          1   -1    0    0  501    0  0.00000000000E+00 -0.00000000000E+00 -0.62279333634E+02  0.62279333634E+02  0.00000000000E+00 0. -1.
         25    2    1    2    0    0 -0.27814891448E+01 -0.10371635116E+03  0.22549402247E+03  0.27795498457E+03  0.12508637455E+03 0.  0.
          5    1    3    3  502    0 -0.15438347173E+02 -0.12628241884E+03  0.21472619543E+03  0.24962051854E+03  0.41800000000E+01 0.  1.
         -5    1    3    3    0  502  0.12656858028E+02  0.22566067685E+02  0.10767827039E+02  0.28334466027E+02  0.41800000000E+01 0.  1.
        -11    1    1    2    0    0 -0.21360882420E+02  0.56411167810E+02  0.99969512873E+02  0.11675791474E+03  0.00000000000E+00 0.  1.
         11    1    1    2    0    0  0.24142371565E+02  0.47305183348E+02 -0.21559171848E+01  0.53153386113E+02  0.00000000000E+00 0. -1.
</event>
<event>
 7    1  0.2842702E-009  0.1061052E+03  0.7561462E-02  0.1267957E+00
          2   -1    0    0  501    0  0.00000000000E+00  0.00000000000E+00  0.25707490637E+03  0.25707490637E+03  0.00000000000E+00 0. -1.
         -2   -1    0    0    0  501 -0.00000000000E+00 -0.00000000000E+00 -0.70386664209E+02  0.70386664209E+02  0.00000000000E+00 0.  1.
         25    2    1    2    0    0 -0.61792393419E+02 -0.13818844294E+02  0.15999678365E+03  0.21273518816E+03  0.12509208272E+03 0.  0.
          5    1    3    3  502    0  0.37981718607E+02 -0.75534910451E+01  0.32951146746E+02  0.51018787199E+02  0.41800000000E+01 0.  1.
         -5    1    3    3    0  502 -0.99774112026E+02 -0.62653532486E+01  0.12704563691E+03  0.16171640096E+03  0.41800000000E+01 0.  1.
        -11    1    1    2    0    0  0.15301308987E+02  0.21182837568E+02  0.54225966280E+02  0.60193837585E+02  0.00000000000E+00 0. -1.
         11    1    1    2    0    0  0.46491084432E+02 -0.73639932741E+01 -0.27534507770E+02  0.54532544840E+02  0.00000000000E+00 0.  1.
</event>
<event>
 7    1  0.2842702E-009  0.1061679E+03  0.7561462E-02  0.1267835E+00
          1   -1    0    0  501    0  0.00000000000E+00  0.00000000000E+00  0.10853754434E+03  0.10853754434E+03  0.00000000000E+00 0. -1.
         -1   -1    0    0    0  501 -0.00000000000E+00 -0.00000000000E+00 -0.11776691589E+03  0.11776691589E+03  0.00000000000E+00 0.  1.
         25    2    1    2    0    0 -0.27070601009E+02  0.71218847589E+01 -0.38473610974E+01  0.12824106785E+03  0.12508969028E+03 0.  0.
          5    1    3    3  502    0 -0.19572795680E+02  0.62853043449E+02 -0.21128771965E+02  0.69263964702E+02  0.41800000000E+01 0.  1.
         -5    1    3    3    0  502 -0.74978053285E+01 -0.55731158690E+02  0.17281410867E+02  0.58977103144E+02  0.41800000000E+01 0.  1.
        -11    1    1    2    0    0 -0.27822480245E+02 -0.19167262274E+02 -0.20942296662E+02  0.39749894836E+02  0.00000000000E+00 0.  1.
         11    1    1    2    0    0  0.54893081253E+02  0.12045377515E+02  0.15560286216E+02  0.58313497546E+02  0.00000000000E+00 0. -1.
</event>
<event>
 7    1  0.5679868E-009  0.2385439E+03  0.7561462E-02  0.1120767E+00
         -2   -1    0    0    0  501 -0.00000000000E+00  0.00000000000E+00  0.10640446609E+03  0.10640446609E+03  0.00000000000E+00 0.  1.
          2   -1    0    0  501    0  0.00000000000E+00 -0.00000000000E+00 -0.58678550977E+03  0.58678550977E+03  0.00000000000E+00 0. -1.
         25    2    1    2    0    0 -0.13946225497E+03 -0.17559674655E+03 -0.22367269099E+03  0.34052944637E+03  0.12508754212E+03 0.  0.
          5    1    3    3  502    0 -0.50442042101E+02 -0.14823742697E+03 -0.17672322705E+03  0.23615102317E+03  0.41800000000E+01 0.  1.
         -5    1    3    3    0  502 -0.89020212865E+02 -0.27359319583E+02 -0.46949463943E+02  0.10437842321E+03  0.41800000000E+01 0.  1.
        -11    1    1    2    0    0  0.50686527499E+02  0.37486617131E+02 -0.23126907184E+02  0.67150758520E+02  0.00000000000E+00 0.  1.
         11    1    1    2    0    0  0.88775727467E+02  0.13811012942E+03 -0.23358144550E+03  0.28550977097E+03  0.00000000000E+00 0. -1.
</event>
<event>
 7    1  0.2842702E-009  0.1907636E+03  0.7561462E-02  0.1157774E+00
         -2   -1    0    0    0  501 -0.00000000000E+00  0.00000000000E+00  0.55940829877E+02  0.55940829877E+02  0.00000000000E+00 0.  1.
          2   -1    0    0  501    0  0.00000000000E+00 -0.00000000000E+00 -0.85829652970E+03  0.85829652970E+03  0.00000000000E+00 0. -1.
         25    2    1    2    0    0  0.14814273969E+03 -0.63335452299E+02 -0.63175004702E+03  0.66386251279E+03  0.12509061971E+03 0.  0.
          5    1    3    3  502    0 -0.20531540078E+02 -0.12253226057E+02 -0.12471045337E+03  0.12705060121E+03  0.41800000000E+01 0. -1.
         -5    1    3    3    0  502  0.16867427976E+03 -0.51082226241E+02 -0.50703959365E+03  0.53681191158E+03  0.41800000000E+01 0. -1.
        -11    1    1    2    0    0 -0.11247002160E+03  0.49922393532E+01 -0.86487202404E+02  0.14196641994E+03  0.00000000000E+00 0.  1.
         11    1    1    2    0    0 -0.35672718086E+02  0.58343212946E+02 -0.84118450397E+02  0.10840842684E+03  0.00000000000E+00 0. -1.
</event>
<event>
 7    1  0.2842702E-009  0.9628351E+02  0.7561462E-02  0.1288311E+00
          2   -1    0    0  501    0  0.00000000000E+00  0.00000000000E+00  0.20743138468E+03  0.20743138468E+03  0.00000000000E+00 0. -1.
         -2   -1    0    0    0  501 -0.00000000000E+00 -0.00000000000E+00 -0.10738971484E+03  0.10738971484E+03  0.00000000000E+00 0.  1.
         25    2    1    2    0    0  0.12183207796E+02 -0.85342512350E+02 -0.47270831682E+01  0.15199168779E+03  0.12508937955E+03 0.  0.
          5    1    3    3  502    0  0.23450339820E+02 -0.75546432056E+02 -0.56921362973E+02  0.97543302163E+02  0.41800000000E+01 0.  1.
         -5    1    3    3    0  502 -0.11267132024E+02 -0.97960802937E+01  0.52194279805E+02  0.54448385628E+02  0.41800000000E+01 0.  1.
        -11    1    1    2    0    0 -0.25608726741E+02  0.24142519067E+02  0.92520145477E+02  0.98988107524E+02  0.00000000000E+00 0. -1.
         11    1    1    2    0    0  0.13425518945E+02  0.61199993283E+02  0.12248607526E+02  0.63841304209E+02  0.00000000000E+00 0.  1.
</event>
<event>
 7    1  0.2842702E-009  0.2648731E+03  0.7561462E-02  0.1104250E+00
         -3   -1    0    0    0  501 -0.00000000000E+00  0.00000000000E+00  0.41595898943E+02  0.41595898943E+02  0.00000000000E+00 0.  1.
          3   -1    0    0  501    0  0.00000000000E+00 -0.00000000000E+00 -0.17931236057E+04  0.17931236057E+04  0.00000000000E+00 0. -1.
         25    2    1    2    0    0  0.20482108171E+03 -0.14082892212E+03 -0.79759590021E+03  0.84474192857E+03  0.12508095391E+03 0.  0.
          5    1    3    3  502    0  0.29068284116E+02 -0.73810734768E+02 -0.35566901108E+03  0.36443230860E+03  0.41800000000E+01 0.  1.
         -5    1    3    3    0  502  0.17575279760E+03 -0.67018187356E+02 -0.44192688913E+03  0.48030961997E+03  0.41800000000E+01 0.  1.
        -11    1    1    2    0    0 -0.77254497072E+02  0.74669619259E+01 -0.22352665976E+03  0.23661821667E+03  0.00000000000E+00 0.  1.
         11    1    1    2    0    0 -0.12756658464E+03  0.13336196020E+03 -0.73040514682E+03  0.75335935944E+03  0.00000000000E+00 0. -1.
</event>
<event>
 7    1  0.2842702E-009  0.1360498E+03  0.7561462E-02  0.1218745E+00
         -1   -1    0    0    0  501 -0.00000000000E+00  0.00000000000E+00  0.55833995524E+02  0.55833995524E+02  0.00000000000E+00 0.  1.
          1   -1    0    0  501    0  0.00000000000E+00 -0.00000000000E+00 -0.64029406418E+03  0.64029406418E+03  0.00000000000E+00 0. -1.
         25    2    1    2    0    0  0.38129308515E+02 -0.10442312874E+03 -0.11003043190E+03  0.20028025370E+03  0.12508976815E+03 0.  0.
          5    1    3    3  502    0  0.55760110083E+02 -0.84862563570E+02 -0.16419620788E+02  0.10294620400E+03  0.41800000000E+01 0.  1.
         -5    1    3    3    0  502 -0.17630801568E+02 -0.19560565169E+02 -0.93610811109E+02  0.97334049695E+02  0.41800000000E+01 0.  1.
        -11    1    1    2    0    0  0.30373517935E+02  0.32026430737E+02 -0.13012354027E+03  0.13740588994E+03  0.00000000000E+00 0.  1.
         11    1    1    2    0    0 -0.68502826451E+02  0.72396698002E+02 -0.34430609650E+03  0.35844191607E+03  0.00000000000E+00 0. -1.
</event>
<event>
 7    1  0.2842702E-009  0.8863735E+02  0.7561462E-02  0.1306186E+00
          3   -1    0    0  501    0  0.00000000000E+00  0.00000000000E+00  0.12072437219E+03  0.12072437219E+03  0.00000000000E+00 0. -1.
         -3   -1    0    0    0  501 -0.00000000000E+00 -0.00000000000E+00 -0.10918239312E+03  0.10918239312E+03  0.00000000000E+00 0.  1.
         25    2    1    2    0    0  0.29834167574E+02 -0.18113129401E+02  0.10272552063E+02  0.13027244688E+03  0.12508885674E+03 0.  0.
          5    1    3    3  502    0  0.67336930068E+02 -0.13313801123E+02 -0.29865583745E+02  0.74972961418E+02  0.41800000000E+01 0. -1.
         -5    1    3    3    0  502 -0.37502762494E+02 -0.47993282777E+01  0.40138135808E+02  0.55299485465E+02  0.41800000000E+01 0. -1.
        -11    1    1    2    0    0 -0.17526607242E+02  0.40940428236E+02 -0.33877470282E+02  0.55955192952E+02  0.00000000000E+00 0.  1.
         11    1    1    2    0    0 -0.12307560332E+02 -0.22827298835E+02  0.35146897282E+02  0.43679125472E+02  0.00000000000E+00 0. -1.
</event>
<event>
 7    1  0.2842702E-009  0.1205946E+03  0.7561462E-02  0.1242119E+00
          1   -1    0    0  501    0  0.00000000000E+00  0.00000000000E+00  0.54967516451E+03  0.54967516451E+03  0.00000000000E+00 0. -1.
         -1   -1    0    0    0  501 -0.00000000000E+00 -0.00000000000E+00 -0.33701505768E+02  0.33701505768E+02  0.00000000000E+00 0.  1.
         25    2    1    2    0    0 -0.63597080786E+02 -0.51666162249E+02  0.28031210866E+03  0.31770406466E+03  0.12508802275E+03 0.  0.
          5    1    3    3  502    0 -0.84642261287E+02 -0.21084376968E+02  0.26185905842E+03  0.27603713921E+03  0.41800000000E+01 0. -1.
         -5    1    3    3    0  502  0.21045180501E+02 -0.30581785281E+02  0.18453050241E+02  0.41666925451E+02  0.41800000000E+01 0. -1.
        -11    1    1    2    0    0  0.61883577973E+02 -0.28596226183E+01  0.16606460086E+03  0.17724335340E+03  0.00000000000E+00 0. -1.
         11    1    1    2    0    0  0.17135028131E+01  0.54525784868E+02  0.69596949226E+02  0.88429252224E+02  0.00000000000E+00 0.  1.
</event>
<event>
 7    1  0.2842702E-009  0.1730326E+03  0.7561462E-02  0.1174722E+00
         -1   -1    0    0    0  501 -0.00000000000E+00  0.00000000000E+00  0.13423847314E+04  0.13423847314E+04  0.00000000000E+00 0.  1.
          1   -1    0    0  501    0  0.00000000000E+00 -0.00000000000E+00 -0.27018681778E+02  0.27018681778E+02  0.00000000000E+00 0. -1.
         25    2    1    2    0    0  0.50489071414E+02 -0.14685599725E+03  0.73791775910E+03  0.76438647544E+03  0.12509290298E+03 0.  0.
          5    1    3    3  502    0  0.23533677076E+02 -0.86559116459E+01  0.18841369051E+02  0.31642192573E+02  0.41800000000E+01 0. -1.
         -5    1    3    3    0  502  0.26955394338E+02 -0.13820008560E+03  0.71907639005E+03  0.73274428287E+03  0.41800000000E+01 0. -1.
        -11    1    1    2    0    0 -0.60937495717E+02  0.41089470645E+02  0.26403834736E+03  0.27407658028E+03  0.00000000000E+00 0.  1.
         11    1    1    2    0    0  0.10448424304E+02  0.10576652660E+03  0.31340994312E+03  0.33094035742E+03  0.00000000000E+00 0. -1.
</event>
<event>
 7    1  0.3369436E-009  0.1127256E+03  0.7561462E-02  0.1255604E+00
         -1   -1    0    0    0  501 -0.00000000000E+00  0.00000000000E+00  0.24438827010E+03  0.24438827010E+03  0.00000000000E+00 0.  1.
          1   -1    0    0  501    0  0.00000000000E+00 -0.00000000000E+00 -0.73195028539E+02  0.73195028539E+02  0.00000000000E+00 0. -1.
         25    2    1    2    0    0 -0.24792084899E+02  0.52291794811E+02  0.32058714670E+02  0.14150284934E+03  0.12508483484E+03 0.  0.
          5    1    3    3  502    0 -0.37944334770E+02 -0.33100972043E+02  0.45385717696E+01  0.50729852405E+02  0.41800000000E+01 0. -1.
         -5    1    3    3    0  502  0.13152249871E+02  0.85392766854E+02  0.27520142900E+02  0.90772996937E+02  0.41800000000E+01 0. -1.
        -11    1    1    2    0    0 -0.22962852564E+02 -0.22438783191E+02  0.10596102150E+03  0.11071824450E+03  0.00000000000E+00 0.  1.
         11    1    1    2    0    0  0.47754937463E+02 -0.29853011620E+02  0.33173505387E+02  0.65362204787E+02  0.00000000000E+00 0. -1.
</event>
<event>
 7    1  0.2842702E-009  0.1152265E+03  0.7561462E-02  0.1251186E+00
         -2   -1    0    0    0  501 -0.00000000000E+00  0.00000000000E+00  0.15573944374E+02  0.15573944374E+02  0.00000000000E+00 0.  1.
          2   -1    0    0  501    0  0.00000000000E+00 -0.00000000000E+00 -0.14609772333E+04  0.14609772333E+04  0.00000000000E+00 0. -1.
         25    2    1    2    0    0 -0.38424882256E+02 -0.27360078166E+02 -0.12297106079E+04  0.12369560423E+04  0.12508807275E+03 0.  0.
          5    1    3    3  502    0  0.24668309309E+01 -0.71366799436E+02 -0.77065858959E+03  0.77397121357E+03  0.41800000000E+01 0.  1.
         -5    1    3    3    0  502 -0.40891713187E+02  0.44006721270E+02 -0.45905201826E+03  0.46298482869E+03  0.41800000000E+01 0.  1.
        -11    1    1    2    0    0  0.23542483021E+02  0.59116989055E+02 -0.98489495185E+02  0.11725718555E+03  0.00000000000E+00 0.  1.
         11    1    1    2    0    0  0.14882399235E+02 -0.31756910889E+02 -0.11720318587E+03  0.12233794986E+03  0.00000000000E+00 0. -1.
</event>
<event>
 7    1  0.2842702E-009  0.8360115E+02  0.7561462E-02  0.1319132E+00
         -3   -1    0    0    0  501 -0.00000000000E+00  0.00000000000E+00  0.73833856236E+02  0.73833856236E+02  0.00000000000E+00 0.  1.
          3   -1    0    0  501    0  0.00000000000E+00 -0.00000000000E+00 -0.20523289181E+03  0.20523289181E+03  0.00000000000E+00 0. -1.
         25    2    1    2    0    0  0.46564393069E+02 -0.30497484614E+02 -0.57446085520E+02  0.14847724320E+03  0.12508836771E+03 0.  0.
          5    1    3    3  502    0  0.33903984276E+02 -0.32399966818E+02 -0.96387952484E+02  0.10727230670E+03  0.41800000000E+01 0.  1.
         -5    1    3    3    0  502  0.12660408793E+02  0.19024822041E+01  0.38941866964E+02  0.41204936500E+02  0.41800000000E+01 0.  1.
        -11    1    1    2    0    0  0.12524206075E+02 -0.23486333859E+02 -0.26419678857E+02  0.37502840517E+02  0.00000000000E+00 0. -1.
         11    1    1    2    0    0 -0.59088599143E+02  0.53983818474E+02 -0.47533271192E+02  0.93086664329E+02  0.00000000000E+00 0.  1.
</event>
<event>
 7    1  0.2889375E-009  0.7161417E+02  0.7561462E-02  0.1354688E+00
          2   -1    0    0  501    0  0.00000000000E+00  0.00000000000E+00  0.46629604253E+03  0.46629604253E+03  0.00000000000E+00 0.  1.
         -2   -1    0    0    0  501 -0.00000000000E+00 -0.00000000000E+00 -0.36063390522E+02  0.36063390522E+02  0.00000000000E+00 0. -1.
         25    2    1    2    0    0 -0.41139043595E+02  0.20458014461E+02  0.34365604628E+03  0.36858741831E+03  0.12508499322E+03 0.  0.
          5    1    3    3  502    0 -0.35933987392E+02 -0.29468311433E+02  0.29461325569E+03  0.29828522534E+03  0.41800000000E+01 0. -1.
         -5    1    3    3    0  502 -0.52050562037E+01  0.49926325895E+02  0.49042790590E+02  0.70302192969E+02  0.41800000000E+01 0. -1.
        -11    1    1    2    0    0  0.19489305788E+02 -0.70095036352E+01  0.10193339645E+03  0.10401626552E+03  0.00000000000E+00 0.  1.
         11    1    1    2    0    0  0.21649737807E+02 -0.13448510826E+02 -0.15356790719E+02  0.29755749222E+02  0.00000000000E+00 0. -1.
</event>
<event>
 7    1  0.2842702E-009  0.1685840E+03  0.7561462E-02  0.1179333E+00
         -2   -1    0    0    0  501 -0.00000000000E+00  0.00000000000E+00  0.70272632340E+03  0.70272632340E+03  0.00000000000E+00 0.  1.
          2   -1    0    0  501    0  0.00000000000E+00 -0.00000000000E+00 -0.45572862907E+02  0.45572862907E+02  0.00000000000E+00 0. -1.
         25    2    1    2    0    0  0.75646359590E+02  0.69018926218E+02  0.30599107478E+03  0.34606833274E+03  0.12508704643E+03 0.  0.
          5    1    3    3  502    0 -0.32064734882E+02  0.36554659520E+02  0.83438118549E+02  0.96663242148E+02  0.41800000000E+01 0.  1.
         -5    1    3    3    0  502  0.10771109447E+03  0.32464266698E+02  0.22255295623E+03  0.24940509059E+03  0.41800000000E+01 0.  1.
        -11    1    1    2    0    0  0.32636411766E+02 -0.58510970103E+02  0.22922967226E+03  0.23881983091E+03  0.00000000000E+00 0.  1.
         11    1    1    2    0    0 -0.10828277136E+03 -0.10507956115E+02  0.12193271346E+03  0.16341102266E+03  0.00000000000E+00 0. -1.
</event>
<event>
 7    1  0.2842702E-009  0.9700948E+02  0.7561462E-02  0.1286713E+00
         -2   -1    0    0    0  501 -0.00000000000E+00  0.00000000000E+00  0.80071125355E+02  0.80071125355E+02  0.00000000000E+00 0.  1.
          2   -1    0    0  501    0  0.00000000000E+00 -0.00000000000E+00 -0.21828098481E+03  0.21828098481E+03  0.00000000000E+00 0. -1.
         25    2    1    2    0    0  0.29258012497E+02 -0.66295383053E+02 -0.94758903420E+02  0.17284873091E+03  0.12508527048E+03 0.  0.
          5    1    3    3  502    0  0.21739163964E+02 -0.13371513555E+02 -0.11322373926E+03  0.11613989907E+03  0.41800000000E+01 0. -1.
         -5    1    3    3    0  502  0.75188485326E+01 -0.52923869498E+02  0.18464835839E+02  0.56708831838E+02  0.41800000000E+01 0. -1.
        -11    1    1    2    0    0 -0.60993090648E+02  0.36935929778E+02 -0.40883595323E+02  0.82194211365E+02  0.00000000000E+00 0.  1.
         11    1    1    2    0    0  0.31735078151E+02  0.29359453275E+02 -0.25673607072E+01  0.43309167885E+02  0.00000000000E+00 0. -1.
</event>
<event>
 7    1  0.2842702E-009  0.8362457E+02  0.7561462E-02  0.1319069E+00
          3   -1    0    0  501    0  0.00000000000E+00  0.00000000000E+00  0.37535265114E+02  0.37535265114E+02  0.00000000000E+00 0. -1.
         -3   -1    0    0    0  501 -0.00000000000E+00 -0.00000000000E+00 -0.37218193462E+03  0.37218193462E+03  0.00000000000E+00 0.  1.
         25    2    1    2    0    0  0.10099382268E+01 -0.28177128088E+02 -0.26089272346E+03  0.29071896595E+03  0.12513006628E+03 0.  0.
          5    1    3    3  502    0  0.21931993559E+02 -0.57309133687E+02 -0.24253330848E+03  0.25021036603E+03  0.41800000000E+01 0. -1.
         -5    1    3    3    0  502 -0.20922055332E+02  0.29132005598E+02 -0.18359414980E+02  0.40508599925E+02  0.41800000000E+01 0. -1.
        -11    1    1    2    0    0 -0.31680707728E+02  0.72338968092E+01  0.40862529549E+01  0.32752007090E+02  0.00000000000E+00 0. -1.
         11    1    1    2    0    0  0.30670769501E+02  0.20943231279E+02 -0.77840199004E+02  0.86246226695E+02  0.00000000000E+00 0.  1.
</event>
<event>
 7    1  0.2842702E-009  0.1071916E+03  0.7561462E-02  0.1265861E+00
         -1   -1    0    0    0  501 -0.00000000000E+00  0.00000000000E+00  0.45125326197E+02  0.45125326197E+02  0.00000000000E+00 0.  1.
          1   -1    0    0  501    0  0.00000000000E+00 -0.00000000000E+00 -0.36271595074E+03  0.36271595074E+03  0.00000000000E+00 0. -1.
         25    2    1    2    0    0 -0.63098621182E+02  0.45028478824E+02 -0.17932080605E+03  0.23197587762E+03  0.12509139224E+03 0.  0.
          5    1    3    3  502    0  0.28144083914E+02  0.34008042371E+02 -0.21456422875E+02  0.49259383754E+02  0.41800000000E+01 0. -1.
         -5    1    3    3    0  502 -0.91242705096E+02  0.11020436453E+02 -0.15786438318E+03  0.18271649386E+03  0.41800000000E+01 0. -1.
        -11    1    1    2    0    0  0.32614284110E+02 -0.28781940993E+02 -0.12240242575E+02  0.45187555739E+02  0.00000000000E+00 0.  1.
         11    1    1    2    0    0  0.30484337071E+02 -0.16246537831E+02 -0.12602957591E+03  0.13067784358E+03  0.00000000000E+00 0. -1.
</event>
<event>
 7    1  0.3407137E-009  0.1023171E+03  0.7561462E-02  0.1275497E+00
         -3   -1    0    0    0  501 -0.00000000000E+00  0.00000000000E+00  0.10652796149E+03  0.10652796149E+03  0.00000000000E+00 0.  1.
          3   -1    0    0  501    0  0.00000000000E+00 -0.00000000000E+00 -0.19325618985E+03  0.19325618985E+03  0.00000000000E+00 0. -1.
         25    2    1    2    0    0  0.51376712401E+02  0.61821781928E+02  0.25189899607E+01  0.14871359318E+03  0.12509151925E+03 0.  0.
          5    1    3    3  502    0  0.64585803381E+02  0.39029052105E+02 -0.49436841454E+02  0.90310943963E+02  0.41800000000E+01 0.  1.
         -5    1    3    3    0  502 -0.13209090980E+02  0.22792729823E+02  0.51955831414E+02  0.58402649214E+02  0.41800000000E+01 0.  1.
        -11    1    1    2    0    0  0.91933625269E+00 -0.48377623549E+02 -0.19526828251E+01  0.48425743254E+02  0.00000000000E+00 0.  1.
         11    1    1    2    0    0 -0.52296048653E+02 -0.13444158378E+02 -0.87294535495E+02  0.10264481490E+03  0.00000000000E+00 0. -1.
</event>
<event>
 7    1  0.2842702E-009  0.1028364E+03  0.7561462E-02  0.1274442E+00
         -1   -1    0    0    0  501 -0.00000000000E+00  0.00000000000E+00  0.32961063361E+03  0.32961063361E+03  0.00000000000E+00 0.  1.
          1   -1    0    0  501    0  0.00000000000E+00 -0.00000000000E+00 -0.43278943764E+02  0.43278943764E+02  0.00000000000E+00 0. -1.
         25    2    1    2    0    0 -0.39655882088E+02 -0.20032569118E+02  0.12494230878E+03  0.18232474507E+03  0.12513128838E+03 0.  0.
          5    1    3    3  502    0 -0.10261839260E+02 -0.71875058166E+02  0.62286795015E+02  0.95752005538E+02  0.41800000000E+01 0.  1.
         -5    1    3    3    0  502 -0.29394042828E+02  0.51842489048E+02  0.62655513763E+02  0.86572739528E+02  0.41800000000E+01 0.  1.
        -11    1    1    2    0    0 -0.11808475519E+02  0.18217901860E+02  0.12653048432E+03  0.12837949799E+03  0.00000000000E+00 0.  1.
         11    1    1    2    0    0  0.51464357607E+02  0.18146672580E+01  0.34858896742E+02  0.62185334310E+02  0.00000000000E+00 0. -1.
</event>
<event>
 7    1  0.2842702E-009  0.1371093E+03  0.7561462E-02  0.1217272E+00
         -1   -1    0    0    0  501 -0.00000000000E+00  0.00000000000E+00  0.16496906733E+03  0.16496906733E+03  0.00000000000E+00 0.  1.
          1   -1    0    0  501    0  0.00000000000E+00 -0.00000000000E+00 -0.15008845686E+03  0.15008845686E+03  0.00000000000E+00 0. -1.
         25    2    1    2    0    0  0.94934151878E+01  0.10796923889E+03 -0.18028576259E+02  0.16649198640E+03  0.12508825082E+03 0.  0.
          5    1    3    3  502    0  0.28743607731E+01 -0.26301624020E+02  0.10896668459E+02  0.28917938368E+02  0.41800000000E+01 0. -1.
         -5    1    3    3    0  502  0.66190544147E+01  0.13427086291E+03 -0.28925244718E+02  0.13757404803E+03  0.41800000000E+01 0. -1.
        -11    1    1    2    0    0 -0.21300632471E+02 -0.68363796553E+02  0.64636505209E+02  0.96463482357E+02  0.00000000000E+00 0.  1.
         11    1    1    2    0    0  0.11807217284E+02 -0.39605442341E+02 -0.31727318474E+02  0.52102055435E+02  0.00000000000E+00 0. -1.
</event>
<event>
 7    1  0.2842702E-009  0.1358333E+03  0.7561462E-02  0.1219048E+00
          1   -1    0    0  501    0  0.00000000000E+00  0.00000000000E+00  0.12198673049E+03  0.12198673049E+03  0.00000000000E+00 0. -1.
         -1   -1    0    0    0  501 -0.00000000000E+00 -0.00000000000E+00 -0.20495368062E+03  0.20495368062E+03  0.00000000000E+00 0.  1.
         25    2    1    2    0    0 -0.97970120559E+02  0.27723878027E+02  0.10829124965E+02  0.16165360546E+03  0.12509140769E+03 0.  0.
          5    1    3    3  502    0 -0.29413391606E+02 -0.47850645217E+02  0.18395588710E+02  0.59251176675E+02  0.41800000000E+01 0.  1.
         -5    1    3    3    0  502 -0.68556728953E+02  0.75574523244E+02 -0.75664637447E+01  0.10240242879E+03  0.41800000000E+01 0.  1.
        -11    1    1    2    0    0  0.65005751519E+02  0.69523973335E+01 -0.97400184742E+02  0.11730677537E+03  0.00000000000E+00 0.  1.
         11    1    1    2    0    0  0.32964369040E+02 -0.34676275361E+02  0.36041096441E+01  0.47980030277E+02  0.00000000000E+00 0. -1.
</event>
<event>
 7    1  0.2842702E-009  0.9083015E+02  0.7561462E-02  0.1300854E+00
         -2   -1    0    0    0  501 -0.00000000000E+00  0.00000000000E+00  0.17449143707E+02  0.17449143707E+02  0.00000000000E+00 0.  1.
          2   -1    0    0  501    0  0.00000000000E+00 -0.00000000000E+00 -0.79060129814E+03  0.79060129814E+03  0.00000000000E+00 0. -1.
         25    2    1    2    0    0 -0.12256605527E+01 -0.24230455104E+01 -0.29161210190E+03  0.31732325133E+03  0.12509618089E+03 0.  0.
          5    1    3    3  502    0  0.42122715952E+02  0.61530459702E+01 -0.30671480200E+02  0.52634544470E+02  0.41800000000E+01 0. -1.
         -5    1    3    3    0  502 -0.43348376505E+02 -0.85760914806E+01 -0.26094062170E+03  0.26468870687E+03  0.41800000000E+01 0. -1.
        -11    1    1    2    0    0 -0.11196165469E+02  0.46953253818E+02 -0.24973108231E+03  0.25435324971E+03  0.00000000000E+00 0.  1.
         11    1    1    2    0    0  0.12421826022E+02 -0.44530208307E+02 -0.23180897023E+03  0.23637394080E+03  0.00000000000E+00 0. -1.
</event>
<event>
 7    1  0.2842702E-009  0.1053321E+03  0.7561462E-02  0.1269467E+00
         -2   -1    0    0    0  501 -0.00000000000E+00  0.00000000000E+00  0.12958641377E+02  0.12958641377E+02  0.00000000000E+00 0. -1.
          2   -1    0    0  501    0  0.00000000000E+00 -0.00000000000E+00 -0.92297870606E+03  0.92297870606E+03  0.00000000000E+00 0.  1.
         25    2    1    2    0    0 -0.55856451006E+01 -0.10330062177E+02 -0.48139414245E+03  0.49751983909E+03  0.12509100800E+03 0.  0.
          5    1    3    3  502    0 -0.81764062407E+01  0.53616173652E+02 -0.30533930065E+03  0.31014691457E+03  0.41800000000E+01 0.  1.
         -5    1    3    3    0  502  0.25907611401E+01 -0.63946235829E+02 -0.17605484180E+03  0.18737292451E+03  0.41800000000E+01 0.  1.
        -11    1    1    2    0    0  0.40022148618E+02 -0.21332082921E+02 -0.20819812815E+03  0.21308047941E+03  0.00000000000E+00 0. -1.
         11    1    1    2    0    0 -0.34436503518E+02  0.31662145098E+02 -0.22042779408E+03  0.22533702894E+03  0.00000000000E+00 0.  1.
</event>
<event>
 6    1  0.2842702E-009  0.7608418E+02  0.7561462E-02  0.1340546E+00
         -1   -1    0    0    0  501 -0.00000000000E+00  0.00000000000E+00  0.25266093704E+02  0.25266093704E+02  0.00000000000E+00 0.  1.
          1   -1    0    0  501    0  0.00000000000E+00 -0.00000000000E+00 -0.63223412303E+03  0.63223412303E+03  0.00000000000E+00 0. -1.
          5    1    1    2  502    0 -0.27134075832E+02 -0.40209769027E+01 -0.16409394657E+02  0.32236112661E+02  0.41800000000E+01 0. -1.
         -5    1    1    2    0  502  0.27381732951E+02 -0.27676936444E+02 -0.45079695744E+03  0.45249435505E+03  0.41800000000E+01 0. -1.
        -11    1    1    2    0    0 -0.25975320161E+02  0.48161856758E+02 -0.38252905465E+02  0.66765009401E+02  0.00000000000E+00 0.  1.
         11    1    1    2    0    0  0.25727663042E+02 -0.16463943411E+02 -0.10150877176E+03  0.10600473962E+03  0.00000000000E+00 0. -1.
</event>
<event>
 7    1  0.2842702E-009  0.7764752E+02  0.7561462E-02  0.1335863E+00
          1   -1    0    0  501    0  0.00000000000E+00  0.00000000000E+00  0.18480724138E+03  0.18480724138E+03  0.00000000000E+00 0. -1.
         -1   -1    0    0    0  501 -0.00000000000E+00 -0.00000000000E+00 -0.68280324437E+02  0.68280324437E+02  0.00000000000E+00 0.  1.
         25    2    1    2    0    0  0.20287703500E+02 -0.21821901692E+02  0.68349054248E+02  0.14562524763E+03  0.12508930100E+03 0.  0.
          5    1    3    3  502    0  0.28534733765E+02 -0.38208524618E+02  0.98825210510E+02  0.10980900244E+03  0.41800000000E+01 0. -1.
         -5    1    3    3    0  502 -0.82470302655E+01  0.16386622927E+02 -0.30476156261E+02  0.35816245191E+02  0.41800000000E+01 0. -1.
        -11    1    1    2    0    0  0.27360529617E+02 -0.12305284205E+02  0.37274426431E+02  0.47847690290E+02  0.00000000000E+00 0. -1.
         11    1    1    2    0    0 -0.47648233117E+02  0.34127185897E+02  0.10903436259E+02  0.59614627892E+02  0.00000000000E+00 0.  1.
</event>
<event>
 7    1  0.2842702E-009  0.1030678E+03  0.7561462E-02  0.1273974E+00
         -1   -1    0    0    0  501 -0.00000000000E+00  0.00000000000E+00  0.66031006780E+03  0.66031006780E+03  0.00000000000E+00 0.  1.
          1   -1    0    0  501    0  0.00000000000E+00 -0.00000000000E+00 -0.23944232891E+02  0.23944232891E+02  0.00000000000E+00 0. -1.
         25    2    1    2    0    0 -0.21431644019E+02 -0.53576925458E+02  0.42033305286E+03  0.44233162935E+03  0.12509033813E+03 0.  0.
          5    1    3    3  502    0 -0.39776564063E+01 -0.80019454006E+02  0.14991846156E+03  0.17003515015E+03  0.41800000000E+01 0. -1.
         -5    1    3    3    0  502 -0.17453987613E+02  0.26442528548E+02  0.27041459129E+03  0.27229647920E+03  0.41800000000E+01 0. -1.
        -11    1    1    2    0    0 -0.26535712722E+02  0.31380943127E+02  0.15874241878E+03  0.16397580054E+03  0.00000000000E+00 0.  1.
         11    1    1    2    0    0  0.47967356741E+02  0.22195982331E+02  0.57290363273E+02  0.77946870805E+02  0.00000000000E+00 0. -1.
</event>
<event>
 7    1  0.2842702E-009  0.1574050E+03  0.7561462E-02  0.1191658E+00
         -2   -1    0    0    0  501 -0.00000000000E+00  0.00000000000E+00  0.46165652407E+02  0.46165652407E+02  0.00000000000E+00 0.  1.
          2   -1    0    0  501    0  0.00000000000E+00 -0.00000000000E+00 -0.67714593097E+03  0.67714593097E+03  0.00000000000E+00 0. -1.
         25    2    1    2    0    0 -0.68544024901E+02 -0.11705082287E+03 -0.26726808916E+03  0.32477492632E+03  0.12508933926E+03 0.  0.
          5    1    3    3  502    0 -0.71902188284E+02 -0.13761700654E+03 -0.25892908348E+03  0.30194388194E+03  0.41800000000E+01 0. -1.
         -5    1    3    3    0  502  0.33581633830E+01  0.20566183663E+02 -0.83390056818E+01  0.22831044381E+02  0.41800000000E+01 0. -1.
        -11    1    1    2    0    0  0.23828352034E+02  0.67021075512E+02 -0.29111498400E+03  0.29967907640E+03  0.00000000000E+00 0. -1.
         11    1    1    2    0    0  0.44715672867E+02  0.50029747363E+02 -0.72597205399E+02  0.98857580655E+02  0.00000000000E+00 0.  1.
</event>
<event>
 7    1  0.2842702E-009  0.1096235E+03  0.7561462E-02  0.1261269E+00
          2   -1    0    0  501    0  0.00000000000E+00  0.00000000000E+00  0.21207032266E+02  0.21207032266E+02  0.00000000000E+00 0. -1.
         -2   -1    0    0    0  501 -0.00000000000E+00 -0.00000000000E+00 -0.60925964480E+03  0.60925964480E+03  0.00000000000E+00 0.  1.
         25    2    1    2    0    0  0.69211769674E+01 -0.20828453709E+02 -0.39253735176E+03  0.41257092790E+03  0.12508985110E+03 0.  0.
          5    1    3    3  502    0 -0.34108671110E+02  0.39511293451E+02 -0.13294484279E+03  0.14288578438E+03  0.41800000000E+01 0. -1.
         -5    1    3    3    0  502  0.41029848077E+02 -0.60339747160E+02 -0.25959250897E+03  0.26968514352E+03  0.41800000000E+01 0. -1.
        -11    1    1    2    0    0  0.33927394656E+02 -0.17153003502E+02 -0.10389600613E+03  0.11063305893E+03  0.00000000000E+00 0.  1.
         11    1    1    2    0    0 -0.40848571624E+02  0.37981457211E+02 -0.91619254643E+02  0.10726269024E+03  0.00000000000E+00 0. -1.
</event>
<event>
 7    1  0.2842702E-009  0.1156938E+03  0.7561462E-02  0.1250375E+00
          1   -1    0    0  501    0  0.00000000000E+00  0.00000000000E+00  0.61809735707E+02  0.61809735707E+02  0.00000000000E+00 0. -1.
         -1   -1    0    0    0  501 -0.00000000000E+00 -0.00000000000E+00 -0.25694971617E+03  0.25694971617E+03  0.00000000000E+00 0.  1.
         25    2    1    2    0    0  0.47160674144E+02  0.44433711953E+02 -0.96733586940E+02  0.17088883972E+03  0.12508846772E+03 0.  0.
          5    1    3    3  502    0  0.59443624766E+02 -0.18248352503E+02 -0.10041521867E+02  0.63125679844E+02  0.41800000000E+01 0.  1.
         -5    1    3    3    0  502 -0.12282950622E+02  0.62682064455E+02 -0.86692065073E+02  0.10776315988E+03  0.41800000000E+01 0.  1.
        -11    1    1    2    0    0 -0.11016035619E+02  0.24698557997E+02 -0.74677591466E+01  0.28056001757E+02  0.00000000000E+00 0.  1.
         11    1    1    2    0    0 -0.36144638525E+02 -0.69132269950E+02 -0.90938634379E+02  0.11981461040E+03  0.00000000000E+00 0. -1.
</event>
<event>
 7    1  0.2842702E-009  0.9748931E+02  0.7561462E-02  0.1285666E+00
         -1   -1    0    0    0  501 -0.00000000000E+00  0.00000000000E+00  0.29444944122E+03  0.29444944122E+03  0.00000000000E+00 0.  1.
          1   -1    0    0  501    0  0.00000000000E+00 -0.00000000000E+00 -0.46717939171E+02  0.46717939171E+02  0.00000000000E+00 0. -1.
         25    2    1    2    0    0 -0.25102716921E+02  0.23018469097E+02  0.19411300561E+03  0.23342771706E+03  0.12509453955E+03 0.  0.
          5    1    3    3  502    0  0.36700290924E+02 -0.28841188425E+02  0.52353497060E+02  0.70264404630E+02  0.41800000000E+01 0. -1.
         -5    1    3    3    0  502 -0.61803007845E+02  0.51859657521E+02  0.14175950855E+03  0.16316331243E+03  0.41800000000E+01 0. -1.
        -11    1    1    2    0    0  0.96959310837E+01 -0.41872151562E+02 -0.59474056878E+01  0.43389627683E+02  0.00000000000E+00 0. -1.
         11    1    1    2    0    0  0.15406785837E+02  0.18853682465E+02  0.59565902122E+02  0.64350035648E+02  0.00000000000E+00 0.  1.
</event>
<event>
 7    1  0.2842702E-009  0.2135173E+03  0.7561462E-02  0.1138811E+00
         -1   -1    0    0    0  501 -0.00000000000E+00  0.00000000000E+00  0.10319447600E+03  0.10319447600E+03  0.00000000000E+00 0.  1.
          1   -1    0    0  501    0  0.00000000000E+00 -0.00000000000E+00 -0.58564383071E+03  0.58564383071E+03  0.00000000000E+00 0. -1.
         25    2    1    2    0    0 -0.20239832535E+03 -0.35354338557E+01 -0.36796985894E+03  0.43820860275E+03  0.12508949213E+03 0.  0.
          5    1    3    3  502    0 -0.96776532792E+02  0.29407409660E+02 -0.27697535805E+03  0.29489542962E+03  0.41800000000E+01 0.  1.
         -5    1    3    3    0  502 -0.10562179255E+03 -0.32942843515E+02 -0.90994500883E+02  0.14331317313E+03  0.41800000000E+01 0.  1.
        -11    1    1    2    0    0  0.72156523742E+02 -0.33678977004E+02 -0.75370036792E+02  0.10964250935E+03  0.00000000000E+00 0. -1.
         11    1    1    2    0    0  0.13024180160E+03  0.37214410860E+02 -0.39109458982E+02  0.14098719461E+03  0.00000000000E+00 0.  1.
</event>
<event>
 7    1  0.2842702E-009  0.7158829E+02  0.7561462E-02  0.1354774E+00
          1   -1    0    0  501    0  0.00000000000E+00  0.00000000000E+00  0.43173497899E+03  0.43173497899E+03  0.00000000000E+00 0. -1.
         -1   -1    0    0    0  501 -0.00000000000E+00 -0.00000000000E+00 -0.49276208696E+02  0.49276208696E+02  0.00000000000E+00 0.  1.
         25    2    1    2    0    0 -0.55821247649E+02  0.16193087913E+02  0.77758381990E+02  0.15834101524E+03  0.12508910165E+03 0.  0.
          5    1    3    3  502    0 -0.24120268790E+02  0.61352086259E+01  0.10938347498E+03  0.11225704945E+03  0.41800000000E+01 0. -1.
         -5    1    3    3    0  502 -0.31700978859E+02  0.10057879287E+02 -0.31625092992E+02  0.46083965792E+02  0.41800000000E+01 0. -1.
        -11    1    1    2    0    0 -0.11669687008E+02  0.63222883930E+01  0.42880983926E+01  0.13947785244E+02  0.00000000000E+00 0.  1.
         11    1    1    2    0    0  0.67490934657E+02 -0.22515376306E+02  0.30041228991E+03  0.30872238720E+03  0.00000000000E+00 0. -1.
</event>
<event>
 7    1  0.2842702E-009  0.8572863E+02  0.7561462E-02  0.1313538E+00
         -1   -1    0    0    0  501 -0.00000000000E+00  0.00000000000E+00  0.37268809985E+02  0.37268809985E+02  0.00000000000E+00 0.  1.
          1   -1    0    0  501    0  0.00000000000E+00 -0.00000000000E+00 -0.50182912978E+03  0.50182912978E+03  0.00000000000E+00 0. -1.
         25    2    1    2    0    0 -0.54953267169E+01  0.69792733647E+01 -0.40701807497E+03  0.42589915425E+03  0.12508983717E+03 0.  0.
          5    1    3    3  502    0  0.44530494643E+02 -0.33054057003E+02 -0.25286039599E+03  0.25890420603E+03  0.41800000000E+01 0.  1.
         -5    1    3    3    0  502 -0.50025821360E+02  0.40033330368E+02 -0.15415767898E+03  0.16699494822E+03  0.41800000000E+01 0.  1.
        -11    1    1    2    0    0 -0.22809179432E+02 -0.42087301743E+01 -0.75889213073E+02  0.79354550826E+02  0.00000000000E+00 0. -1.
         11    1    1    2    0    0  0.28304506149E+02 -0.27705431904E+01  0.18346968248E+02  0.33844234691E+02  0.00000000000E+00 0.  1.
</event>
<event>
 7    1  0.2842702E-009  0.9243446E+02  0.7561462E-02  0.1297061E+00
          2   -1    0    0  501    0  0.00000000000E+00  0.00000000000E+00  0.19730097203E+04  0.19730097203E+04  0.00000000000E+00 0. -1.
         -2   -1    0    0    0  501 -0.00000000000E+00 -0.00000000000E+00 -0.16339622354E+02  0.16339622354E+02  0.00000000000E+00 0.  1.
         25    2    1    2    0    0  0.99129738444E+01 -0.51829431791E+02  0.17795437265E+04  0.17847152259E+04  0.12509198930E+03 0.  0.
          5    1    3    3  502    0 -0.28921315001E+02 -0.12398482319E+02  0.14628890616E+04  0.14632334208E+04  0.41800000000E+01 0. -1.
         -5    1    3    3    0  502  0.38834288846E+02 -0.39430949472E+02  0.31665466496E+03  0.32148180509E+03  0.41800000000E+01 0. -1.
        -11    1    1    2    0    0  0.15758173118E+01  0.73276839612E+02  0.10154628407E+03  0.12523428537E+03  0.00000000000E+00 0.  1.
         11    1    1    2    0    0 -0.11488791156E+02 -0.21447407821E+02  0.75580087321E+02  0.79399831385E+02  0.00000000000E+00 0. -1.
</event>
<event>
 7    1  0.2842702E-009  0.1269299E+03  0.7561462E-02  0.1232084E+00
         -2   -1    0    0    0  501 -0.00000000000E+00  0.00000000000E+00  0.97094733615E+02  0.97094733615E+02  0.00000000000E+00 0.  1.
          2   -1    0    0  501    0  0.00000000000E+00 -0.00000000000E+00 -0.25568386627E+03  0.25568386627E+03  0.00000000000E+00 0. -1.
         25    2    1    2    0    0 -0.29192440766E+02 -0.10163314007E+03 -0.13201458810E+03  0.21038151852E+03  0.12510410907E+03 0.  0.
          5    1    3    3  502    0  0.25515131096E+02 -0.69453366479E+02 -0.12640359552E+03  0.14652690330E+03  0.41800000000E+01 0.  1.
         -5    1    3    3    0  502 -0.54707571862E+02 -0.32179773588E+02 -0.56109925801E+01  0.63854615220E+02  0.41800000000E+01 0.  1.
        -11    1    1    2    0    0 -0.11625969191E+02  0.44056448860E+02  0.27735353304E+02  0.53342137834E+02  0.00000000000E+00 0.  1.
         11    1    1    2    0    0  0.40818409957E+02  0.57576691207E+02 -0.54309897855E+02  0.89054943528E+02  0.00000000000E+00 0. -1.
</event>
<event>
 7    1  0.2842702E-009  0.9395486E+02  0.7561462E-02  0.1293547E+00
         -3   -1    0    0    0  501 -0.00000000000E+00  0.00000000000E+00  0.30638565993E+03  0.30638565993E+03  0.00000000000E+00 0.  1.
          3   -1    0    0  501    0  0.00000000000E+00 -0.00000000000E+00 -0.47861261493E+02  0.47861261493E+02  0.00000000000E+00 0. -1.
         25    2    1    2    0    0 -0.18581418548E+02  0.29834587301E+02  0.20907271710E+03  0.24615568946E+03  0.12508337502E+03 0.  0.
          5    1    3    3  502    0 -0.22837812823E+02 -0.37912113400E+02  0.14874243442E+03  0.15524393139E+03  0.41800000000E+01 0.  1.
         -5    1    3    3    0  502  0.42563942746E+01  0.67746700701E+02  0.60330282678E+02  0.90911758074E+02  0.41800000000E+01 0.  1.
        -11    1    1    2    0    0  0.28112905054E+02 -0.47600994279E+02  0.62987665237E+02  0.83807136086E+02  0.00000000000E+00 0.  1.
         11    1    1    2    0    0 -0.95314865062E+01  0.17766406979E+02 -0.13535983900E+02  0.24284095867E+02  0.00000000000E+00 0. -1.
</event>
<event>
 7    1  0.2842702E-009  0.9954104E+02  0.7561462E-02  0.1281264E+00
         -2   -1    0    0    0  501 -0.00000000000E+00  0.00000000000E+00  0.65452535359E+02  0.65452535359E+02  0.00000000000E+00 0.  1.
          2   -1    0    0  501    0  0.00000000000E+00 -0.00000000000E+00 -0.28202640533E+03  0.28202640533E+03  0.00000000000E+00 0. -1.
         25    2    1    2    0    0 -0.67717130092E+02  0.38661939977E+02 -0.15284525878E+03  0.21234181690E+03  0.12508804404E+03 0.  0.
          5    1    3    3  502    0 -0.59066862242E+02  0.45622814727E+02 -0.17327813139E+03  0.18871438381E+03  0.41800000000E+01 0. -1.
         -5    1    3    3    0  502 -0.86502678497E+01 -0.69608747501E+01  0.20432872613E+02  0.23627433089E+02  0.41800000000E+01 0. -1.
        -11    1    1    2    0    0  0.43588096688E+02 -0.64028494198E+02 -0.21703858717E+02  0.80440212117E+02  0.00000000000E+00 0.  1.
         11    1    1    2    0    0  0.24129033404E+02  0.25366554221E+02 -0.42024752482E+02  0.54696911680E+02  0.00000000000E+00 0. -1.
</event>
<event>
 7    1  0.2854344E-009  0.9525191E+02  0.7561462E-02  0.1290610E+00
          1   -1    0    0  501    0  0.00000000000E+00  0.00000000000E+00  0.20982611191E+03  0.20982611191E+03  0.00000000000E+00 0. -1.
         -1   -1    0    0    0  501 -0.00000000000E+00 -0.00000000000E+00 -0.70723762245E+02  0.70723762245E+02  0.00000000000E+00 0.  1.
         25    2    1    2    0    0 -0.85886668280E+01 -0.88099863151E+01  0.15787299237E+02  0.12667879589E+03  0.12508755915E+03 0.  0.
          5    1    3    3  502    0  0.93910847178E+01  0.47243307129E+02  0.40137498269E+02  0.62837995734E+02  0.41800000000E+01 0. -1.
         -5    1    3    3    0  502 -0.17979751546E+02 -0.56053293444E+02 -0.24350199032E+02  0.63840800155E+02  0.41800000000E+01 0. -1.
        -11    1    1    2    0    0 -0.24829338840E+02 -0.25258129566E+02  0.86904938166E+02  0.93845284666E+02  0.00000000000E+00 0. -1.
         11    1    1    2    0    0  0.33418005668E+02  0.34068115881E+02  0.36410112264E+02  0.60025793603E+02  0.00000000000E+00 0.  1.
</event>
<event>
 7    1  0.2842702E-009  0.1065166E+03  0.7561462E-02  0.1267160E+00
         -1   -1    0    0    0  501 -0.00000000000E+00  0.00000000000E+00  0.28014711251E+03  0.28014711251E+03  0.00000000000E+00 0. -1.
          1   -1    0    0  501    0  0.00000000000E+00 -0.00000000000E+00 -0.58573966723E+02  0.58573966723E+02  0.00000000000E+00 0.  1.
         25    2    1    2    0    0  0.46488790241E+02  0.61497200116E+02  0.14204920205E+03  0.20437473759E+03  0.12509174362E+03 0.  0.
          5    1    3    3  502    0  0.41299028615E+02 -0.21640135576E+02  0.94967349561E+01  0.47765736749E+02  0.41800000000E+01 0.  1.
         -5    1    3    3    0  502  0.51897616260E+01  0.83137335693E+02  0.13255246709E+03  0.15660900084E+03  0.41800000000E+01 0.  1.
        -11    1    1    2    0    0 -0.30639338710E+02 -0.59390728188E+02  0.92248995789E+02  0.11391182948E+03  0.00000000000E+00 0. -1.
         11    1    1    2    0    0 -0.15849451531E+02 -0.21064719278E+01 -0.12725052049E+02  0.20434512166E+02  0.00000000000E+00 0.  1.
</event>
<event>
 7    1  0.2842702E-009  0.1027808E+03  0.7561462E-02  0.1274555E+00
          1   -1    0    0  501    0  0.00000000000E+00  0.00000000000E+00  0.37037357809E+03  0.37037357809E+03  0.00000000000E+00 0. -1.
         -1   -1    0    0    0  501 -0.00000000000E+00 -0.00000000000E+00 -0.50871522168E+02  0.50871522168E+02  0.00000000000E+00 0.  1.
         25    2    1    2    0    0  0.55194379865E+02 -0.64129021203E+02  0.17380055453E+03  0.23024290589E+03  0.12508481934E+03 0.  0.
          5    1    3    3  502    0  0.56285770873E+02 -0.18132249633E+02  0.17423260716E+03  0.18404168081E+03  0.41800000000E+01 0.  1.
         -5    1    3    3    0  502 -0.10913910082E+01 -0.45996771570E+02 -0.43205263186E+00  0.46201225077E+02  0.41800000000E+01 0.  1.
        -11    1    1    2    0    0 -0.28780102668E+01  0.43892383920E+02  0.11374625571E+02  0.45433538450E+02  0.00000000000E+00 0.  1.
         11    1    1    2    0    0 -0.52316369598E+02  0.20236637283E+02  0.13432687582E+03  0.14556865592E+03  0.00000000000E+00 0. -1.
</event>
<event>
 7    1  0.2842702E-009  0.7258507E+02  0.7561462E-02  0.1351517E+00
         -2   -1    0    0    0  501 -0.00000000000E+00  0.00000000000E+00  0.10559358394E+03  0.10559358394E+03  0.00000000000E+00 0. -1.
          2   -1    0    0  501    0  0.00000000000E+00 -0.00000000000E+00 -0.13715438295E+03  0.13715438295E+03  0.00000000000E+00 0.  1.
         25    2    1    2    0    0  0.20286841901E+02  0.47385712119E+02 -0.99359326798E+00  0.13529498244E+03  0.12508710317E+03 0.  0.
          5    1    3    3  502    0  0.11741763799E+02  0.24961178771E+02 -0.62877597093E+02  0.68789491050E+02  0.41800000000E+01 0. -1.
         -5    1    3    3    0  502  0.85450781016E+01  0.22424533348E+02  0.61884003825E+02  0.66505491390E+02  0.41800000000E+01 0. -1.
        -11    1    1    2    0    0  0.18906743071E+02 -0.50174812505E+02  0.57768348964E+01  0.53929106843E+02  0.00000000000E+00 0. -1.
         11    1    1    2    0    0 -0.39193584972E+02  0.27891003856E+01 -0.36344040637E+02  0.53523877604E+02  0.00000000000E+00 0.  1.
</event>
<event>
 7    1  0.2842702E-009  0.1761594E+03  0.7561462E-02  0.1171573E+00
         -1   -1    0    0    0  501 -0.00000000000E+00  0.00000000000E+00  0.30216993330E+03  0.30216993330E+03  0.00000000000E+00 0.  1.
          1   -1    0    0  501    0  0.00000000000E+00 -0.00000000000E+00 -0.12606801485E+03  0.12606801485E+03  0.00000000000E+00 0. -1.
         25    2    1    2    0    0 -0.13147797276E+03 -0.70070149752E+02  0.15482968110E+03  0.24862901564E+03  0.12509146278E+03 0.  0.
          5    1    3    3  502    0 -0.52598086609E+02  0.19529304491E+02  0.10516386403E+03  0.11926803070E+03  0.41800000000E+01 0. -1.
         -5    1    3    3    0  502 -0.78879886151E+02 -0.89599454243E+02  0.49665817071E+02  0.12936098494E+03  0.41800000000E+01 0. -1.
        -11    1    1    2    0    0 -0.88176590011E+01  0.29170390384E+02 -0.57066855933E+01  0.31003694069E+02  0.00000000000E+00 0. -1.
         11    1    1    2    0    0  0.14029563176E+03  0.40899759368E+02  0.26978922947E+02  0.14860523844E+03  0.00000000000E+00 0.  1.
</event>
<event>
 7    1  0.2842702E-009  0.1762173E+03  0.7561462E-02  0.1171515E+00
          1   -1    0    0  501    0  0.00000000000E+00  0.00000000000E+00  0.30652135335E+02  0.30652135335E+02  0.00000000000E+00 0. -1.
         -1   -1    0    0    0  501 -0.00000000000E+00 -0.00000000000E+00 -0.13680922418E+04  0.13680922418E+04  0.00000000000E+00 0.  1.
         25    2    1    2    0    0 -0.10610428647E+03  0.11102743620E+03 -0.97420412166E+03  0.99413566288E+03  0.12508730694E+03 0.  0.
          5    1    3    3  502    0  0.22020834913E+02  0.52411772431E+02 -0.26582416421E+03  0.27186737527E+03  0.41800000000E+01 0. -1.
         -5    1    3    3    0  502 -0.12812512138E+03  0.58615663773E+02 -0.70837995745E+03  0.72226828761E+03  0.41800000000E+01 0. -1.
        -11    1    1    2    0    0  0.73345403794E+02 -0.65165974833E+02 -0.31660620216E+03  0.33145986149E+03  0.00000000000E+00 0.  1.
         11    1    1    2    0    0  0.32758882677E+02 -0.45861461371E+02 -0.46629782692E+02  0.73148852809E+02  0.00000000000E+00 0. -1.
</event>
<event>
 7    1  0.2842702E-009  0.2122145E+03  0.7561462E-02  0.1139824E+00
         -1   -1    0    0    0  501 -0.00000000000E+00  0.00000000000E+00  0.22102162752E+03  0.22102162752E+03  0.00000000000E+00 0.  1.
          1   -1    0    0  501    0  0.00000000000E+00 -0.00000000000E+00 -0.25166273988E+03  0.25166273988E+03  0.00000000000E+00 0. -1.
         25    2    1    2    0    0  0.17765388150E+03 -0.85043222903E+02  0.54270149116E+02  0.23955138545E+03  0.12508543406E+03 0.  0.
          5    1    3    3  502    0  0.86623189088E+02 -0.10070732786E+03  0.11327879445E+01  0.13290710433E+03  0.41800000000E+01 0. -1.
         -5    1    3    3    0  502  0.91030692414E+02  0.15664104952E+02  0.53137361171E+02  0.10664428113E+03  0.41800000000E+01 0. -1.
        -11    1    1    2    0    0 -0.13740526248E+03  0.78614496909E+02 -0.24399219038E+02  0.16017417760E+03  0.00000000000E+00 0.  1.
         11    1    1    2    0    0 -0.40248619027E+02  0.64287259944E+01 -0.60512042438E+02  0.72958804345E+02  0.00000000000E+00 0. -1.
</event>
<event>
 7    1  0.2842702E-009  0.2722006E+03  0.7561462E-02  0.1100027E+00
          2   -1    0    0  501    0  0.00000000000E+00  0.00000000000E+00  0.68824592636E+03  0.68824592636E+03  0.00000000000E+00 0.  1.
         -2   -1    0    0    0  501 -0.00000000000E+00 -0.00000000000E+00 -0.15891732522E+03  0.15891732522E+03  0.00000000000E+00 0. -1.
         25    2    1    2    0    0 -0.23512665412E+03  0.83267894669E+02  0.30555928089E+02  0.28071405976E+03  0.12509449567E+03 0.  0.
          5    1    3    3  502    0 -0.20880423641E+03  0.22887191053E+02  0.40510272300E+02  0.21396632263E+03  0.41800000000E+01 0.  1.
         -5    1    3    3    0  502 -0.26322417703E+02  0.60380703616E+02 -0.99543442114E+01  0.66747737127E+02  0.41800000000E+01 0.  1.
        -11    1    1    2    0    0  0.14201116630E+03  0.20291556409E+01  0.25327611258E+03  0.29037919696E+03  0.00000000000E+00 0.  1.
         11    1    1    2    0    0  0.93115487820E+02 -0.85297050310E+02  0.24549656047E+03  0.27606999487E+03  0.00000000000E+00 0. -1.
</event>
<event>
 7    1  0.2842702E-009  0.1468144E+03  0.7561462E-02  0.1204443E+00
          2   -1    0    0  501    0  0.00000000000E+00  0.00000000000E+00  0.12647582574E+04  0.12647582574E+04  0.00000000000E+00 0. -1.
         -2   -1    0    0    0  501 -0.00000000000E+00 -0.00000000000E+00 -0.20500629221E+02  0.20500629221E+02  0.00000000000E+00 0.  1.
         25    2    1    2    0    0 -0.95171197599E+02 -0.56775591873E+02  0.82291379302E+03  0.83971484332E+03  0.12511148096E+03 0.  0.
          5    1    3    3  502    0  0.28671097034E+02 -0.25302531500E+02  0.15739904413E+03  0.16203142102E+03  0.41800000000E+01 0. -1.
         -5    1    3    3    0  502 -0.12384229463E+03 -0.31473060373E+02  0.66551474889E+03  0.67768342230E+03  0.41800000000E+01 0. -1.
        -11    1    1    2    0    0  0.73676249816E+02  0.81201929436E+01  0.34254141016E+03  0.35046932105E+03  0.00000000000E+00 0. -1.
         11    1    1    2    0    0  0.21494947783E+02  0.48655398929E+02  0.78802424980E+02  0.95074722234E+02  0.00000000000E+00 0.  1.
</event>
<event>
 7    1  0.2842702E-009  0.1279658E+03  0.7561462E-02  0.1230506E+00
         -1   -1    0    0    0  501 -0.00000000000E+00  0.00000000000E+00  0.57758891264E+02  0.57758891264E+02  0.00000000000E+00 0.  1.
          1   -1    0    0  501    0  0.00000000000E+00 -0.00000000000E+00 -0.43512537606E+03  0.43512537606E+03  0.00000000000E+00 0. -1.
         25    2    1    2    0    0 -0.34239837130E+02 -0.10437053636E+03 -0.14673722751E+03  0.22191037431E+03  0.12508726947E+03 0.  0.
          5    1    3    3  502    0 -0.16890499064E+02 -0.11381983452E+03 -0.54318821583E+02  0.12731162738E+03  0.41800000000E+01 0. -1.
         -5    1    3    3    0  502 -0.17349338066E+02  0.94492981527E+01 -0.92418405929E+02  0.94598746933E+02  0.41800000000E+01 0. -1.
        -11    1    1    2    0    0 -0.10533392420E+02  0.45110680603E+02 -0.16657301353E+03  0.17289446116E+03  0.00000000000E+00 0. -1.
         11    1    1    2    0    0  0.44773229550E+02  0.59259855761E+02 -0.64056243746E+02  0.98079431850E+02  0.00000000000E+00 0.  1.
</event>
<event>
 7    1  0.2842702E-009  0.1295656E+03  0.7561462E-02  0.1228102E+00
          1   -1    0    0  501    0  0.00000000000E+00  0.00000000000E+00  0.21997904865E+03  0.21997904865E+03  0.00000000000E+00 0. -1.
         -1   -1    0    0    0  501 -0.00000000000E+00 -0.00000000000E+00 -0.96537049619E+02  0.96537049619E+02  0.00000000000E+00 0.  1.
         25    2    1    2    0    0  0.33288856757E+02  0.78226400586E+02  0.14883501393E+02  0.15197606594E+03  0.12509072017E+03 0.  0.
          5    1    3    3  502    0  0.14126471184E+02 -0.30649825001E+02 -0.15320622844E+02  0.37298295471E+02  0.41800000000E+01 0. -1.
         -5    1    3    3    0  502  0.19162385574E+02  0.10887622559E+03  0.30204124237E+02  0.11467777047E+03  0.41800000000E+01 0. -1.
        -11    1    1    2    0    0  0.21218431224E+02 -0.47264547348E+02  0.18917679968E+02  0.55154672287E+02  0.00000000000E+00 0.  1.
         11    1    1    2    0    0 -0.54507287982E+02 -0.30961853237E+02  0.89640817668E+02  0.10938536004E+03  0.00000000000E+00 0. -1.
</event>
<event>
 7    1  0.2842702E-009  0.1041862E+03  0.7561462E-02  0.1271731E+00
          1   -1    0    0  501    0  0.00000000000E+00  0.00000000000E+00  0.83882331510E+02  0.83882331510E+02  0.00000000000E+00 0. -1.
         -1   -1    0    0    0  501 -0.00000000000E+00 -0.00000000000E+00 -0.18626371573E+03  0.18626371573E+03  0.00000000000E+00 0.  1.
         25    2    1    2    0    0 -0.25666778023E+02 -0.47757298864E+02 -0.87819772362E+02  0.16217661767E+03  0.12509756118E+03 0.  0.
          5    1    3    3  502    0 -0.17553510600E+01 -0.88658443403E+02 -0.57851521755E+02  0.10596070882E+03  0.41800000000E+01 0. -1.
         -5    1    3    3    0  502 -0.23911426963E+02  0.40901144539E+02 -0.29968250607E+02  0.56215908855E+02  0.41800000000E+01 0. -1.
        -11    1    1    2    0    0  0.38530905202E+02  0.44307078779E+02 -0.45501808734E+02  0.74284335386E+02  0.00000000000E+00 0.  1.
         11    1    1    2    0    0 -0.12864127179E+02  0.34502200846E+01  0.30940196880E+02  0.33685094177E+02  0.00000000000E+00 0. -1.
</event>
<event>
 7    1  0.2842702E-009  0.1247641E+03  0.7561462E-02  0.1235438E+00
          1   -1    0    0  501    0  0.00000000000E+00  0.00000000000E+00  0.46872196952E+03  0.46872196952E+03  0.00000000000E+00 0. -1.
         -1   -1    0    0    0  501 -0.00000000000E+00 -0.00000000000E+00 -0.74225393981E+02  0.74225393981E+02  0.00000000000E+00 0.  1.
         25    2    1    2    0    0 -0.80482054643E+02 -0.16556702902E+02  0.22602093616E+02  0.15136090742E+03  0.12509110332E+03 0.  0.
          5    1    3    3  502    0 -0.18011958291E+01 -0.58624507621E+02 -0.15949283238E+01  0.58822558568E+02  0.41800000000E+01 0. -1.
         -5    1    3    3    0  502 -0.78680858814E+02  0.42067804719E+02  0.24197021940E+02  0.92538348852E+02  0.41800000000E+01 0. -1.
        -11    1    1    2    0    0  0.43423520755E+02 -0.21357208754E+02  0.29012916310E+03  0.29413715135E+03  0.00000000000E+00 0. -1.
         11    1    1    2    0    0  0.37058533888E+02  0.37913911656E+02  0.81765318819E+02  0.97449304731E+02  0.00000000000E+00 0.  1.
</event>
<event>
 7    1  0.2842702E-009  0.8965052E+02  0.7561462E-02  0.1303700E+00
         -2   -1    0    0    0  501 -0.00000000000E+00  0.00000000000E+00  0.12946973120E+02  0.12946973120E+02  0.00000000000E+00 0.  1.
          2   -1    0    0  501    0  0.00000000000E+00 -0.00000000000E+00 -0.11490494501E+04  0.11490494501E+04  0.00000000000E+00 0. -1.
         25    2    1    2    0    0  0.41788015435E+01 -0.37283883844E+02 -0.82800580687E+03  0.83824124784E+03  0.12508886039E+03 0.  0.
          5    1    3    3  502    0  0.26234751584E+02 -0.52700601637E+02 -0.78579485743E+03  0.78800802405E+03  0.41800000000E+01 0. -1.
         -5    1    3    3    0  502 -0.22055950040E+02  0.15416717793E+02 -0.42210949435E+02  0.50233223786E+02  0.41800000000E+01 0. -1.
        -11    1    1    2    0    0 -0.13553932193E+02  0.63644979992E+02 -0.15471461054E+03  0.16784219753E+03  0.00000000000E+00 0.  1.
         11    1    1    2    0    0  0.93751306494E+01 -0.26361096149E+02 -0.15338205955E+03  0.15591297783E+03  0.00000000000E+00 0. -1.
</event>
<event>
 7    1  0.2842702E-009  0.1221234E+03  0.7561462E-02  0.1239635E+00
         -1   -1    0    0    0  501 -0.00000000000E+00  0.00000000000E+00  0.19034606097E+03  0.19034606097E+03  0.00000000000E+00 0.  1.
          1   -1    0    0  501    0  0.00000000000E+00 -0.00000000000E+00 -0.12607789273E+03  0.12607789273E+03  0.00000000000E+00 0. -1.
         25    2    1    2    0    0  0.38557526840E+02 -0.72262852930E+02 -0.19384345513E+02  0.15076795708E+03  0.12508645506E+03 0.  0.
          5    1    3    3  502    0  0.89149922982E+01  0.35890994906E+02 -0.27107679029E+01  0.37315697309E+02  0.41800000000E+01 0. -1.
         -5    1    3    3    0  502  0.29642534541E+02 -0.10815384784E+03 -0.16673577610E+02  0.11345225977E+03  0.41800000000E+01 0. -1.
        -11    1    1    2    0    0 -0.63861971938E+01  0.60064423082E+02  0.10783612163E+03  0.12360075875E+03  0.00000000000E+00 0.  1.
         11    1    1    2    0    0 -0.32171329646E+02  0.12198429848E+02 -0.24183607878E+02  0.42055237866E+02  0.00000000000E+00 0. -1.
</event>
<event>
 7    1  0.2842702E-009  0.1854562E+03  0.7561462E-02  0.1162625E+00
         -2   -1    0    0    0  501 -0.00000000000E+00  0.00000000000E+00  0.82660353337E+02  0.82660353337E+02  0.00000000000E+00 0.  1.
          2   -1    0    0  501    0  0.00000000000E+00 -0.00000000000E+00 -0.45041607242E+03  0.45041607242E+03  0.00000000000E+00 0. -1.
         25    2    1    2    0    0 -0.13456941578E+03  0.73650747610E+02 -0.13591522304E+03  0.24011202533E+03  0.12508987396E+03 0.  0.
          5    1    3    3  502    0 -0.11677430396E+03 -0.50519889991E+01 -0.75250359785E+02  0.13907497872E+03  0.41800000000E+01 0. -1.
         -5    1    3    3    0  502 -0.17795111821E+02  0.78702736609E+02 -0.60664863250E+02  0.10103704661E+03  0.41800000000E+01 0. -1.
        -11    1    1    2    0    0  0.10145951906E+03 -0.10690719353E+02 -0.17211987016E+03  0.20008392038E+03  0.00000000000E+00 0. -1.
         11    1    1    2    0    0  0.33109896714E+02 -0.62960028257E+02 -0.59720625886E+02  0.92880480052E+02  0.00000000000E+00 0.  1.
</event>
<event>
 7    1  0.2842702E-009  0.1482532E+03  0.7561462E-02  0.1202636E+00
         -1   -1    0    0    0  501 -0.00000000000E+00  0.00000000000E+00  0.27214403601E+02  0.27214403601E+02  0.00000000000E+00 0.  1.
          1   -1    0    0  501    0  0.00000000000E+00 -0.00000000000E+00 -0.90431019523E+03  0.90431019523E+03  0.00000000000E+00 0. -1.
         25    2    1    2    0    0 -0.58592898445E+02 -0.96254103830E+02 -0.48488592487E+03  0.51328304667E+03  0.12508855107E+03 0.  0.
          5    1    3    3  502    0  0.36391026013E+02 -0.51696020123E+02 -0.18388654940E+03  0.19449555450E+03  0.41800000000E+01 0. -1.
         -5    1    3    3    0  502 -0.94983924458E+02 -0.44558083707E+02 -0.30099937547E+03  0.31878749217E+03  0.41800000000E+01 0. -1.
        -11    1    1    2    0    0 -0.35286002892E+01  0.51413799442E+02 -0.69266350811E+02  0.86334565197E+02  0.00000000000E+00 0.  1.
         11    1    1    2    0    0  0.62121498735E+02  0.44840304389E+02 -0.32294351595E+03  0.33190698696E+03  0.00000000000E+00 0. -1.
</event>
<event>
 7    1  0.2842702E-009  0.1333497E+03  0.7561462E-02  0.1222568E+00
          1   -1    0    0  501    0  0.00000000000E+00  0.00000000000E+00  0.45176765434E+03  0.45176765434E+03  0.00000000000E+00 0. -1.
         -1   -1    0    0    0  501 -0.00000000000E+00 -0.00000000000E+00 -0.10738808555E+03  0.10738808555E+03  0.00000000000E+00 0.  1.
         25    2    1    2    0    0 -0.42497736017E+02  0.11269404878E+03  0.36805317190E+03  0.40695662197E+03  0.12507817002E+03 0.  0.
          5    1    3    3  502    0  0.39116474252E+01 -0.38165903645E+01 -0.79813657951E+01  0.10537644307E+02  0.41800000000E+01 0. -1.
         -5    1    3    3    0  502 -0.46409383442E+02  0.11651063915E+03  0.37603453770E+03  0.39641897766E+03  0.41800000000E+01 0. -1.
        -11    1    1    2    0    0  0.29034790991E+02 -0.99183948115E+01 -0.36581127272E+02  0.47744869002E+02  0.00000000000E+00 0.  1.
         11    1    1    2    0    0  0.13462945026E+02 -0.10277565397E+03  0.12907524165E+02  0.10445424892E+03  0.00000000000E+00 0. -1.
</event>
<event>
 7    1  0.3776284E-009  0.1191286E+03  0.7561462E-02  0.1244542E+00
         -2   -1    0    0    0  501 -0.00000000000E+00  0.00000000000E+00  0.31817873296E+02  0.31817873296E+02  0.00000000000E+00 0.  1.
          2   -1    0    0  501    0  0.00000000000E+00 -0.00000000000E+00 -0.70542941979E+03  0.70542941979E+03  0.00000000000E+00 0. -1.
         25    2    1    2    0    0  0.10188738076E+03  0.10094806832E+02 -0.33326822309E+03  0.37040280307E+03  0.12509030545E+03 0.  0.
          5    1    3    3  502    0  0.10835496645E+03  0.29209551308E+02 -0.33116506522E+03  0.34968810312E+03  0.41800000000E+01 0.  1.
         -5    1    3    3    0  502 -0.64675856885E+01 -0.19114744475E+02 -0.21031578725E+01  0.20714699950E+02  0.41800000000E+01 0.  1.
        -11    1    1    2    0    0 -0.47014713310E+02 -0.17105980031E+02 -0.48066124410E+02  0.69378311714E+02  0.00000000000E+00 0.  1.
         11    1    1    2    0    0 -0.54872667453E+02  0.70111731988E+01 -0.29227719899E+03  0.29746617830E+03  0.00000000000E+00 0. -1.
</event>
<event>
 7    1  0.2842702E-009  0.1493251E+03  0.7561462E-02  0.1201305E+00
         -3   -1    0    0    0  501 -0.00000000000E+00  0.00000000000E+00  0.28859377951E+02  0.28859377951E+02  0.00000000000E+00 0.  1.
          3   -1    0    0  501    0  0.00000000000E+00 -0.00000000000E+00 -0.97618383113E+03  0.97618383113E+03  0.00000000000E+00 0. -1.
         25    2    1    2    0    0 -0.22134306526E+02 -0.11527267237E+03 -0.66106138209E+03  0.68295430745E+03  0.12508684443E+03 0.  0.
          5    1    3    3  502    0  0.94116058359E+01 -0.12674231660E+03 -0.40038903724E+03  0.42009647307E+03  0.41800000000E+01 0.  1.
         -5    1    3    3    0  502 -0.31545912362E+02  0.11469644231E+02 -0.26067234485E+03  0.26285783438E+03  0.41800000000E+01 0.  1.
        -11    1    1    2    0    0  0.37687906635E+02  0.11612495531E+03 -0.19914833562E+03  0.23359247234E+03  0.00000000000E+00 0.  1.
         11    1    1    2    0    0 -0.15553600108E+02 -0.85228294385E+00 -0.87114735476E+02  0.88496429305E+02  0.00000000000E+00 0. -1.
</event>
<event>
 7    1  0.2842702E-009  0.1761824E+03  0.7561462E-02  0.1171550E+00
         -2   -1    0    0    0  501 -0.00000000000E+00  0.00000000000E+00  0.49065865516E+02  0.49065865516E+02  0.00000000000E+00 0.  1.
          2   -1    0    0  501    0  0.00000000000E+00 -0.00000000000E+00 -0.63577915341E+03  0.63577915341E+03  0.00000000000E+00 0. -1.
         25    2    1    2    0    0  0.12871477252E+03  0.55105685215E+02 -0.31327763184E+03  0.36523172586E+03  0.12508880747E+03 0.  0.
          5    1    3    3  502    0 -0.24417059039E+02  0.16402158670E+02 -0.46854619351E+02  0.55480188677E+02  0.41800000000E+01 0. -1.
         -5    1    3    3    0  502  0.15313183156E+03  0.38703526545E+02 -0.26642301249E+03  0.30975153718E+03  0.41800000000E+01 0. -1.
        -11    1    1    2    0    0 -0.10107448452E+03 -0.78866334498E+02 -0.22547289000E+03  0.25937226964E+03  0.00000000000E+00 0. -1.
         11    1    1    2    0    0 -0.27640287999E+02  0.23760649282E+02 -0.47962766060E+02  0.60241023423E+02  0.00000000000E+00 0.  1.
</event>
<event>
 7    1  0.2842702E-009  0.1183268E+03  0.7561462E-02  0.1245883E+00
          2   -1    0    0  501    0  0.00000000000E+00  0.00000000000E+00  0.15891854328E+03  0.15891854328E+03  0.00000000000E+00 0. -1.
         -2   -1    0    0    0  501 -0.00000000000E+00 -0.00000000000E+00 -0.11238479533E+03  0.11238479533E+03  0.00000000000E+00 0.  1.
         25    2    1    2    0    0 -0.74880166455E+02 -0.57519003926E+01  0.28764170844E+01  0.14593601668E+03  0.12509565741E+03 0.  0.
          5    1    3    3  502    0  0.11592604987E+02 -0.32193881274E+02 -0.33789408445E+02  0.48270394704E+02  0.41800000000E+01 0. -1.
         -5    1    3    3    0  502 -0.86472771442E+02  0.26441980881E+02  0.36665825529E+02  0.97665621974E+02  0.41800000000E+01 0. -1.
        -11    1    1    2    0    0  0.69963364003E+02 -0.29600344847E+02  0.10572807643E+02  0.76699654361E+02  0.00000000000E+00 0.  1.
         11    1    1    2    0    0  0.49168024525E+01  0.35352245239E+02  0.33084523221E+02  0.48667667569E+02  0.00000000000E+00 0. -1.
</event>
<event>
 6    1  0.2842702E-009  0.7001106E+02  0.7561462E-02  0.1360055E+00
          2   -1    0    0  501    0  0.00000000000E+00  0.00000000000E+00  0.13190633126E+04  0.13190633126E+04  0.00000000000E+00 0. -1.
         -2   -1    0    0    0  501 -0.00000000000E+00 -0.00000000000E+00 -0.17537803644E+02  0.17537803644E+02  0.00000000000E+00 0.  1.
          5    1    1    2  502    0 -0.45626774438E+02  0.13365779812E+02  0.16578803113E+03  0.17252127487E+03  0.41800000000E+01 0. -1.
         -5    1    1    2    0  502  0.23658370727E+02  0.29073590369E+01  0.99585535404E+03  0.99614935116E+03  0.41800000000E+01 0. -1.
        -11    1    1    2    0    0  0.40575860073E+02  0.37638547340E+01  0.20804600353E+02  0.45753671098E+02  0.00000000000E+00 0.  1.
         11    1    1    2    0    0 -0.18607456362E+02 -0.20036993582E+02  0.11907752343E+03  0.12217681912E+03  0.00000000000E+00 0. -1.
</event>
<event>
 7    1  0.2842702E-009  0.1086444E+03  0.7561462E-02  0.1263101E+00
          1   -1    0    0  501    0  0.00000000000E+00  0.00000000000E+00  0.62427486908E+03  0.62427486908E+03  0.00000000000E+00 0. -1.
         -1   -1    0    0    0  501 -0.00000000000E+00 -0.00000000000E+00 -0.24843866501E+02  0.24843866501E+02  0.00000000000E+00 0.  1.
         25    2    1    2    0    0  0.51511069139E+02 -0.31052620117E+02  0.30579606431E+03  0.33582446506E+03  0.12509669430E+03 0.  0.
          5    1    3    3  502    0  0.47571511107E+02 -0.61110529147E+02  0.29223711279E+03  0.30235334947E+03  0.41800000000E+01 0.  1.
         -5    1    3    3    0  502  0.39395580317E+01  0.30057909029E+02  0.13558951521E+02  0.33471115593E+02  0.41800000000E+01 0.  1.
        -11    1    1    2    0    0 -0.46983051057E+02 -0.24778096758E+02  0.13614892120E+03  0.14614338818E+03  0.00000000000E+00 0. -1.
         11    1    1    2    0    0 -0.45280180821E+01  0.55830716875E+02  0.15748601708E+03  0.16715088235E+03  0.00000000000E+00 0.  1.
</event>
<event>
 7    1  0.2842702E-009  0.1260985E+03  0.7561462E-02  0.1233362E+00
          2   -1    0    0  501    0  0.00000000000E+00  0.00000000000E+00  0.96479838114E+03  0.96479838114E+03  0.00000000000E+00 0. -1.
         -2   -1    0    0    0  501 -0.00000000000E+00 -0.00000000000E+00 -0.20907874954E+02  0.20907874954E+02  0.00000000000E+00 0.  1.
         25    2    1    2    0    0 -0.84966645562E+02 -0.10597197476E+02  0.39359739263E+03  0.42177978829E+03  0.12509057068E+03 0.  0.
          5    1    3    3  502    0 -0.91479149299E+01 -0.49801770663E+02  0.24631539149E+03  0.25150078567E+03  0.41800000000E+01 0.  1.
         -5    1    3    3    0  502 -0.75818730632E+02  0.39204573187E+02  0.14728200114E+03  0.17027900262E+03  0.41800000000E+01 0.  1.
        -11    1    1    2    0    0  0.26902740465E+02 -0.33540780043E+02  0.11943692928E+03  0.12694062174E+03  0.00000000000E+00 0.  1.
         11    1    1    2    0    0  0.58063905096E+02  0.44137977518E+02  0.43085618427E+03  0.43698584607E+03  0.00000000000E+00 0. -1.
</event>
<event>
 7    1  0.2842702E-009  0.6623866E+02  0.7561462E-02  0.1373372E+00
         -2   -1    0    0    0  501 -0.00000000000E+00  0.00000000000E+00  0.15053341146E+02  0.15053341146E+02  0.00000000000E+00 0.  1.
          2   -1    0    0  501    0  0.00000000000E+00 -0.00000000000E+00 -0.99849623716E+03  0.99849623716E+03  0.00000000000E+00 0. -1.
         25    2    1    2    0    0 -0.21794079431E+02  0.44192620654E+02 -0.67234944590E+03  0.68565947964E+03  0.12508866857E+03 0.  0.
          5    1    3    3  502    0 -0.23627181982E+02  0.51148077023E+02 -0.67466306626E+03  0.67702444187E+03  0.41800000000E+01 0. -1.
         -5    1    3    3    0  502  0.18331025504E+01 -0.69554563691E+01  0.23136203574E+01  0.86350377776E+01  0.41800000000E+01 0. -1.
        -11    1    1    2    0    0  0.14460444269E+02 -0.53723626354E+02 -0.31092460611E+03  0.31586301328E+03  0.00000000000E+00 0. -1.
         11    1    1    2    0    0  0.73336351626E+01  0.95310057002E+01 -0.16884400255E+00  0.12027085377E+02  0.00000000000E+00 0.  1.
</event>
<event>
 7    1  0.2842702E-009  0.8867155E+02  0.7561462E-02  0.1306101E+00
         -1   -1    0    0    0  501 -0.00000000000E+00  0.00000000000E+00  0.15109748895E+03  0.15109748895E+03  0.00000000000E+00 0.  1.
          1   -1    0    0  501    0  0.00000000000E+00 -0.00000000000E+00 -0.12641563576E+03  0.12641563576E+03  0.00000000000E+00 0. -1.
         25    2    1    2    0    0  0.56859253546E+02  0.41857685070E+02 -0.31187975238E+02  0.14698632593E+03  0.12508896713E+03 0.  0.
          5    1    3    3  502    0 -0.30609910222E+00  0.44157707291E+02 -0.66270425019E+02  0.79744833325E+02  0.41800000000E+01 0. -1.
         -5    1    3    3    0  502  0.57165352649E+02 -0.23000222216E+01  0.35082449781E+02  0.67241492609E+02  0.41800000000E+01 0. -1.
        -11    1    1    2    0    0 -0.59192720384E+01 -0.18795444301E+02  0.70108408552E+02  0.72825101838E+02  0.00000000000E+00 0.  1.
         11    1    1    2    0    0 -0.50939981508E+02 -0.23062240769E+02 -0.14238580121E+02  0.57701696935E+02  0.00000000000E+00 0. -1.
</event>
<event>
 7    1  0.2842702E-009  0.1033894E+03  0.7561462E-02  0.1273326E+00
          1   -1    0    0  501    0  0.00000000000E+00  0.00000000000E+00  0.76362864059E+02  0.76362864059E+02  0.00000000000E+00 0. -1.
         -1   -1    0    0    0  501 -0.00000000000E+00 -0.00000000000E+00 -0.16749986602E+03  0.16749986602E+03  0.00000000000E+00 0.  1.
         25    2    1    2    0    0 -0.21035113332E+01 -0.29881849131E+02 -0.60505692106E+02  0.14213994571E+03  0.12508187607E+03 0.  0.
          5    1    3    3  502    0 -0.48337316860E+02  0.10151935555E+02 -0.63750537633E+02  0.80753708553E+02  0.41800000000E+01 0. -1.
         -5    1    3    3    0  502  0.46233805526E+02 -0.40033784686E+02  0.32448455265E+01  0.61386237156E+02  0.41800000000E+01 0. -1.
        -11    1    1    2    0    0  0.10154315576E+02 -0.31966155739E+02 -0.18078924595E+02  0.38102398245E+02  0.00000000000E+00 0.  1.
         11    1    1    2    0    0 -0.80508042425E+01  0.61848004870E+02 -0.12552385264E+02  0.63620386128E+02  0.00000000000E+00 0. -1.
</event>
<event>
 7    1  0.2842702E-009  0.1351695E+03  0.7561462E-02  0.1219981E+00
         -1   -1    0    0    0  501 -0.00000000000E+00  0.00000000000E+00  0.46336371218E+02  0.46336371218E+02  0.00000000000E+00 0.  1.
          1   -1    0    0  501    0  0.00000000000E+00 -0.00000000000E+00 -0.54073778891E+03  0.54073778891E+03  0.00000000000E+00 0. -1.
         25    2    1    2    0    0  0.18039859899E+01  0.10521649019E+03 -0.35706640513E+03  0.39270443489E+03  0.12508633552E+03 0.  0.
          5    1    3    3  502    0  0.39585145814E+01  0.11866964984E+03 -0.18382137777E+03  0.21887422634E+03  0.41800000000E+01 0.  1.
         -5    1    3    3    0  502 -0.21545285915E+01 -0.13453159650E+02 -0.17324502736E+03  0.17383020855E+03  0.41800000000E+01 0.  1.
        -11    1    1    2    0    0 -0.44135391409E+02 -0.67106219045E+02 -0.86270247503E+02  0.11787168029E+03  0.00000000000E+00 0.  1.
         11    1    1    2    0    0  0.42331405419E+02 -0.38110271144E+02 -0.51064765056E+02  0.76498044953E+02  0.00000000000E+00 0. -1.
</event>
<event>
 7    1  0.2842702E-009  0.5062293E+03  0.7561462E-02  0.1012166E+00
          1   -1    0    0  501    0  0.00000000000E+00  0.00000000000E+00  0.16532693316E+04  0.16532693316E+04  0.00000000000E+00 0. -1.
         -1   -1    0    0    0  501 -0.00000000000E+00 -0.00000000000E+00 -0.18331984524E+03  0.18331984524E+03  0.00000000000E+00 0.  1.
         25    2    1    2    0    0  0.32627176829E+03  0.38544235916E+03  0.42208170015E+03  0.66994135964E+03  0.12509750094E+03 0.  0.
          5    1    3    3  502    0  0.16148386748E+03  0.20363156576E+03  0.29637535088E+03  0.39420638635E+03  0.41800000000E+01 0.  1.
         -5    1    3    3    0  502  0.16478790081E+03  0.18181079340E+03  0.12570634927E+03  0.27573497329E+03  0.41800000000E+01 0.  1.
        -11    1    1    2    0    0 -0.25258878885E+03 -0.32628537514E+03  0.91362337555E+03  0.10024823762E+04  0.00000000000E+00 0. -1.
         11    1    1    2    0    0 -0.73682979440E+02 -0.59156984018E+02  0.13424441062E+03  0.16416544094E+03  0.00000000000E+00 0.  1.
</event>
<event>
 7    1  0.2842702E-009  0.1085460E+03  0.7561462E-02  0.1263286E+00
         -2   -1    0    0    0  501 -0.00000000000E+00  0.00000000000E+00  0.11012745292E+03  0.11012745292E+03  0.00000000000E+00 0.  1.
          2   -1    0    0  501    0  0.00000000000E+00 -0.00000000000E+00 -0.30829115762E+03  0.30829115762E+03  0.00000000000E+00 0. -1.
         25    2    1    2    0    0  0.43718859227E+02  0.18308852905E+02  0.54270691592E+02  0.14437107266E+03  0.12510453992E+03 0.  0.
          5    1    3    3  502    0 -0.22293369340E+02 -0.29331641228E+02 -0.12364776942E+02  0.39085797964E+02  0.41800000000E+01 0. -1.
         -5    1    3    3    0  502  0.66012228566E+02  0.47640494133E+02  0.66635468534E+02  0.10528527470E+03  0.41800000000E+01 0. -1.
        -11    1    1    2    0    0  0.26427262337E+02 -0.79110340782E+01 -0.30811817811E+02  0.41356411494E+02  0.00000000000E+00 0.  1.
         11    1    1    2    0    0 -0.70146121564E+02 -0.10397818827E+02 -0.22162257848E+03  0.23269112639E+03  0.00000000000E+00 0. -1.
</event>
<event>
 7    1  0.2842702E-009  0.1047173E+03  0.7561462E-02  0.1270678E+00
         -1   -1    0    0    0  501 -0.00000000000E+00  0.00000000000E+00  0.71401045959E+02  0.71401045959E+02  0.00000000000E+00 0.  1.
          1   -1    0    0  501    0  0.00000000000E+00 -0.00000000000E+00 -0.24788556936E+03  0.24788556936E+03  0.00000000000E+00 0. -1.
         25    2    1    2    0    0  0.18662480239E+02  0.72957143998E+02 -0.12645324491E+03  0.19316062687E+03  0.12509824777E+03 0.  0.
          5    1    3    3  502    0 -0.27861546147E+02  0.58616122833E+02 -0.86280032073E+01  0.65605109930E+02  0.41800000000E+01 0.  1.
         -5    1    3    3    0  502  0.46524026387E+02  0.14341021166E+02 -0.11782524170E+03  0.12755551694E+03  0.41800000000E+01 0.  1.
        -11    1    1    2    0    0  0.32314689945E+01  0.95978320286E+01  0.15471318793E+02  0.18491145900E+02  0.00000000000E+00 0.  1.
         11    1    1    2    0    0 -0.21893949234E+02 -0.82554976027E+02 -0.65502597286E+02  0.10763484255E+03  0.00000000000E+00 0. -1.
</event>
<event>
 7    1  0.2842702E-009  0.1081017E+03  0.7561462E-02  0.1264126E+00
         -2   -1    0    0    0  501 -0.00000000000E+00  0.00000000000E+00  0.38685449850E+02  0.38685449850E+02  0.00000000000E+00 0.  1.
          2   -1    0    0  501    0  0.00000000000E+00 -0.00000000000E+00 -0.56646452356E+03  0.56646452356E+03  0.00000000000E+00 0. -1.
         25    2    1    2    0    0 -0.66268689690E+02  0.93384496239E+01 -0.13073393560E+03  0.19291848442E+03  0.12508970316E+03 0.  0.
          5    1    3    3  502    0 -0.78533107984E+02 -0.12814635503E+02 -0.24109720100E+02  0.83249113726E+02  0.41800000000E+01 0. -1.
         -5    1    3    3    0  502  0.12264418294E+02  0.22153085127E+02 -0.10662421550E+03  0.10966937069E+03  0.41800000000E+01 0. -1.
        -11    1    1    2    0    0 -0.92705432768E+01 -0.30933218013E+02 -0.11446964348E+03  0.11893740466E+03  0.00000000000E+00 0.  1.
         11    1    1    2    0    0  0.75539232967E+02  0.21594768389E+02 -0.28257549463E+03  0.29329408433E+03  0.00000000000E+00 0. -1.
</event>
<event>
 7    1  0.2842702E-009  0.1869607E+03  0.7561462E-02  0.1161231E+00
         -2   -1    0    0    0  501 -0.00000000000E+00  0.00000000000E+00  0.33419663952E+03  0.33419663952E+03  0.00000000000E+00 0.  1.
          2   -1    0    0  501    0  0.00000000000E+00 -0.00000000000E+00 -0.11253324608E+03  0.11253324608E+03  0.00000000000E+00 0. -1.
         25    2    1    2    0    0 -0.15947231387E+03  0.32309438829E+01  0.14036680133E+03  0.24656270268E+03  0.12509384295E+03 0.  0.
          5    1    3    3  502    0 -0.56513142787E+02 -0.58448910177E+02  0.70042504779E+02  0.10739383262E+03  0.41800000000E+01 0.  1.
         -5    1    3    3    0  502 -0.10295917109E+03  0.61679854060E+02  0.70324296553E+02  0.13916887006E+03  0.41800000000E+01 0.  1.
        -11    1    1    2    0    0  0.47653416698E+02  0.29328864107E+02 -0.35605965993E+01  0.56068781340E+02  0.00000000000E+00 0.  1.
         11    1    1    2    0    0  0.11181889718E+03 -0.32559807990E+02  0.84857188706E+02  0.14409840158E+03  0.00000000000E+00 0. -1.
</event>
<event>
 7    1  0.2842702E-009  0.1071290E+03  0.7561462E-02  0.1265981E+00
         -1   -1    0    0    0  501 -0.00000000000E+00  0.00000000000E+00  0.64273466965E+02  0.64273466965E+02  0.00000000000E+00 0.  1.
          1   -1    0    0  501    0  0.00000000000E+00 -0.00000000000E+00 -0.31076936022E+03  0.31076936022E+03  0.00000000000E+00 0. -1.
         25    2    1    2    0    0  0.89520726061E+01  0.94938381490E+02 -0.15304965961E+03  0.21946305355E+03  0.12508556144E+03 0.  0.
          5    1    3    3  502    0  0.10396579395E+02  0.19573599064E+02  0.20327316895E+02  0.30362589738E+02  0.41800000000E+01 0.  1.
         -5    1    3    3    0  502 -0.14445067888E+01  0.75364782427E+02 -0.17337697651E+03  0.18910046381E+03  0.41800000000E+01 0.  1.
        -11    1    1    2    0    0  0.27657091263E+02 -0.25058547579E+02 -0.59869718186E+01  0.37798007030E+02  0.00000000000E+00 0.  1.
         11    1    1    2    0    0 -0.36609163869E+02 -0.69879833911E+02 -0.87459261826E+02  0.11778176661E+03  0.00000000000E+00 0. -1.
</event>
<event>
 7    1  0.2842702E-009  0.1042430E+03  0.7561462E-02  0.1271618E+00
          2   -1    0    0  501    0  0.00000000000E+00  0.00000000000E+00  0.61853795563E+03  0.61853795563E+03  0.00000000000E+00 0. -1.
         -2   -1    0    0    0  501 -0.00000000000E+00 -0.00000000000E+00 -0.23077689652E+02  0.23077689652E+02  0.00000000000E+00 0.  1.
         25    2    1    2    0    0  0.34835955207E+02 -0.26225301161E+02  0.40686500867E+03  0.42789359775E+03  0.12510989375E+03 0.  0.
          5    1    3    3  502    0 -0.47014856348E+01 -0.71763657935E+02  0.22138628701E+03  0.23281212822E+03  0.41800000000E+01 0. -1.
         -5    1    3    3    0  502  0.39537440842E+02  0.45538356773E+02  0.18547872166E+03  0.19508146953E+03  0.41800000000E+01 0. -1.
        -11    1    1    2    0    0  0.12887627870E+02 -0.98087645612E+01  0.34221005958E+00  0.16199380299E+02  0.00000000000E+00 0.  1.
         11    1    1    2    0    0 -0.47723583077E+02  0.36034065722E+02  0.18825304724E+03  0.19752266723E+03  0.00000000000E+00 0. -1.
</event>
<event>
 7    1  0.2842702E-009  0.1750342E+03  0.7561462E-02  0.1172697E+00
          4   -1    0    0  501    0  0.00000000000E+00  0.00000000000E+00  0.11876499981E+04  0.11876499981E+04  0.00000000000E+00 0.  1.
         -4   -1    0    0    0  501 -0.00000000000E+00 -0.00000000000E+00 -0.32240463014E+02  0.32240463014E+02  0.00000000000E+00 0. -1.
         25    2    1    2    0    0 -0.19019980032E+02 -0.13893038324E+03  0.86413968035E+03  0.88433388693E+03  0.12508247439E+03 0.  0.
          5    1    3    3  502    0  0.38752633524E+02 -0.45075001243E+01  0.24537905270E+03  0.24849635021E+03  0.41800000000E+01 0. -1.
         -5    1    3    3    0  502 -0.57772613556E+02 -0.13442288311E+03  0.61876062765E+03  0.63583753673E+03  0.41800000000E+01 0. -1.
        -11    1    1    2    0    0  0.52393302141E+02  0.10209737537E+03  0.22651813208E+03  0.25392793530E+03  0.00000000000E+00 0. -1.
         11    1    1    2    0    0 -0.33373322109E+02  0.36833007866E+02  0.64751722643E+02  0.81628638861E+02  0.00000000000E+00 0.  1.
</event>
<event>
 7    1  0.2842702E-009  0.7241456E+02  0.7561462E-02  0.1352070E+00
          2   -1    0    0  501    0  0.00000000000E+00  0.00000000000E+00  0.46836753470E+02  0.46836753470E+02  0.00000000000E+00 0. -1.
         -2   -1    0    0    0  501 -0.00000000000E+00 -0.00000000000E+00 -0.88910966301E+03  0.88910966301E+03  0.00000000000E+00 0.  1.
         25    2    1    2    0    0  0.23168612513E+02  0.44514746027E+01 -0.83094372979E+03  0.84063735202E+03  0.12508827003E+03 0.  0.
          5    1    3    3  502    0 -0.22547694615E+02  0.33019284951E+02 -0.66270722359E+03  0.66392545388E+03  0.41800000000E+01 0.  1.
         -5    1    3    3    0  502  0.45716307128E+02 -0.28567810348E+02 -0.16823650620E+03  0.17671189814E+03  0.41800000000E+01 0.  1.
        -11    1    1    2    0    0  0.91013796242E+01 -0.14183219649E+02  0.34514075590E+02  0.38408595971E+02  0.00000000000E+00 0. -1.
         11    1    1    2    0    0 -0.32269992137E+02  0.97317450460E+01 -0.45843255333E+02  0.56900468484E+02  0.00000000000E+00 0.  1.
</event>
<event>
 7    1  0.2842702E-009  0.1325338E+03  0.7561462E-02  0.1223744E+00
          1   -1    0    0  501    0  0.00000000000E+00  0.00000000000E+00  0.84466225192E+02  0.84466225192E+02  0.00000000000E+00 0. -1.
         -1   -1    0    0    0  501 -0.00000000000E+00 -0.00000000000E+00 -0.24932667023E+03  0.24932667023E+03  0.00000000000E+00 0.  1.
         25    2    1    2    0    0  0.15169942706E+02  0.91854632413E+02 -0.11994717650E+03  0.19672352940E+03  0.12508165818E+03 0.  0.
          5    1    3    3  502    0  0.58393320028E+02  0.22757436275E+02 -0.16464149846E+02  0.64932436886E+02  0.41800000000E+01 0.  1.
         -5    1    3    3    0  502 -0.43223377323E+02  0.69097196138E+02 -0.10348302666E+03  0.13179109252E+03  0.41800000000E+01 0.  1.
        -11    1    1    2    0    0 -0.16146264948E+02  0.98660987601E+01  0.10070704989E+02  0.21435038500E+02  0.00000000000E+00 0. -1.
         11    1    1    2    0    0  0.97632224261E+00 -0.10172073117E+03 -0.54983973521E+02  0.11563432751E+03  0.00000000000E+00 0.  1.
</event>
<event>
 7    1  0.2842702E-009  0.9737715E+02  0.7561462E-02  0.1285910E+00
          1   -1    0    0  501    0  0.00000000000E+00  0.00000000000E+00  0.13165610775E+03  0.13165610775E+03  0.00000000000E+00 0. -1.
         -1   -1    0    0    0  501 -0.00000000000E+00 -0.00000000000E+00 -0.91125219966E+02  0.91125219966E+02  0.00000000000E+00 0.  1.
         25    2    1    2    0    0 -0.37103027963E+01 -0.15853976456E+02  0.13837432377E+02  0.12690114743E+03  0.12508921524E+03 0.  0.
          5    1    3    3  502    0  0.27949069117E+02  0.44304455884E+02  0.24468774763E+02  0.57967478935E+02  0.41800000000E+01 0. -1.
         -5    1    3    3    0  502 -0.31659371914E+02 -0.60158432340E+02 -0.10631342386E+02  0.68933668497E+02  0.41800000000E+01 0. -1.
        -11    1    1    2    0    0  0.73944377214E+01 -0.28573796820E+02  0.39673955446E+02  0.49448582534E+02  0.00000000000E+00 0.  1.
         11    1    1    2    0    0 -0.36841349252E+01  0.44427773276E+02 -0.12980500038E+02  0.46431597751E+02  0.00000000000E+00 0. -1.
</event>
<event>
 7    1  0.2842702E-009  0.1260579E+03  0.7561462E-02  0.1233425E+00
         -3   -1    0    0    0  501 -0.00000000000E+00  0.00000000000E+00  0.59926443312E+02  0.59926443312E+02  0.00000000000E+00 0.  1.
          3   -1    0    0  501    0  0.00000000000E+00 -0.00000000000E+00 -0.32172990227E+03  0.32172990227E+03  0.00000000000E+00 0. -1.
         25    2    1    2    0    0  0.70319416495E+02 -0.48853296571E+02 -0.13300523121E+03  0.20166714513E+03  0.12509109070E+03 0.  0.
          5    1    3    3  502    0  0.78203745715E+02  0.12283237673E+02 -0.36959862770E+02  0.87465465342E+02  0.41800000000E+01 0.  1.
         -5    1    3    3    0  502 -0.78843292200E+01 -0.61136534244E+02 -0.96045368442E+02  0.11420167979E+03  0.41800000000E+01 0.  1.
        -11    1    1    2    0    0  0.54731872580E+01  0.33223383478E+02 -0.50673399870E+01  0.34050358633E+02  0.00000000000E+00 0.  1.
         11    1    1    2    0    0 -0.75792603753E+02  0.15629913093E+02 -0.12373088776E+03  0.14593884182E+03  0.00000000000E+00 0. -1.
</event>
<event>
 7    1  0.2842702E-009  0.1647453E+03  0.7561462E-02  0.1183441E+00
         -1   -1    0    0    0  501 -0.00000000000E+00  0.00000000000E+00  0.23044016219E+02  0.23044016219E+02  0.00000000000E+00 0.  1.
          1   -1    0    0  501    0  0.00000000000E+00 -0.00000000000E+00 -0.13246197259E+04  0.13246197259E+04  0.00000000000E+00 0. -1.
         25    2    1    2    0    0 -0.13324793890E+03 -0.29276085209E+02 -0.68093848386E+03  0.70564687640E+03  0.12509273755E+03 0.  0.
          5    1    3    3  502    0 -0.14616638671E+03 -0.11651093075E+02 -0.44266514411E+03  0.46633706992E+03  0.41800000000E+01 0. -1.
         -5    1    3    3    0  502  0.12918447811E+02 -0.17624992135E+02 -0.23827333975E+03  0.23930980648E+03  0.41800000000E+01 0. -1.
        -11    1    1    2    0    0  0.20381501997E+02  0.42283088491E+02 -0.24958360090E+03  0.25395912867E+03  0.00000000000E+00 0. -1.
         11    1    1    2    0    0  0.11286643690E+03 -0.13007003282E+02 -0.37105362488E+03  0.38805773701E+03  0.00000000000E+00 0.  1.
</event>
<event>
 7    1  0.2842702E-009  0.8382241E+02  0.7561462E-02  0.1318541E+00
          1   -1    0    0  501    0  0.00000000000E+00  0.00000000000E+00  0.33074873227E+03  0.33074873227E+03  0.00000000000E+00 0. -1.
         -1   -1    0    0    0  501 -0.00000000000E+00 -0.00000000000E+00 -0.46494148933E+02  0.46494148933E+02  0.00000000000E+00 0.  1.
         25    2    1    2    0    0  0.42649916586E+02 -0.45109103217E+02  0.16215190566E+03  0.21399550889E+03  0.12508793202E+03 0.  0.
          5    1    3    3  502    0  0.54571733111E+01 -0.54444104737E+01  0.15913580401E+03  0.15937722191E+03  0.41800000000E+01 0.  1.
         -5    1    3    3    0  502  0.37192743275E+02 -0.39664692743E+02  0.30161016471E+01  0.54618286973E+02  0.41800000000E+01 0.  1.
        -11    1    1    2    0    0 -0.64433359821E+02  0.13306166964E+02  0.54531773835E+02  0.85454235089E+02  0.00000000000E+00 0.  1.
         11    1    1    2    0    0  0.21783443235E+02  0.31802936253E+02  0.67570903839E+02  0.77793137224E+02  0.00000000000E+00 0. -1.
</event>
