<event>
 8    1  0.2184156E-005  0.1132133E+03  0.7561462E-02  0.1254733E+00
          2   -1    0    0  501    0  0.00000000000E+00  0.00000000000E+00  0.32010908520E+03  0.32010908520E+03  0.00000000000E+00 0. -1.
         -2   -1    0    0    0  501 -0.00000000000E+00 -0.00000000000E+00 -0.59439482643E+02  0.59439482643E+02  0.00000000000E+00 0.  1.
         23    2    1    2    0    0 -0.36252006681E+02 -0.34344891025E+02  0.22391133274E+02  0.10583516065E+03  0.90586637279E+02 0.  0.
         23    2    1    2    0    0  0.36252006681E+02  0.34344891025E+02  0.23827846929E+03  0.27371340719E+03  0.12509444761E+03 0.  0.
          5    1    4    4  502    0 -0.35599814673E+02  0.48754877666E+02  0.12243326443E+03  0.13657145214E+03  0.41800000000E+01 0.  1.
         -5    1    4    4    0  502  0.71851821355E+02 -0.14409986640E+02  0.11584520486E+03  0.13714195505E+03  0.41800000000E+01 0.  1.
        -11    1    3    3    0    0 -0.49707286462E+02 -0.50922130533E+02  0.36764830085E+02  0.80097006415E+02  0.00000000000E+00 0. -1.
         11    1    3    3    0    0  0.13455279780E+02  0.16577239508E+02 -0.14373696811E+02  0.25738154240E+02  0.00000000000E+00 0.  1.
</event>
<event>
 8    1  0.2184156E-005  0.8687149E+02  0.7561462E-02  0.1310610E+00
         -1   -1    0    0    0  501 -0.00000000000E+00  0.00000000000E+00  0.14991105981E+02  0.14991105981E+02  0.00000000000E+00 0.  1.
          1   -1    0    0  501    0  0.00000000000E+00 -0.00000000000E+00 -0.10232948946E+04  0.10232948946E+04  0.00000000000E+00 0. -1.
         23    2    1    2    0    0 -0.33024629297E+02  0.47947742048E+01 -0.33375293890E+03  0.35140659139E+03  0.10479481022E+03 0.  0.
         23    2    1    2    0    0  0.33024629297E+02 -0.47947742048E+01 -0.67455084969E+03  0.68687940916E+03  0.12518329725E+03 0.  0.
          5    1    4    4  502    0 -0.14838107777E+02  0.35936158130E+01 -0.58242463466E+03  0.58263969224E+03  0.41800000000E+01 0. -1.
         -5    1    4    4    0  502  0.47862737074E+02 -0.83883900178E+01 -0.92126215027E+02  0.10423971692E+03  0.41800000000E+01 0. -1.
        -11    1    3    3    0    0  0.23919393444E+02 -0.33029390199E+02 -0.14629727028E+03  0.15187484746E+03  0.00000000000E+00 0. -1.
         11    1    3    3    0    0 -0.56944022740E+02  0.37824164404E+02 -0.18745566862E+03  0.19953174393E+03  0.00000000000E+00 0.  1.
</event>
<event>
 8    1  0.2184156E-005  0.9582098E+02  0.7561462E-02  0.1289338E+00
         -2   -1    0    0    0  501 -0.00000000000E+00  0.00000000000E+00  0.36728867203E+02  0.36728867203E+02  0.00000000000E+00 0.  1.
          2   -1    0    0  501    0  0.00000000000E+00 -0.00000000000E+00 -0.36330985544E+03  0.36330985544E+03  0.00000000000E+00 0. -1.
         23    2    1    2    0    0 -0.28011609151E+02 -0.27399954981E+02 -0.14880929332E+03  0.17915800046E+03  0.91749526265E+02 0.  0.
         23    2    1    2    0    0  0.28011609151E+02  0.27399954981E+02 -0.17777169491E+03  0.22088072218E+03  0.12510040023E+03 0.  0.
          5    1    4    4  502    0 -0.38916091295E+02  0.11092191742E+02 -0.13185670276E+03  0.13798971463E+03  0.41800000000E+01 0. -1.
         -5    1    4    4    0  502  0.66927700446E+02  0.16307763239E+02 -0.45914992149E+02  0.82891007552E+02  0.41800000000E+01 0. -1.
        -11    1    3    3    0    0  0.19933243831E+02  0.88818962433E+01 -0.37642458299E+01  0.22144792552E+02  0.00000000000E+00 0.  1.
         11    1    3    3    0    0 -0.47944852982E+02 -0.36281851224E+02 -0.14504504749E+03  0.15701320791E+03  0.00000000000E+00 0. -1.
</event>
<event>
 8    1  0.2184156E-005  0.1267772E+03  0.7561462E-02  0.1232318E+00
          2   -1    0    0  501    0  0.00000000000E+00  0.00000000000E+00  0.88625187801E+03  0.88625187801E+03  0.00000000000E+00 0. -1.
         -2   -1    0    0    0  501 -0.00000000000E+00 -0.00000000000E+00 -0.25155396290E+02  0.25155396290E+02  0.00000000000E+00 0.  1.
         23    2    1    2    0    0  0.62276399567E+02  0.90445592393E+02  0.38399324435E+03  0.40610236677E+03  0.73549748219E+02 0.  0.
         23    2    1    2    0    0 -0.62276399567E+02 -0.90445592393E+02  0.47710323737E+03  0.50530490753E+03  0.12508715098E+03 0.  0.
          5    1    4    4  502    0 -0.74044829618E+02 -0.88917599444E+02  0.22643559224E+03  0.25432169809E+03  0.41800000000E+01 0.  1.
         -5    1    4    4    0  502  0.11768430051E+02 -0.15279929487E+01  0.25066764513E+03  0.25098320944E+03  0.41800000000E+01 0.  1.
        -11    1    3    3    0    0  0.69886427990E+02  0.55000300801E+02  0.20475787211E+03  0.22323738955E+03  0.00000000000E+00 0.  1.
         11    1    3    3    0    0 -0.76100284230E+01  0.35445291592E+02  0.17923537225E+03  0.18286497722E+03  0.00000000000E+00 0. -1.
</event>
<event>
 7    1  0.2184156E-005  0.9806316E+02  0.7561462E-02  0.1284422E+00
         -3   -1    0    0    0  501 -0.00000000000E+00  0.00000000000E+00  0.58485855889E+02  0.58485855889E+02  0.00000000000E+00 0.  1.
          3   -1    0    0  501    0  0.00000000000E+00 -0.00000000000E+00 -0.11920673474E+04  0.11920673474E+04  0.00000000000E+00 0. -1.
         23    2    1    2    0    0  0.88709828475E+01  0.10561822905E+02 -0.41602215624E+02  0.10079921986E+03  0.90771647220E+02 0.  0.
          5    1    1    2  502    0 -0.46054321462E+02 -0.59093395754E+02 -0.10855456775E+04  0.10881359843E+04  0.41800000000E+01 0. -1.
         -5    1    1    2    0  502  0.37183338615E+02  0.48531572849E+02 -0.64335984083E+01  0.61617999174E+02  0.41800000000E+01 0.  1.
        -11    1    3    3    0    0  0.10319812298E+01 -0.24175538843E+02 -0.57059527829E+02  0.61978313785E+02  0.00000000000E+00 0. -1.
         11    1    3    3    0    0  0.78390016177E+01  0.34737361748E+02  0.15457312205E+02  0.38820906071E+02  0.00000000000E+00 0.  1.
</event>
<event>
 8    1  0.2184156E-005  0.9672135E+02  0.7561462E-02  0.1287346E+00
          2   -1    0    0  501    0  0.00000000000E+00  0.00000000000E+00  0.92059494775E+03  0.92059494775E+03  0.00000000000E+00 0. -1.
         -2   -1    0    0    0  501 -0.00000000000E+00 -0.00000000000E+00 -0.14698466752E+02  0.14698466752E+02  0.00000000000E+00 0.  1.
         23    2    1    2    0    0  0.12920171398E+02  0.15647456928E+02  0.23965958381E+03  0.25711138563E+03  0.90872299249E+02 0.  0.
         23    2    1    2    0    0 -0.12920171398E+02 -0.15647456928E+02  0.66623689719E+03  0.67818202888E+03  0.12508991716E+03 0.  0.
          5    1    4    4  502    0 -0.89699432419E+01  0.47068197060E+02  0.13672813471E+03  0.14494112694E+03  0.41800000000E+01 0. -1.
         -5    1    4    4    0  502 -0.39502281558E+01 -0.62715653988E+02  0.52950876248E+03  0.53324090194E+03  0.41800000000E+01 0. -1.
        -11    1    3    3    0    0 -0.28334387846E+02 -0.13960595639E+02  0.15664112038E+03  0.15979416873E+03  0.00000000000E+00 0. -1.
         11    1    3    3    0    0  0.41254559244E+02  0.29608052567E+02  0.83018463427E+02  0.97317216899E+02  0.00000000000E+00 0.  1.
</event>
<event>
 7    1  0.2184156E-005  0.1351143E+03  0.7561462E-02  0.1220058E+00
         -4   -1    0    0    0  501 -0.00000000000E+00  0.00000000000E+00  0.23472945113E+03  0.23472945113E+03  0.00000000000E+00 0.  1.
          4   -1    0    0  501    0  0.00000000000E+00 -0.00000000000E+00 -0.10068572037E+03  0.10068572037E+03  0.00000000000E+00 0. -1.
         23    2    1    2    0    0  0.11498170249E+02 -0.52743821657E+02  0.64792645418E+02  0.12363208624E+03  0.90402915908E+02 0.  0.
          5    1    1    2  502    0 -0.13361410050E+02 -0.61488402305E+02 -0.20637451668E+02  0.66353053494E+02  0.41800000000E+01 0. -1.
         -5    1    1    2    0  502  0.18632398008E+01  0.11423222396E+03  0.89888537008E+02  0.14543003177E+03  0.41800000000E+01 0.  1.
        -11    1    3    3    0    0  0.42419734550E+02 -0.17314149384E+02  0.29105746653E+01  0.45909531615E+02  0.00000000000E+00 0. -1.
         11    1    3    3    0    0 -0.30921564301E+02 -0.35429672273E+02  0.61882070753E+02  0.77722554621E+02  0.00000000000E+00 0.  1.
</event>
<event>
 8    1  0.2184156E-005  0.1227929E+03  0.7561462E-02  0.1238559E+00
          1   -1    0    0  501    0  0.00000000000E+00  0.00000000000E+00  0.97635656081E+03  0.97635656081E+03  0.00000000000E+00 0. -1.
         -1   -1    0    0    0  501 -0.00000000000E+00 -0.00000000000E+00 -0.19582560324E+02  0.19582560324E+02  0.00000000000E+00 0.  1.
         23    2    1    2    0    0 -0.61670082326E+02  0.29024212422E+02  0.24587615606E+03  0.27090900383E+03  0.91054929978E+02 0.  0.
         23    2    1    2    0    0  0.61670082326E+02 -0.29024212422E+02  0.71089784442E+03  0.72503011730E+03  0.12508925548E+03 0.  0.
          5    1    4    4  502    0 -0.32390768841E+02 -0.19847080447E+02  0.10391681048E+03  0.11072147221E+03  0.41800000000E+01 0.  1.
         -5    1    4    4    0  502  0.94060851166E+02 -0.91771319751E+01  0.60698103394E+03  0.61430864510E+03  0.41800000000E+01 0.  1.
        -11    1    3    3    0    0 -0.75645002331E+01 -0.31028531622E+02  0.86481032515E+02  0.92189806504E+02  0.00000000000E+00 0. -1.
         11    1    3    3    0    0 -0.54105582092E+02  0.60052744044E+02  0.15939512355E+03  0.17871919732E+03  0.00000000000E+00 0.  1.
</event>
<event>
 8    1  0.2184156E-005  0.1073997E+03  0.7561462E-02  0.1265462E+00
         -1   -1    0    0    0  501 -0.00000000000E+00  0.00000000000E+00  0.76614263528E+02  0.76614263528E+02  0.00000000000E+00 0.  1.
          1   -1    0    0  501    0  0.00000000000E+00 -0.00000000000E+00 -0.18023071122E+03  0.18023071122E+03  0.00000000000E+00 0. -1.
         23    2    1    2    0    0  0.29549168370E+02  0.26922416163E+02 -0.21344644341E+02  0.10187587289E+03  0.91242149203E+02 0.  0.
         23    2    1    2    0    0 -0.29549168370E+02 -0.26922416163E+02 -0.82271803353E+02  0.15496910186E+03  0.12509517601E+03 0.  0.
          5    1    4    4  502    0  0.19856478221E+01 -0.65248042064E+02 -0.85061605024E+01  0.65962693676E+02  0.41800000000E+01 0.  1.
         -5    1    4    4    0  502 -0.31534816192E+02  0.38325625901E+02 -0.73765642851E+02  0.89006408186E+02  0.41800000000E+01 0.  1.
        -11    1    3    3    0    0 -0.19595146606E+02  0.43504296430E+02 -0.11570845375E+02  0.49096619446E+02  0.00000000000E+00 0. -1.
         11    1    3    3    0    0  0.49144314976E+02 -0.16581880267E+02 -0.97737989658E+01  0.52779253441E+02  0.00000000000E+00 0.  1.
</event>
<event>
 8    1  0.2184156E-005  0.1273760E+03  0.7561462E-02  0.1231402E+00
          2   -1    0    0  501    0  0.00000000000E+00  0.00000000000E+00  0.45143320843E+03  0.45143320843E+03  0.00000000000E+00 0. -1.
         -2   -1    0    0    0  501 -0.00000000000E+00 -0.00000000000E+00 -0.53979695061E+02  0.53979695061E+02  0.00000000000E+00 0.  1.
         23    2    1    2    0    0 -0.11159107437E+03 -0.92146571369E+01  0.16615792705E+03  0.21960979959E+03  0.89902889652E+02 0.  0.
         23    2    1    2    0    0  0.11159107437E+03  0.92146571369E+01  0.23129558632E+03  0.28580310390E+03  0.12509311797E+03 0.  0.
          5    1    4    4  502    0  0.72461334286E+02  0.20388774519E+00  0.26817572800E+02  0.77377911239E+02  0.41800000000E+01 0.  1.
         -5    1    4    4    0  502  0.39129740089E+02  0.90107693917E+01  0.20447801352E+03  0.20842519266E+03  0.41800000000E+01 0.  1.
        -11    1    3    3    0    0 -0.31974670573E+02  0.37664371408E+02  0.41994278532E+02  0.64842145718E+02  0.00000000000E+00 0. -1.
         11    1    3    3    0    0 -0.79616403802E+02 -0.46879028545E+02  0.12416364852E+03  0.15476765387E+03  0.00000000000E+00 0.  1.
</event>
<event>
 8    1  0.2184156E-005  0.1119278E+03  0.7561462E-02  0.1257041E+00
         -1   -1    0    0    0  501 -0.00000000000E+00  0.00000000000E+00  0.17864387815E+02  0.17864387815E+02  0.00000000000E+00 0.  1.
          1   -1    0    0  501    0  0.00000000000E+00 -0.00000000000E+00 -0.10757227493E+04  0.10757227493E+04  0.00000000000E+00 0. -1.
         23    2    1    2    0    0 -0.74729717077E+02 -0.36558757853E+02 -0.39170100466E+03  0.41070073218E+03  0.91237826429E+02 0.  0.
         23    2    1    2    0    0  0.74729717077E+02  0.36558757853E+02 -0.66615735680E+03  0.68288640491E+03  0.12508854704E+03 0.  0.
          5    1    4    4  502    0  0.20219502114E+02  0.40673517690E+02 -0.57285818893E+03  0.57467133244E+03  0.41800000000E+01 0.  1.
         -5    1    4    4    0  502  0.54510214963E+02 -0.41147598375E+01 -0.93299167874E+02  0.10821507247E+03  0.41800000000E+01 0.  1.
        -11    1    3    3    0    0 -0.29829222378E+02 -0.64129216164E+02 -0.23054442917E+03  0.24114948205E+03  0.00000000000E+00 0.  1.
         11    1    3    3    0    0 -0.44900494699E+02  0.27570458311E+02 -0.16115657549E+03  0.16955125013E+03  0.00000000000E+00 0. -1.
</event>
<event>
 8    1  0.3574624E-005  0.9043940E+02  0.7561462E-02  0.1301791E+00
         -2   -1    0    0    0  501 -0.00000000000E+00  0.00000000000E+00  0.78164266616E+02  0.78164266616E+02  0.00000000000E+00 0.  1.
          2   -1    0    0  501    0  0.00000000000E+00 -0.00000000000E+00 -0.16676932239E+03  0.16676932239E+03  0.00000000000E+00 0. -1.
         23    2    1    2    0    0 -0.22448796093E+02  0.18550692700E+02 -0.18624847279E+02  0.98670066952E+02  0.92416559828E+02 0.  0.
         23    2    1    2    0    0  0.22448796093E+02 -0.18550692700E+02 -0.69980208491E+02  0.14626352205E+03  0.12509081364E+03 0.  0.
          5    1    4    4  502    0 -0.29255190889E+02  0.39171061800E+02 -0.39093673411E+02  0.62737755596E+02  0.41800000000E+01 0.  1.
         -5    1    4    4    0  502  0.51703986982E+02 -0.57721754500E+02 -0.30886535080E+02  0.83525766453E+02  0.41800000000E+01 0.  1.
        -11    1    3    3    0    0 -0.35547646685E+02  0.59742322037E+01  0.29916329799E+02  0.46843499271E+02  0.00000000000E+00 0.  1.
         11    1    3    3    0    0  0.13098850593E+02  0.12576460497E+02 -0.48541177078E+02  0.51826567681E+02  0.00000000000E+00 0. -1.
</event>
<event>
 8    1  0.2184156E-005  0.1238025E+03  0.7561462E-02  0.1236953E+00
          2   -1    0    0  501    0  0.00000000000E+00  0.00000000000E+00  0.63659205570E+03  0.63659205570E+03  0.00000000000E+00 0. -1.
         -2   -1    0    0    0  501 -0.00000000000E+00 -0.00000000000E+00 -0.29898379028E+02  0.29898379028E+02  0.00000000000E+00 0.  1.
         23    2    1    2    0    0  0.84605229629E+02  0.55009071120E+01  0.22266054370E+03  0.25379404009E+03  0.87437933433E+02 0.  0.
         23    2    1    2    0    0 -0.84605229629E+02 -0.55009071120E+01  0.38403313297E+03  0.41269639463E+03  0.12509421277E+03 0.  0.
          5    1    4    4  502    0 -0.92705418480E+02 -0.49924007154E+02  0.25442958066E+03  0.27538806259E+03  0.41800000000E+01 0. -1.
         -5    1    4    4    0  502  0.81001888514E+01  0.44423100042E+02  0.12960355231E+03  0.13730833204E+03  0.41800000000E+01 0. -1.
        -11    1    3    3    0    0  0.57849245036E+01 -0.14457738409E+02 -0.12064988254E+01  0.15618808880E+02  0.00000000000E+00 0.  1.
         11    1    3    3    0    0  0.78820305125E+02  0.19958645521E+02  0.22386704253E+03  0.23817523121E+03  0.00000000000E+00 0. -1.
</event>
<event>
 8    1  0.2184156E-005  0.2263444E+03  0.7561462E-02  0.1129240E+00
          1   -1    0    0  501    0  0.00000000000E+00  0.00000000000E+00  0.67835924565E+03  0.67835924565E+03  0.00000000000E+00 0. -1.
         -1   -1    0    0    0  501 -0.00000000000E+00 -0.00000000000E+00 -0.96499052972E+02  0.96499052972E+02  0.00000000000E+00 0.  1.
         23    2    1    2    0    0 -0.47572587909E+02  0.21884327637E+03  0.18844308675E+03  0.30519919647E+03  0.86488275763E+02 0.  0.
         23    2    1    2    0    0  0.47572587909E+02 -0.21884327637E+03  0.39341710592E+03  0.46965910216E+03  0.12508845778E+03 0.  0.
          5    1    4    4  502    0  0.76780666006E+01 -0.21726269226E+02 -0.44436690441E+01  0.23836989655E+02  0.41800000000E+01 0. -1.
         -5    1    4    4    0  502  0.39894521309E+02 -0.19711700715E+03  0.39786077497E+03  0.44582211250E+03  0.41800000000E+01 0. -1.
        -11    1    3    3    0    0 -0.55239831389E+02  0.17219796751E+03  0.10450539555E+03  0.20886588205E+03  0.00000000000E+00 0.  1.
         11    1    3    3    0    0  0.76672434794E+01  0.46645308861E+02  0.83937691201E+02  0.96333314411E+02  0.00000000000E+00 0. -1.
</event>
<event>
 8    1  0.2184156E-005  0.1592236E+03  0.7561462E-02  0.1189576E+00
          3   -1    0    0  501    0  0.00000000000E+00  0.00000000000E+00  0.10459848538E+03  0.10459848538E+03  0.00000000000E+00 0. -1.
         -3   -1    0    0    0  501 -0.00000000000E+00 -0.00000000000E+00 -0.32118052549E+03  0.32118052549E+03  0.00000000000E+00 0.  1.
         23    2    1    2    0    0  0.43062191928E+02  0.14003615300E+03 -0.11745073708E+03  0.20913173636E+03  0.92070250323E+02 0.  0.
         23    2    1    2    0    0 -0.43062191928E+02 -0.14003615300E+03 -0.99131303030E+02  0.21664727451E+03  0.12507817473E+03 0.  0.
          5    1    4    4  502    0 -0.30658591381E+02 -0.27264595016E+02 -0.94405573215E+02  0.10302034761E+03  0.41800000000E+01 0.  1.
         -5    1    4    4    0  502 -0.12403600547E+02 -0.11277155798E+03 -0.47257298150E+01  0.11362692691E+03  0.41800000000E+01 0.  1.
        -11    1    3    3    0    0 -0.14317947627E+02  0.23441851275E+01 -0.36797186126E+02  0.39554162044E+02  0.00000000000E+00 0.  1.
         11    1    3    3    0    0  0.57380139555E+02  0.13769196787E+03 -0.80653550951E+02  0.16957757432E+03  0.00000000000E+00 0. -1.
</event>
<event>
 8    1  0.2184156E-005  0.1031081E+03  0.7561462E-02  0.1273893E+00
         -2   -1    0    0    0  501 -0.00000000000E+00  0.00000000000E+00  0.25929289259E+02  0.25929289259E+02  0.00000000000E+00 0.  1.
          2   -1    0    0  501    0  0.00000000000E+00 -0.00000000000E+00 -0.10770820272E+04  0.10770820272E+04  0.00000000000E+00 0. -1.
         23    2    1    2    0    0 -0.64068376766E+02 -0.26793284902E+01 -0.17060352878E+03  0.21131134430E+03  0.10693448694E+03 0.  0.
         23    2    1    2    0    0  0.64068376766E+02  0.26793284902E+01 -0.88054920921E+03  0.89169997220E+03  0.12509993959E+03 0.  0.
          5    1    4    4  502    0  0.88110569494E+02  0.37013393226E+02 -0.52283672406E+03  0.53151592278E+03  0.41800000000E+01 0. -1.
         -5    1    4    4    0  502 -0.24042192728E+02 -0.34334064736E+02 -0.35771248514E+03  0.36018404942E+03  0.41800000000E+01 0. -1.
        -11    1    3    3    0    0 -0.17803788122E+02 -0.11690562426E+02  0.10802668884E+02  0.23881829419E+02  0.00000000000E+00 0.  1.
         11    1    3    3    0    0 -0.46264588644E+02  0.90112339363E+01 -0.18140619766E+03  0.18742951488E+03  0.00000000000E+00 0. -1.
</event>
<event>
 8    1  0.2184156E-005  0.1333511E+03  0.7561462E-02  0.1222566E+00
          1   -1    0    0  501    0  0.00000000000E+00  0.00000000000E+00  0.48241363698E+02  0.48241363698E+02  0.00000000000E+00 0. -1.
         -1   -1    0    0    0  501 -0.00000000000E+00 -0.00000000000E+00 -0.40169887211E+03  0.40169887211E+03  0.00000000000E+00 0.  1.
         23    2    1    2    0    0 -0.23962274242E+02 -0.81770217966E+02 -0.13622626466E+03  0.18518076915E+03  0.92053044201E+02 0.  0.
         23    2    1    2    0    0  0.23962274242E+02  0.81770217966E+02 -0.21723124375E+03  0.26475946666E+03  0.12509037849E+03 0.  0.
          5    1    4    4  502    0 -0.46282094625E+02  0.49103029717E+02 -0.64428279510E+02  0.93389589414E+02  0.41800000000E+01 0. -1.
         -5    1    4    4    0  502  0.70244368867E+02  0.32667188249E+02 -0.15280296424E+03  0.17136987725E+03  0.41800000000E+01 0. -1.
        -11    1    3    3    0    0  0.21730481910E+02 -0.71435482635E+02 -0.10514775929E+03  0.12896237167E+03  0.00000000000E+00 0.  1.
         11    1    3    3    0    0 -0.45692756152E+02 -0.10334735331E+02 -0.31078505372E+02  0.56218397481E+02  0.00000000000E+00 0. -1.
</event>
<event>
 7    1  0.2184156E-005  0.1398781E+03  0.7561462E-02  0.1213493E+00
          2   -1    0    0  501    0  0.00000000000E+00  0.00000000000E+00  0.14341687524E+04  0.14341687524E+04  0.00000000000E+00 0. -1.
         -2   -1    0    0    0  501 -0.00000000000E+00 -0.00000000000E+00 -0.22007598742E+02  0.22007598742E+02  0.00000000000E+00 0.  1.
         23    2    1    2    0    0 -0.19829174013E+02 -0.68927699712E+02  0.49434352833E+03  0.50803643425E+03  0.92635147733E+02 0.  0.
          5    1    1    2  502    0  0.28229317088E+02 -0.47960523626E+02  0.68680804711E+03  0.68907174673E+03  0.41800000000E+01 0. -1.
         -5    1    1    2    0  502 -0.84001430744E+01  0.11688822334E+03  0.23100957818E+03  0.25906817012E+03  0.41800000000E+01 0.  1.
        -11    1    3    3    0    0 -0.17841725148E+02  0.14647918248E+02  0.41024408362E+02  0.47073248738E+02  0.00000000000E+00 0. -1.
         11    1    3    3    0    0 -0.19874488651E+01 -0.83575617961E+02  0.45331911997E+03  0.46096318551E+03  0.00000000000E+00 0.  1.
</event>
<event>
 8    1  0.2184156E-005  0.1448910E+03  0.7561462E-02  0.1206895E+00
         -2   -1    0    0    0  501 -0.00000000000E+00  0.00000000000E+00  0.12346374581E+03  0.12346374581E+03  0.00000000000E+00 0.  1.
          2   -1    0    0  501    0  0.00000000000E+00 -0.00000000000E+00 -0.18628518383E+03  0.18628518383E+03  0.00000000000E+00 0. -1.
         23    2    1    2    0    0  0.21926474743E+02 -0.10095122480E+03 -0.91105489204E+01  0.13794811347E+03  0.90965706852E+02 0.  0.
         23    2    1    2    0    0 -0.21926474743E+02  0.10095122480E+03 -0.53710889105E+02  0.17180081618E+03  0.12632790961E+03 0.  0.
          5    1    4    4  502    0  0.22919656668E+02  0.11393120206E+03 -0.36872548364E+02  0.12199461746E+03  0.41800000000E+01 0. -1.
         -5    1    4    4    0  502 -0.44846131411E+02 -0.12979977261E+02 -0.16838340740E+02  0.49806198722E+02  0.41800000000E+01 0. -1.
        -11    1    3    3    0    0 -0.71619999293E+01 -0.97000046094E+02  0.16906658537E+02  0.98722531816E+02  0.00000000000E+00 0.  1.
         11    1    3    3    0    0  0.29088474672E+02 -0.39511787098E+01 -0.26017207457E+02  0.39225581650E+02  0.00000000000E+00 0. -1.
</event>
<event>
 7    1  0.2184156E-005  0.1184173E+03  0.7561462E-02  0.1245731E+00
          2   -1    0    0  501    0  0.00000000000E+00  0.00000000000E+00  0.11000815007E+04  0.11000815007E+04  0.00000000000E+00 0. -1.
         -2   -1    0    0    0  501 -0.00000000000E+00 -0.00000000000E+00 -0.29202381150E+02  0.29202381150E+02  0.00000000000E+00 0.  1.
         23    2    1    2    0    0 -0.62092055096E+02 -0.27089911481E+02  0.13434113875E+03  0.17525601440E+03  0.89876818002E+02 0.  0.
          5    1    1    2  502    0  0.95299533643E+02  0.14165121293E+02  0.89027439893E+03  0.89548234464E+03  0.41800000000E+01 0. -1.
         -5    1    1    2    0  502 -0.33207478548E+02  0.12924790188E+02  0.46263581873E+02  0.58545522806E+02  0.41800000000E+01 0.  1.
        -11    1    3    3    0    0 -0.78731222588E+02 -0.79100281238E+01  0.12551318848E+03  0.14837363120E+03  0.00000000000E+00 0.  1.
         11    1    3    3    0    0  0.16639167492E+02 -0.19179883357E+02  0.88279502704E+01  0.26882383198E+02  0.00000000000E+00 0. -1.
</event>
<event>
 8    1  0.2184156E-005  0.9574990E+02  0.7561462E-02  0.1289496E+00
          4   -1    0    0  501    0  0.00000000000E+00  0.00000000000E+00  0.75978286324E+03  0.75978286324E+03  0.00000000000E+00 0. -1.
         -4   -1    0    0    0  501 -0.00000000000E+00 -0.00000000000E+00 -0.28898821075E+02  0.28898821075E+02  0.00000000000E+00 0.  1.
         23    2    1    2    0    0 -0.41300624842E+02 -0.11363903218E+02  0.98648365064E+02  0.14276816962E+03  0.93895529275E+02 0.  0.
         23    2    1    2    0    0  0.41300624842E+02  0.11363903218E+02  0.63223567710E+03  0.64591351469E+03  0.12508971644E+03 0.  0.
          5    1    4    4  502    0  0.61114878645E+00 -0.39450137475E+02  0.74773118134E+02  0.84647377072E+02  0.41800000000E+01 0.  1.
         -5    1    4    4    0  502  0.40689476056E+02  0.50814040694E+02  0.55746255897E+03  0.56126613762E+03  0.41800000000E+01 0.  1.
        -11    1    3    3    0    0 -0.30654443343E+02 -0.43229674673E+02  0.18956388508E+02  0.56283606266E+02  0.00000000000E+00 0.  1.
         11    1    3    3    0    0 -0.10646181499E+02  0.31865771455E+02  0.79691976556E+02  0.86484563353E+02  0.00000000000E+00 0. -1.
</event>
<event>
 8    1  0.2184156E-005  0.1276548E+03  0.7561462E-02  0.1230978E+00
         -1   -1    0    0    0  501 -0.00000000000E+00  0.00000000000E+00  0.15655121618E+03  0.15655121618E+03  0.00000000000E+00 0.  1.
          1   -1    0    0  501    0  0.00000000000E+00 -0.00000000000E+00 -0.11470854700E+03  0.11470854700E+03  0.00000000000E+00 0. -1.
         23    2    1    2    0    0 -0.51634852567E+02 -0.51186320339E+02  0.47642151547E+02  0.12645840140E+03  0.91846367865E+02 0.  0.
         23    2    1    2    0    0  0.51634852567E+02  0.51186320339E+02 -0.57994823664E+01  0.14480136178E+03  0.12509037928E+03 0.  0.
          5    1    4    4  502    0  0.62094290201E+02 -0.23213659521E+02  0.11947311327E+02  0.67489151068E+02  0.41800000000E+01 0. -1.
         -5    1    4    4    0  502 -0.10459437633E+02  0.74399979860E+02 -0.17746793693E+02  0.77312210712E+02  0.41800000000E+01 0. -1.
        -11    1    3    3    0    0 -0.45377884690E+02  0.14512797127E+02  0.35356136608E+02  0.59328156007E+02  0.00000000000E+00 0.  1.
         11    1    3    3    0    0 -0.62569678777E+01 -0.65699117466E+02  0.12286014939E+02  0.67130245388E+02  0.00000000000E+00 0. -1.
</event>
<event>
 8    1  0.2184156E-005  0.2496476E+03  0.7561462E-02  0.1113528E+00
         -2   -1    0    0    0  501 -0.00000000000E+00  0.00000000000E+00  0.15021078613E+03  0.15021078613E+03  0.00000000000E+00 0.  1.
          2   -1    0    0  501    0  0.00000000000E+00 -0.00000000000E+00 -0.45488665070E+03  0.45488665070E+03  0.00000000000E+00 0. -1.
         23    2    1    2    0    0 -0.21892577883E+03  0.88859128619E+02 -0.11837337504E+03  0.27927750721E+03  0.90328449226E+02 0.  0.
         23    2    1    2    0    0  0.21892577883E+03 -0.88859128619E+02 -0.18630248953E+03  0.32581992962E+03  0.12500227019E+03 0.  0.
          5    1    4    4  502    0  0.16736894009E+03 -0.28527657876E+02 -0.17782826112E+03  0.24589947585E+03  0.41800000000E+01 0.  1.
         -5    1    4    4    0  502  0.51556838744E+02 -0.60331470742E+02 -0.84742284180E+01  0.79920453768E+02  0.41800000000E+01 0.  1.
        -11    1    3    3    0    0 -0.49414725891E+02 -0.14444522853E+02 -0.78584183266E+01  0.52078921974E+02  0.00000000000E+00 0. -1.
         11    1    3    3    0    0 -0.16951105294E+03  0.10330365147E+03 -0.11051495671E+03  0.22719858524E+03  0.00000000000E+00 0.  1.
</event>
<event>
 7    1  0.2184156E-005  0.1290646E+03  0.7561462E-02  0.1228850E+00
          1   -1    0    0  501    0  0.00000000000E+00  0.00000000000E+00  0.24072461323E+03  0.24072461323E+03  0.00000000000E+00 0. -1.
         -1   -1    0    0    0  501 -0.00000000000E+00 -0.00000000000E+00 -0.95781895647E+02  0.95781895647E+02  0.00000000000E+00 0.  1.
         23    2    1    2    0    0  0.88490729638E+02 -0.28403923784E+02  0.30787978261E+02  0.13344299863E+03  0.90673822899E+02 0.  0.
          5    1    1    2  502    0  0.32210891576E+02  0.27191757903E+02  0.98776996743E+01  0.43496834193E+02  0.41800000000E+01 0. -1.
         -5    1    1    2    0  502 -0.12070162121E+03  0.12121658816E+01  0.10427703965E+03  0.15956667605E+03  0.41800000000E+01 0.  1.
        -11    1    3    3    0    0  0.13492341155E+02 -0.12350292689E+02 -0.30298578939E+02  0.35391762955E+02  0.00000000000E+00 0.  1.
         11    1    3    3    0    0  0.74998388483E+02 -0.16053631095E+02  0.61086557199E+02  0.98051235672E+02  0.00000000000E+00 0. -1.
</event>
<event>
 8    1  0.2184156E-005  0.1091749E+03  0.7561462E-02  0.1262105E+00
          3   -1    0    0  501    0  0.00000000000E+00  0.00000000000E+00  0.15085027559E+04  0.15085027559E+04  0.00000000000E+00 0. -1.
         -3   -1    0    0    0  501 -0.00000000000E+00 -0.00000000000E+00 -0.95230122855E+01  0.95230122855E+01  0.00000000000E+00 0.  1.
         23    2    1    2    0    0  0.40564787403E+02 -0.13421634424E+02  0.33980244025E+03  0.35133568013E+03  0.78392725983E+02 0.  0.
         23    2    1    2    0    0 -0.40564787403E+02  0.13421634424E+02  0.11591773034E+04  0.11666900881E+04  0.12509236059E+03 0.  0.
          5    1    4    4  502    0 -0.83169766401E+02  0.21443879111E+02  0.87184274478E+03  0.87607322412E+03  0.41800000000E+01 0.  1.
         -5    1    4    4    0  502  0.42604978997E+02 -0.80222446864E+01  0.28733455862E+03  0.29061686396E+03  0.41800000000E+01 0.  1.
        -11    1    3    3    0    0  0.62611591916E+02 -0.20114846606E+02  0.26669258945E+03  0.27468118931E+03  0.00000000000E+00 0.  1.
         11    1    3    3    0    0 -0.22046804512E+02  0.66932121819E+01  0.73109850804E+02  0.76654490822E+02  0.00000000000E+00 0. -1.
</event>
<event>
 8    1  0.2184156E-005  0.9808216E+02  0.7561462E-02  0.1284381E+00
          2   -1    0    0  501    0  0.00000000000E+00  0.00000000000E+00  0.51812011798E+03  0.51812011798E+03  0.00000000000E+00 0. -1.
         -2   -1    0    0    0  501 -0.00000000000E+00 -0.00000000000E+00 -0.33346516474E+02  0.33346516474E+02  0.00000000000E+00 0.  1.
         23    2    1    2    0    0  0.66824452234E+02 -0.23726123157E+02  0.16784301310E+03  0.20344413352E+03  0.90497525264E+02 0.  0.
         23    2    1    2    0    0 -0.66824452234E+02  0.23726123157E+02  0.31693058840E+03  0.34802250094E+03  0.12508487901E+03 0.  0.
          5    1    4    4  502    0 -0.52940613047E+02 -0.12854712476E+02  0.38537622036E+02  0.66862342576E+02  0.41800000000E+01 0. -1.
         -5    1    4    4    0  502 -0.13883839187E+02  0.36580835633E+02  0.27839296637E+03  0.28116015836E+03  0.41800000000E+01 0. -1.
        -11    1    3    3    0    0 -0.15787737098E+02 -0.92704329295E+01  0.30818789325E+01  0.18565870492E+02  0.00000000000E+00 0.  1.
         11    1    3    3    0    0  0.82612189332E+02 -0.14455690227E+02  0.16476113417E+03  0.18487826303E+03  0.00000000000E+00 0. -1.
</event>
<event>
 8    1  0.2184156E-005  0.6946009E+02  0.7561462E-02  0.1361939E+00
         -2   -1    0    0    0  501 -0.00000000000E+00  0.00000000000E+00  0.26176022746E+03  0.26176022746E+03  0.00000000000E+00 0.  1.
          2   -1    0    0  501    0  0.00000000000E+00 -0.00000000000E+00 -0.79497001788E+02  0.79497001788E+02  0.00000000000E+00 0. -1.
         23    2    1    2    0    0  0.30386433617E+02 -0.53366326218E+02  0.16758511239E+03  0.20112349363E+03  0.92707009833E+02 0.  0.
         23    2    1    2    0    0 -0.30386433617E+02  0.53366326218E+02  0.14678113288E+02  0.14013373563E+03  0.12510282462E+03 0.  0.
          5    1    4    4  502    0 -0.29938674432E+02  0.52981626249E+02 -0.47810395921E+02  0.77502795464E+02  0.41800000000E+01 0. -1.
         -5    1    4    4    0  502 -0.44775918530E+00  0.38469996966E+00  0.62488509208E+02  0.62630940161E+02  0.41800000000E+01 0. -1.
        -11    1    3    3    0    0 -0.76142568760E+01 -0.25402542374E+02 -0.51865102560E+00  0.26524235441E+02  0.00000000000E+00 0. -1.
         11    1    3    3    0    0  0.38000690493E+02 -0.27963783844E+02  0.16810376341E+03  0.17459925818E+03  0.00000000000E+00 0.  1.
</event>
<event>
 8    1  0.2184156E-005  0.1051401E+03  0.7561462E-02  0.1269844E+00
         -2   -1    0    0    0  501 -0.00000000000E+00  0.00000000000E+00  0.22158469002E+02  0.22158469002E+02  0.00000000000E+00 0.  1.
          2   -1    0    0  501    0  0.00000000000E+00 -0.00000000000E+00 -0.56166923613E+03  0.56166923613E+03  0.00000000000E+00 0. -1.
         23    2    1    2    0    0  0.14903604605E+02 -0.11120436847E+02 -0.18513574780E+03  0.20756297289E+03  0.91985656805E+02 0.  0.
         23    2    1    2    0    0 -0.14903604605E+02  0.11120436847E+02 -0.35437501934E+03  0.37626473224E+03  0.12509081843E+03 0.  0.
          5    1    4    4  502    0  0.30091479893E+02  0.50182992038E+02 -0.24191390844E+03  0.24892497132E+03  0.41800000000E+01 0. -1.
         -5    1    4    4    0  502 -0.44995084498E+02 -0.39062555191E+02 -0.11246111090E+03  0.12733976092E+03  0.41800000000E+01 0. -1.
        -11    1    3    3    0    0  0.52563147959E+02 -0.13110474759E+02 -0.12924237492E+03  0.14013693498E+03  0.00000000000E+00 0.  1.
         11    1    3    3    0    0 -0.37659543354E+02  0.19900379122E+01 -0.55893372881E+02  0.67426037912E+02  0.00000000000E+00 0. -1.
</event>
<event>
 8    1  0.2184156E-005  0.8886041E+02  0.7561462E-02  0.1305635E+00
         -2   -1    0    0    0  501 -0.00000000000E+00  0.00000000000E+00  0.40289645839E+02  0.40289645839E+02  0.00000000000E+00 0.  1.
          2   -1    0    0  501    0  0.00000000000E+00 -0.00000000000E+00 -0.35656589933E+03  0.35656589933E+03  0.00000000000E+00 0. -1.
         23    2    1    2    0    0 -0.57810362221E+02  0.26667703888E+01 -0.11922562676E+03  0.16027343959E+03  0.90131435789E+02 0.  0.
         23    2    1    2    0    0  0.57810362221E+02 -0.26667703888E+01 -0.19705062674E+03  0.23658210559E+03  0.11744357599E+03 0.  0.
          5    1    4    4  502    0  0.40547680283E+02 -0.21060257661E+02 -0.20479026270E+03  0.20986703631E+03  0.41800000000E+01 0. -1.
         -5    1    4    4    0  502  0.17262681938E+02  0.18393487272E+02  0.77396359664E+01  0.26715069279E+02  0.41800000000E+01 0.  1.
        -11    1    3    3    0    0  0.11439577780E+02  0.29779763887E+02 -0.45366776492E+02  0.55460280257E+02  0.00000000000E+00 0.  1.
         11    1    3    3    0    0 -0.69249940001E+02 -0.27112993498E+02 -0.73858850264E+02  0.10481315933E+03  0.00000000000E+00 0. -1.
</event>
<event>
 8    1  0.2184156E-005  0.1821568E+03  0.7561462E-02  0.1165732E+00
         -2   -1    0    0    0  501 -0.00000000000E+00  0.00000000000E+00  0.11723863789E+04  0.11723863789E+04  0.00000000000E+00 0.  1.
          2   -1    0    0  501    0  0.00000000000E+00 -0.00000000000E+00 -0.43049515887E+02  0.43049515887E+02  0.00000000000E+00 0. -1.
         23    2    1    2    0    0  0.16313672366E+03  0.66123976508E+02  0.77518735206E+03  0.80063948155E+03  0.95510092417E+02 0.  0.
         23    2    1    2    0    0 -0.16313672366E+03 -0.66123976508E+02  0.35414951095E+03  0.41479641323E+03  0.12509283532E+03 0.  0.
          5    1    4    4  502    0 -0.91639213789E+02 -0.72697652538E+01  0.69171916996E+02  0.11512089946E+03  0.41800000000E+01 0. -1.
         -5    1    4    4    0  502 -0.71497509868E+02 -0.58854211255E+02  0.28497759396E+03  0.29967551378E+03  0.41800000000E+01 0. -1.
        -11    1    3    3    0    0  0.50133833010E+02  0.31639776850E+01  0.87526017483E+02  0.10091687522E+03  0.00000000000E+00 0. -1.
         11    1    3    3    0    0  0.11300289065E+03  0.62959998823E+02  0.68766133457E+03  0.69972260633E+03  0.00000000000E+00 0.  1.
</event>
<event>
 8    1  0.2184156E-005  0.9312463E+02  0.7561462E-02  0.1295457E+00
          3   -1    0    0  501    0  0.00000000000E+00  0.00000000000E+00  0.93064649572E+02  0.93064649572E+02  0.00000000000E+00 0. -1.
         -3   -1    0    0    0  501 -0.00000000000E+00 -0.00000000000E+00 -0.13445660770E+03  0.13445660770E+03  0.00000000000E+00 0.  1.
         23    2    1    2    0    0  0.90137323829E+00  0.95067310684E+01 -0.42272938892E+02  0.10206264734E+03  0.92404503191E+02 0.  0.
         23    2    1    2    0    0 -0.90137323829E+00 -0.95067310684E+01  0.88098076909E+00  0.12545860993E+03  0.12509155155E+03 0.  0.
          5    1    4    4  502    0  0.10220817383E+02 -0.62874362792E+02 -0.20055183289E+02  0.66912879038E+02  0.41800000000E+01 0.  1.
         -5    1    4    4    0  502 -0.11122190621E+02  0.53367631723E+02  0.20936164059E+02  0.58545730890E+02  0.41800000000E+01 0.  1.
        -11    1    3    3    0    0 -0.98383893542E+01 -0.27498800210E+02  0.15156361974E+02  0.32904304071E+02  0.00000000000E+00 0. -1.
         11    1    3    3    0    0  0.10739762592E+02  0.37005531279E+02 -0.57429300866E+02  0.69158343269E+02  0.00000000000E+00 0.  1.
</event>
<event>
 8    1  0.2184156E-005  0.1137615E+03  0.7561462E-02  0.1253759E+00
          2   -1    0    0  501    0  0.00000000000E+00  0.00000000000E+00  0.63542498041E+03  0.63542498041E+03  0.00000000000E+00 0. -1.
         -2   -1    0    0    0  501 -0.00000000000E+00 -0.00000000000E+00 -0.24143302636E+02  0.24143302636E+02  0.00000000000E+00 0.  1.
         23    2    1    2    0    0  0.34601937883E+02  0.38733495377E+02  0.18143739719E+03  0.20888153364E+03  0.89523115605E+02 0.  0.
         23    2    1    2    0    0 -0.34601937883E+02 -0.38733495377E+02  0.42984428059E+03  0.45068674941E+03  0.12511939406E+03 0.  0.
          5    1    4    4  502    0 -0.63958817464E+01  0.41016168583E+02  0.74483378761E+02  0.85372592208E+02  0.41800000000E+01 0. -1.
         -5    1    4    4    0  502 -0.28206056136E+02 -0.79749663960E+02  0.35536090183E+03  0.36531415720E+03  0.41800000000E+01 0. -1.
        -11    1    3    3    0    0  0.10046433923E+02  0.64637947237E+02  0.13754831303E+03  0.15231064794E+03  0.00000000000E+00 0.  1.
         11    1    3    3    0    0  0.24555503959E+02 -0.25904451860E+02  0.43889084158E+02  0.56570885702E+02  0.00000000000E+00 0. -1.
</event>
<event>
 8    1  0.2184156E-005  0.6303368E+02  0.7561462E-02  0.1385524E+00
          1   -1    0    0  501    0  0.00000000000E+00  0.00000000000E+00  0.16785014764E+03  0.16785014764E+03  0.00000000000E+00 0. -1.
         -1   -1    0    0    0  501 -0.00000000000E+00 -0.00000000000E+00 -0.81255727593E+02  0.81255727593E+02  0.00000000000E+00 0.  1.
         23    2    1    2    0    0 -0.23577048624E+02 -0.29997953165E+02  0.16025288485E+02  0.10050080287E+03  0.91585190347E+02 0.  0.
         23    2    1    2    0    0  0.23577048624E+02  0.29997953165E+02  0.70569131562E+02  0.14860507236E+03  0.12509081016E+03 0.  0.
          5    1    4    4  502    0 -0.17714130041E+01 -0.16793627156E+01  0.98853326752E+02  0.98971767556E+02  0.41800000000E+01 0. -1.
         -5    1    4    4    0  502  0.25348461628E+02  0.31677315881E+02 -0.28284195191E+02  0.49633304805E+02  0.41800000000E+01 0. -1.
        -11    1    3    3    0    0  0.16555737360E+02  0.13423326133E+02 -0.21657540532E+02  0.30386299312E+02  0.00000000000E+00 0.  1.
         11    1    3    3    0    0 -0.40132785984E+02 -0.43421279298E+02  0.37682829017E+02  0.70114503560E+02  0.00000000000E+00 0. -1.
</event>
<event>
 8    1  0.2184156E-005  0.1237934E+03  0.7561462E-02  0.1236967E+00
          1   -1    0    0  501    0  0.00000000000E+00  0.00000000000E+00  0.11665202280E+03  0.11665202280E+03  0.00000000000E+00 0. -1.
         -1   -1    0    0    0  501 -0.00000000000E+00 -0.00000000000E+00 -0.14393175902E+03  0.14393175902E+03  0.00000000000E+00 0.  1.
         23    2    1    2    0    0 -0.61045192137E+02 -0.26196840603E+02 -0.24805219679E+02  0.11894211240E+03  0.95494173847E+02 0.  0.
         23    2    1    2    0    0  0.61045192137E+02  0.26196840603E+02 -0.24745165431E+01  0.14164166942E+03  0.12507377560E+03 0.  0.
          5    1    4    4  502    0 -0.26199376043E+01  0.61224479883E+02 -0.23681693612E+02  0.65830054096E+02  0.41800000000E+01 0. -1.
         -5    1    4    4    0  502  0.63665129742E+02 -0.35027639280E+02  0.21207177069E+02  0.75811615322E+02  0.41800000000E+01 0. -1.
        -11    1    3    3    0    0 -0.80172631014E+02 -0.40187296645E+02 -0.30215805390E+02  0.94634372565E+02  0.00000000000E+00 0.  1.
         11    1    3    3    0    0  0.19127438877E+02  0.13990456042E+02  0.54105857115E+01  0.24307739837E+02  0.00000000000E+00 0. -1.
</event>
<event>
 8    1  0.2184156E-005  0.1721060E+03  0.7561462E-02  0.1175669E+00
          2   -1    0    0  501    0  0.00000000000E+00  0.00000000000E+00  0.15997833294E+02  0.15997833294E+02  0.00000000000E+00 0. -1.
         -2   -1    0    0    0  501 -0.00000000000E+00 -0.00000000000E+00 -0.19037607944E+04  0.19037607944E+04  0.00000000000E+00 0.  1.
         23    2    1    2    0    0 -0.11670136168E+03 -0.69396700480E+02 -0.89229367522E+03  0.90731474570E+03  0.92719658494E+02 0.  0.
         23    2    1    2    0    0  0.11670136168E+03  0.69396700480E+02 -0.99546928587E+03  0.10124438820E+04  0.12509358573E+03 0.  0.
          5    1    4    4  502    0  0.96482390364E+02 -0.14805057994E+02 -0.55202893360E+03  0.56060811386E+03  0.41800000000E+01 0. -1.
         -5    1    4    4    0  502  0.20218971317E+02  0.84201758475E+02 -0.44344035227E+03  0.45183576812E+03  0.41800000000E+01 0. -1.
        -11    1    3    3    0    0 -0.12833235751E+03 -0.72995201673E+02 -0.86383890318E+03  0.87636473234E+03  0.00000000000E+00 0.  1.
         11    1    3    3    0    0  0.11630995829E+02  0.35985011925E+01 -0.28454772043E+02  0.30950013358E+02  0.00000000000E+00 0. -1.
</event>
<event>
 8    1  0.2184156E-005  0.8571058E+02  0.7561462E-02  0.1313585E+00
         -3   -1    0    0    0  501 -0.00000000000E+00  0.00000000000E+00  0.75724597402E+02  0.75724597402E+02  0.00000000000E+00 0.  1.
          3   -1    0    0  501    0  0.00000000000E+00 -0.00000000000E+00 -0.18360227765E+03  0.18360227765E+03  0.00000000000E+00 0. -1.
         23    2    1    2    0    0 -0.25567528613E+02 -0.48781752278E+01 -0.48822473120E+02  0.11855066194E+03  0.10484813042E+03 0.  0.
         23    2    1    2    0    0  0.25567528613E+02  0.48781752278E+01 -0.59055207123E+02  0.14077621311E+03  0.12511166842E+03 0.  0.
          5    1    4    4  502    0  0.67323113612E+02  0.16439379212E+02 -0.25823868633E+01  0.69475146183E+02  0.41800000000E+01 0.  1.
         -5    1    4    4    0  502 -0.41755584999E+02 -0.11561203984E+02 -0.56472820260E+02  0.71301066922E+02  0.41800000000E+01 0.  1.
        -11    1    3    3    0    0  0.16146754489E+02  0.17020305980E+01 -0.69612196778E+02  0.71480574486E+02  0.00000000000E+00 0. -1.
         11    1    3    3    0    0 -0.41714283102E+02 -0.65802058259E+01  0.20789723658E+02  0.47070087456E+02  0.00000000000E+00 0.  1.
</event>
<event>
 8    1  0.2184156E-005  0.1461940E+03  0.7561462E-02  0.1205229E+00
          1   -1    0    0  501    0  0.00000000000E+00  0.00000000000E+00  0.62123493467E+03  0.62123493467E+03  0.00000000000E+00 0. -1.
         -1   -1    0    0    0  501 -0.00000000000E+00 -0.00000000000E+00 -0.57072766605E+02  0.57072766605E+02  0.00000000000E+00 0.  1.
         23    2    1    2    0    0  0.11213784115E+03 -0.37046318507E+02  0.91622152052E+02  0.17542711657E+03  0.91829893556E+02 0.  0.
         23    2    1    2    0    0 -0.11213784115E+03  0.37046318507E+02  0.47254001602E+03  0.50288058470E+03  0.12508993006E+03 0.  0.
          5    1    4    4  502    0  0.27013742933E+02  0.59617501678E+01  0.10403898997E+03  0.10773517813E+03  0.41800000000E+01 0. -1.
         -5    1    4    4    0  502 -0.13915158408E+03  0.31084568339E+02  0.36850102605E+03  0.39514540658E+03  0.41800000000E+01 0. -1.
        -11    1    3    3    0    0  0.10426923802E+03 -0.24745302974E+02  0.28852592531E+02  0.11098142237E+03  0.00000000000E+00 0.  1.
         11    1    3    3    0    0  0.78686031278E+01 -0.12301015533E+02  0.62769559521E+02  0.64445694199E+02  0.00000000000E+00 0. -1.
</event>
<event>
 8    1  0.2184156E-005  0.1054185E+03  0.7561462E-02  0.1269297E+00
          1   -1    0    0  501    0  0.00000000000E+00  0.00000000000E+00  0.61426317279E+03  0.61426317279E+03  0.00000000000E+00 0. -1.
         -1   -1    0    0    0  501 -0.00000000000E+00 -0.00000000000E+00 -0.49623926713E+02  0.49623926713E+02  0.00000000000E+00 0.  1.
         23    2    1    2    0    0 -0.56736261855E+01 -0.93346642573E+01  0.61036822808E+01  0.91410794739E+02  0.90550275905E+02 0.  0.
         23    2    1    2    0    0  0.56736261855E+01  0.93346642573E+01  0.55853556380E+03  0.57247630477E+03  0.12509123670E+03 0.  0.
          5    1    4    4  502    0  0.24916036166E+02  0.63269707527E+02  0.30851266570E+03  0.31594525166E+03  0.41800000000E+01 0. -1.
         -5    1    4    4    0  502 -0.19242409980E+02 -0.53935043269E+02  0.25002289810E+03  0.25653105311E+03  0.41800000000E+01 0. -1.
        -11    1    3    3    0    0 -0.45220535921E+02 -0.42463033599E+01  0.19386191151E+02  0.49383725746E+02  0.00000000000E+00 0.  1.
         11    1    3    3    0    0  0.39546909735E+02 -0.50883608974E+01 -0.13282508871E+02  0.42027068993E+02  0.00000000000E+00 0. -1.
</event>
<event>
 8    1  0.2184156E-005  0.1403946E+03  0.7561462E-02  0.1212799E+00
         -1   -1    0    0    0  501 -0.00000000000E+00  0.00000000000E+00  0.45337369310E+03  0.45337369310E+03  0.00000000000E+00 0.  1.
          1   -1    0    0  501    0  0.00000000000E+00 -0.00000000000E+00 -0.49622890915E+02  0.49622890915E+02  0.00000000000E+00 0. -1.
         23    2    1    2    0    0 -0.92285582918E+02  0.74801796026E+01  0.26257385266E+03  0.29287258227E+03  0.90866602458E+02 0.  0.
         23    2    1    2    0    0  0.92285582918E+02 -0.74801796026E+01  0.14117694952E+03  0.21012400174E+03  0.12509429696E+03 0.  0.
          5    1    4    4  502    0  0.10147579874E+03  0.35350839812E+02  0.12048647993E+03  0.16149762801E+03  0.41800000000E+01 0.  1.
         -5    1    4    4    0  502 -0.91902158227E+01 -0.42831019415E+02  0.20690469593E+02  0.48626373739E+02  0.41800000000E+01 0.  1.
        -11    1    3    3    0    0 -0.10668611488E+03 -0.93508045471E+01  0.22646433785E+03  0.25051040092E+03  0.00000000000E+00 0.  1.
         11    1    3    3    0    0  0.14400531964E+02  0.16830984150E+02  0.36109514816E+02  0.42362181348E+02  0.00000000000E+00 0. -1.
</event>
<event>
 8    1  0.2184156E-005  0.1223551E+03  0.7561462E-02  0.1239262E+00
          1   -1    0    0  501    0  0.00000000000E+00  0.00000000000E+00  0.11216695386E+03  0.11216695386E+03  0.00000000000E+00 0. -1.
         -1   -1    0    0    0  501 -0.00000000000E+00 -0.00000000000E+00 -0.15733134128E+03  0.15733134128E+03  0.00000000000E+00 0.  1.
         23    2    1    2    0    0  0.68975287364E+02  0.26141511934E+01 -0.54380209117E+02  0.12633277730E+03  0.90765298561E+02 0.  0.
         23    2    1    2    0    0 -0.68975287364E+02 -0.26141511934E+01  0.92158217051E+01  0.14316551784E+03  0.12508800932E+03 0.  0.
          5    1    4    4  502    0 -0.63837767568E+02 -0.51381683662E+02 -0.21916380652E+02  0.84930195602E+02  0.41800000000E+01 0. -1.
         -5    1    4    4    0  502 -0.51375197957E+01  0.48767532469E+02  0.31132202357E+02  0.58235322240E+02  0.41800000000E+01 0. -1.
        -11    1    3    3    0    0  0.80290887599E+02  0.28493041648E+02 -0.46251783227E+02  0.96941773789E+02  0.00000000000E+00 0.  1.
         11    1    3    3    0    0 -0.11315600235E+02 -0.25878890454E+02 -0.81284258898E+01  0.29391003509E+02  0.00000000000E+00 0. -1.
</event>
<event>
 8    1  0.2184156E-005  0.1448893E+03  0.7561462E-02  0.1206897E+00
          1   -1    0    0  501    0  0.00000000000E+00  0.00000000000E+00  0.39804663004E+02  0.39804663004E+02  0.00000000000E+00 0. -1.
         -1   -1    0    0    0  501 -0.00000000000E+00 -0.00000000000E+00 -0.58390149482E+03  0.58390149482E+03  0.00000000000E+00 0.  1.
         23    2    1    2    0    0 -0.10297862105E+03 -0.15323954419E+02 -0.29555470405E+03  0.32661925791E+03  0.92131083677E+02 0.  0.
         23    2    1    2    0    0  0.10297862105E+03  0.15323954419E+02 -0.24854212777E+03  0.29708689992E+03  0.12509203353E+03 0.  0.
          5    1    4    4  502    0  0.52373122879E+02 -0.50473846562E+02 -0.15911119377E+03  0.17499827876E+03  0.41800000000E+01 0. -1.
         -5    1    4    4    0  502  0.50605498172E+02  0.65797800981E+02 -0.89430934000E+02  0.12208862115E+03  0.41800000000E+01 0. -1.
        -11    1    3    3    0    0 -0.27867233534E+02 -0.45097058872E+02 -0.75939226117E+02  0.92612598965E+02  0.00000000000E+00 0. -1.
         11    1    3    3    0    0 -0.75111387517E+02  0.29773104453E+02 -0.21961547793E+03  0.23400665894E+03  0.00000000000E+00 0.  1.
</event>
<event>
 8    1  0.2184156E-005  0.9416513E+02  0.7561462E-02  0.1293068E+00
          2   -1    0    0  501    0  0.00000000000E+00  0.00000000000E+00  0.16798719363E+04  0.16798719363E+04  0.00000000000E+00 0. -1.
         -2   -1    0    0    0  501 -0.00000000000E+00 -0.00000000000E+00 -0.18103505264E+02  0.18103505264E+02  0.00000000000E+00 0.  1.
         23    2    1    2    0    0  0.13976631611E+02  0.56062301814E+02  0.16456504385E+03  0.19474345222E+03  0.86631579742E+02 0.  0.
         23    2    1    2    0    0 -0.13976631611E+02 -0.56062301814E+02  0.14972033872E+04  0.15032319894E+04  0.12145000319E+03 0.  0.
          5    1    4    4  502    0 -0.45684789400E+02 -0.42508742451E+02  0.13683550742E+04  0.13697836233E+04  0.41800000000E+01 0. -1.
         -5    1    4    4    0  502  0.31708157789E+02 -0.13553559363E+02  0.12884831304E+03  0.13344836610E+03  0.41800000000E+01 0.  1.
        -11    1    3    3    0    0  0.40765386215E+02  0.18133294350E+02  0.33786634971E+02  0.55965791158E+02  0.00000000000E+00 0.  1.
         11    1    3    3    0    0 -0.26788754604E+02  0.37929007464E+02  0.13077840888E+03  0.13877766106E+03  0.00000000000E+00 0. -1.
</event>
<event>
 8    1  0.2184156E-005  0.1889234E+03  0.7561462E-02  0.1159436E+00
         -1   -1    0    0    0  501 -0.00000000000E+00  0.00000000000E+00  0.30069688392E+02  0.30069688392E+02  0.00000000000E+00 0.  1.
          1   -1    0    0  501    0  0.00000000000E+00 -0.00000000000E+00 -0.15579553137E+04  0.15579553137E+04  0.00000000000E+00 0. -1.
         23    2    1    2    0    0  0.13477796598E+03  0.10499048426E+03 -0.48298221037E+03  0.52188356781E+03  0.99511511498E+02 0.  0.
         23    2    1    2    0    0 -0.13477796598E+03 -0.10499048426E+03 -0.10449034150E+04  0.10661414343E+04  0.12508520871E+03 0.  0.
          5    1    4    4  502    0  0.11745531735E+01 -0.60233363629E+02 -0.46091312942E+03  0.46485247439E+03  0.41800000000E+01 0.  1.
         -5    1    4    4    0  502 -0.13595251916E+03 -0.44757120633E+02 -0.58399028555E+03  0.60128895992E+03  0.41800000000E+01 0.  1.
        -11    1    3    3    0    0  0.97928266301E+02  0.94170795771E+02 -0.45365279352E+03  0.47355986019E+03  0.00000000000E+00 0. -1.
         11    1    3    3    0    0  0.36849699681E+02  0.10819688492E+02 -0.29329416852E+02  0.48323707624E+02  0.00000000000E+00 0.  1.
</event>
<event>
 8    1  0.2184156E-005  0.1484718E+03  0.7561462E-02  0.1202363E+00
          2   -1    0    0  501    0  0.00000000000E+00  0.00000000000E+00  0.21948873704E+03  0.21948873704E+03  0.00000000000E+00 0. -1.
         -2   -1    0    0    0  501 -0.00000000000E+00 -0.00000000000E+00 -0.15707475886E+03  0.15707475886E+03  0.00000000000E+00 0.  1.
         23    2    1    2    0    0 -0.87000844646E+02  0.11525138064E+03 -0.14487741378E+02  0.17061217757E+03  0.89702802494E+02 0.  0.
         23    2    1    2    0    0  0.87000844646E+02 -0.11525138064E+03  0.76901719554E+02  0.20595131833E+03  0.12510013325E+03 0.  0.
          5    1    4    4  502    0  0.36396441671E+01 -0.35562410883E+02  0.82921378950E+02  0.90395572704E+02  0.41800000000E+01 0. -1.
         -5    1    4    4    0  502  0.83361200479E+02 -0.79688969762E+02 -0.60196593956E+01  0.11555574562E+03  0.41800000000E+01 0. -1.
        -11    1    3    3    0    0 -0.60205532579E+02  0.92678562948E+02  0.29490460117E+02  0.11438404356E+03  0.00000000000E+00 0. -1.
         11    1    3    3    0    0 -0.26795312067E+02  0.22572817697E+02 -0.43978201495E+02  0.56228134010E+02  0.00000000000E+00 0.  1.
</event>
<event>
 8    1  0.2184156E-005  0.8078560E+02  0.7561462E-02  0.1326837E+00
         -1   -1    0    0    0  501 -0.00000000000E+00  0.00000000000E+00  0.66009802972E+02  0.66009802972E+02  0.00000000000E+00 0.  1.
          1   -1    0    0  501    0  0.00000000000E+00 -0.00000000000E+00 -0.18614293422E+03  0.18614293422E+03  0.00000000000E+00 0. -1.
         23    2    1    2    0    0 -0.29320624184E+02 -0.39137802472E+01 -0.53723101613E+02  0.10747158950E+03  0.88255052122E+02 0.  0.
         23    2    1    2    0    0  0.29320624184E+02  0.39137802472E+01 -0.66410029636E+02  0.14468114769E+03  0.12508927125E+03 0.  0.
          5    1    4    4  502    0  0.56075218339E+02  0.44523451683E+02 -0.14026842942E+02  0.73082094828E+02  0.41800000000E+01 0.  1.
         -5    1    4    4    0  502 -0.26754594155E+02 -0.40609671435E+02 -0.52383186694E+02  0.71599052862E+02  0.41800000000E+01 0.  1.
        -11    1    3    3    0    0 -0.16954053053E+02 -0.16311528807E+02 -0.75757409686E+02  0.79326483656E+02  0.00000000000E+00 0. -1.
         11    1    3    3    0    0 -0.12366571131E+02  0.12397748559E+02  0.22034308073E+02  0.28145105847E+02  0.00000000000E+00 0.  1.
</event>
<event>
 8    1  0.2184156E-005  0.1001075E+03  0.7561462E-02  0.1280070E+00
         -3   -1    0    0    0  501 -0.00000000000E+00  0.00000000000E+00  0.23655522896E+03  0.23655522896E+03  0.00000000000E+00 0.  1.
          3   -1    0    0  501    0  0.00000000000E+00 -0.00000000000E+00 -0.67967378116E+02  0.67967378116E+02  0.00000000000E+00 0. -1.
         23    2    1    2    0    0  0.98999859228E+00 -0.12190188182E+02  0.15411120869E+03  0.17800447867E+03  0.88236891370E+02 0.  0.
         23    2    1    2    0    0 -0.98999859228E+00  0.12190188182E+02  0.14476642160E+02  0.12651812841E+03  0.12509069855E+03 0.  0.
          5    1    4    4  502    0  0.45889252755E+02 -0.33968765425E+02  0.19317558947E+02  0.60418052158E+02  0.41800000000E+01 0. -1.
         -5    1    4    4    0  502 -0.46879251347E+02  0.46158953607E+02 -0.48409167870E+01  0.66100076251E+02  0.41800000000E+01 0. -1.
        -11    1    3    3    0    0  0.31307385858E+02  0.16427124637E+02  0.11687681329E+03  0.12210729838E+03  0.00000000000E+00 0.  1.
         11    1    3    3    0    0 -0.30317387265E+02 -0.28617312819E+02  0.37234395393E+02  0.55897180285E+02  0.00000000000E+00 0. -1.
</event>
<event>
 8    1  0.2184156E-005  0.1163854E+03  0.7561462E-02  0.1249182E+00
          3   -1    0    0  501    0  0.00000000000E+00  0.00000000000E+00  0.93574744431E+02  0.93574744431E+02  0.00000000000E+00 0. -1.
         -3   -1    0    0    0  501 -0.00000000000E+00 -0.00000000000E+00 -0.19281694204E+03  0.19281694204E+03  0.00000000000E+00 0.  1.
         23    2    1    2    0    0 -0.43564035675E+02 -0.55951138324E+02 -0.81590952014E+02  0.14152052073E+03  0.91337939841E+02 0.  0.
         23    2    1    2    0    0  0.43564035675E+02  0.55951138324E+02 -0.17651245598E+02  0.14487116574E+03  0.12509089938E+03 0.  0.
          5    1    4    4  502    0  0.57488719119E+02  0.76224301217E+02  0.21963183097E+02  0.98055855173E+02  0.41800000000E+01 0.  1.
         -5    1    4    4    0  502 -0.13924683443E+02 -0.20273162893E+02 -0.39614428695E+02  0.46815310567E+02  0.41800000000E+01 0.  1.
        -11    1    3    3    0    0  0.26876120859E+02 -0.14911861254E+02 -0.38644416492E+02  0.49376921780E+02  0.00000000000E+00 0.  1.
         11    1    3    3    0    0 -0.70440156534E+02 -0.41039277069E+02 -0.42946535522E+02  0.92143598955E+02  0.00000000000E+00 0. -1.
</event>
<event>
 8    1  0.2184156E-005  0.1666778E+03  0.7561462E-02  0.1181357E+00
         -1   -1    0    0    0  501 -0.00000000000E+00  0.00000000000E+00  0.92347812484E+02  0.92347812484E+02  0.00000000000E+00 0.  1.
          1   -1    0    0  501    0  0.00000000000E+00 -0.00000000000E+00 -0.31962692113E+03  0.31962692113E+03  0.00000000000E+00 0. -1.
         23    2    1    2    0    0  0.11713150402E+03 -0.50464034423E+02 -0.58568254005E+02  0.16625947504E+03  0.89137896880E+02 0.  0.
         23    2    1    2    0    0 -0.11713150402E+03  0.50464034423E+02 -0.16871085464E+03  0.24571525857E+03  0.12508488244E+03 0.  0.
          5    1    4    4  502    0  0.16642191648E+02  0.40456108815E+02 -0.49643082417E+02  0.66299074769E+02  0.41800000000E+01 0. -1.
         -5    1    4    4    0  502 -0.13377369567E+03  0.10007925608E+02 -0.11906777222E+03  0.17941618380E+03  0.41800000000E+01 0. -1.
        -11    1    3    3    0    0  0.22567830671E+02 -0.56097684372E+02 -0.28689278194E+02  0.66927810784E+02  0.00000000000E+00 0.  1.
         11    1    3    3    0    0  0.94563673349E+02  0.56336499484E+01 -0.29878975811E+02  0.99331664259E+02  0.00000000000E+00 0. -1.
</event>
<event>
 7    1  0.2184156E-005  0.1213397E+03  0.7561462E-02  0.1240903E+00
         -2   -1    0    0    0  501 -0.00000000000E+00  0.00000000000E+00  0.57787312204E+02  0.57787312204E+02  0.00000000000E+00 0.  1.
          2   -1    0    0  501    0  0.00000000000E+00 -0.00000000000E+00 -0.38703921343E+03  0.38703921343E+03  0.00000000000E+00 0. -1.
         23    2    1    2    0    0 -0.44595484405E+01 -0.82130223911E+02 -0.63317567152E+02  0.13737547830E+03  0.89986923916E+02 0.  0.
          5    1    1    2  502    0 -0.51201512440E+02 -0.41345005298E+01 -0.89676581716E+02  0.10343138150E+03  0.41800000000E+01 0. -1.
         -5    1    1    2    0  502  0.55661060880E+02  0.86264724441E+02 -0.17625775236E+03  0.20401966584E+03  0.41800000000E+01 0.  1.
        -11    1    3    3    0    0 -0.11172391661E+02 -0.74882506803E+01 -0.60927280115E+02  0.62394147930E+02  0.00000000000E+00 0.  1.
         11    1    3    3    0    0  0.67128432209E+01 -0.74641973231E+02 -0.23902870376E+01  0.74981330370E+02  0.00000000000E+00 0. -1.
</event>
<event>
 8    1  0.2184156E-005  0.9883350E+02  0.7561462E-02  0.1282768E+00
         -2   -1    0    0    0  501 -0.00000000000E+00  0.00000000000E+00  0.29390536874E+02  0.29390536874E+02  0.00000000000E+00 0.  1.
          2   -1    0    0  501    0  0.00000000000E+00 -0.00000000000E+00 -0.64330383260E+03  0.64330383260E+03  0.00000000000E+00 0. -1.
         23    2    1    2    0    0  0.63936427881E+01  0.93612605869E+01 -0.74629535198E+02  0.11897525647E+03  0.91962124049E+02 0.  0.
         23    2    1    2    0    0 -0.63936427881E+01 -0.93612605869E+01 -0.53928376053E+03  0.55371911301E+03  0.12509744151E+03 0.  0.
          5    1    4    4  502    0 -0.38143702427E+02 -0.53753831249E+02 -0.36868917855E+03  0.37455787162E+03  0.41800000000E+01 0. -1.
         -5    1    4    4    0  502  0.31750059639E+02  0.44392570662E+02 -0.17059458198E+03  0.17916124139E+03  0.41800000000E+01 0. -1.
        -11    1    3    3    0    0  0.13958142655E+01  0.42926509874E+02 -0.72834468114E+01  0.43562393701E+02  0.00000000000E+00 0.  1.
         11    1    3    3    0    0  0.49978285227E+01 -0.33565249288E+02 -0.67346088387E+02  0.75412862767E+02  0.00000000000E+00 0. -1.
</event>
<event>
 8    1  0.2184156E-005  0.2295967E+03  0.7561462E-02  0.1126924E+00
          2   -1    0    0  501    0  0.00000000000E+00  0.00000000000E+00  0.17594711786E+04  0.17594711786E+04  0.00000000000E+00 0. -1.
         -2   -1    0    0    0  501 -0.00000000000E+00 -0.00000000000E+00 -0.33073942083E+02  0.33073942083E+02  0.00000000000E+00 0.  1.
         23    2    1    2    0    0 -0.14874824370E+03  0.14803486305E+03  0.59317779014E+03  0.63328915785E+03  0.71797674389E+02 0.  0.
         23    2    1    2    0    0  0.14874824370E+03 -0.14803486305E+03  0.11332194464E+04  0.11592559629E+04  0.12509081921E+03 0.  0.
          5    1    4    4  502    0  0.71312693218E+02 -0.10476972446E+01  0.47695046002E+03  0.48227151232E+03  0.41800000000E+01 0.  1.
         -5    1    4    4    0  502  0.77435550479E+02 -0.14698716581E+03  0.65626898641E+03  0.67698445057E+03  0.41800000000E+01 0.  1.
        -11    1    3    3    0    0 -0.13014255666E+03  0.84045472113E+02  0.40103187729E+03  0.42991544871E+03  0.00000000000E+00 0.  1.
         11    1    3    3    0    0 -0.18605687039E+02  0.63989390937E+02  0.19214591286E+03  0.20337370914E+03  0.00000000000E+00 0. -1.
</event>
<event>
 8    1  0.2184156E-005  0.1043327E+03  0.7561462E-02  0.1271440E+00
         -1   -1    0    0    0  501 -0.00000000000E+00  0.00000000000E+00  0.93500756413E+02  0.93500756413E+02  0.00000000000E+00 0.  1.
          1   -1    0    0  501    0  0.00000000000E+00 -0.00000000000E+00 -0.32794588362E+03  0.32794588362E+03  0.00000000000E+00 0. -1.
         23    2    1    2    0    0  0.18640368424E+02  0.69724491705E+02  0.36008640138E+02  0.12012950713E+03  0.89025323587E+02 0.  0.
         23    2    1    2    0    0 -0.18640368424E+02 -0.69724491705E+02 -0.27045376735E+03  0.30131713291E+03  0.11152491306E+03 0.  0.
          5    1    4    4  502    0 -0.99144642337E+01 -0.10015537665E+03 -0.19850846336E+03  0.22260386003E+03  0.41800000000E+01 0. -1.
         -5    1    4    4    0  502 -0.87259041906E+01  0.30430884940E+02 -0.71945303984E+02  0.78713272880E+02  0.41800000000E+01 0.  1.
        -11    1    3    3    0    0  0.20292372382E+02  0.29857604229E+02  0.62540877221E+02  0.72212313568E+02  0.00000000000E+00 0.  1.
         11    1    3    3    0    0 -0.16520039578E+01  0.39866887476E+02 -0.26532237083E+02  0.47917193561E+02  0.00000000000E+00 0. -1.
</event>
<event>
 7    1  0.2184156E-005  0.1216807E+03  0.7561462E-02  0.1240350E+00
         -1   -1    0    0    0  501 -0.00000000000E+00  0.00000000000E+00  0.35892427536E+03  0.35892427536E+03  0.00000000000E+00 0.  1.
          1   -1    0    0  501    0  0.00000000000E+00 -0.00000000000E+00 -0.56069009093E+02  0.56069009093E+02  0.00000000000E+00 0. -1.
         23    2    1    2    0    0 -0.15250188835E+02  0.62820268905E+02  0.12310932036E+03  0.16482098823E+03  0.88493496687E+02 0.  0.
          5    1    1    2  502    0  0.67155131839E+02 -0.47130163904E+02  0.24574834248E+02  0.85746480745E+02  0.41800000000E+01 0. -1.
         -5    1    1    2    0  502 -0.51904943004E+02 -0.15690105001E+02  0.15517111166E+03  0.16442581548E+03  0.41800000000E+01 0.  1.
        -11    1    3    3    0    0 -0.49717389776E+02  0.24974082470E+02  0.82366456312E+02  0.99396965581E+02  0.00000000000E+00 0. -1.
         11    1    3    3    0    0  0.34467200941E+02  0.37846186435E+02  0.40742864050E+02  0.65424022648E+02  0.00000000000E+00 0.  1.
</event>
<event>
 8    1  0.2184156E-005  0.2147624E+03  0.7561462E-02  0.1137849E+00
          3   -1    0    0  501    0  0.00000000000E+00  0.00000000000E+00  0.12786065655E+03  0.12786065655E+03  0.00000000000E+00 0. -1.
         -3   -1    0    0    0  501 -0.00000000000E+00 -0.00000000000E+00 -0.51198554091E+03  0.51198554091E+03  0.00000000000E+00 0.  1.
         23    2    1    2    0    0  0.13017518194E+03  0.13477177611E+03 -0.17185396981E+02  0.20926388556E+03  0.91580709220E+02 0.  0.
         23    2    1    2    0    0 -0.13017518194E+03 -0.13477177611E+03 -0.36693948738E+03  0.43058231190E+03  0.12509008871E+03 0.  0.
          5    1    4    4  502    0 -0.15465701317E+03 -0.11314249424E+03 -0.32427211768E+03  0.37668275038E+03  0.41800000000E+01 0. -1.
         -5    1    4    4    0  502  0.24481831239E+02 -0.21629281869E+02 -0.42667369700E+02  0.53899561521E+02  0.41800000000E+01 0. -1.
        -11    1    3    3    0    0  0.12808906100E+03  0.81958222339E+02 -0.29721154689E+02  0.15494290817E+03  0.00000000000E+00 0. -1.
         11    1    3    3    0    0  0.20861209335E+01  0.52813553774E+02  0.12535757708E+02  0.54320977385E+02  0.00000000000E+00 0.  1.
</event>
<event>
 8    1  0.2184156E-005  0.9189367E+02  0.7561462E-02  0.1298330E+00
         -1   -1    0    0    0  501 -0.00000000000E+00  0.00000000000E+00  0.23072468135E+03  0.23072468135E+03  0.00000000000E+00 0.  1.
          1   -1    0    0  501    0  0.00000000000E+00 -0.00000000000E+00 -0.73752191170E+02  0.73752191170E+02  0.00000000000E+00 0. -1.
         23    2    1    2    0    0 -0.12665245098E+02 -0.72162930550E+02  0.96368877052E+02  0.14734843416E+03  0.84004188021E+02 0.  0.
         23    2    1    2    0    0  0.12665245098E+02  0.72162930550E+02  0.60603613129E+02  0.15712843836E+03  0.12509456919E+03 0.  0.
          5    1    4    4  502    0  0.13219285405E+02  0.54126520083E+02 -0.30845187121E+02  0.63822626485E+02  0.41800000000E+01 0. -1.
         -5    1    4    4    0  502 -0.55404030652E+00  0.18036410467E+02  0.91448800250E+02  0.93305811879E+02  0.41800000000E+01 0. -1.
        -11    1    3    3    0    0  0.30343872270E+01  0.17805730801E+02  0.64390384696E+01  0.19175838224E+02  0.00000000000E+00 0. -1.
         11    1    3    3    0    0 -0.15699632325E+02 -0.89968661351E+02  0.89929838583E+02  0.12817259593E+03  0.00000000000E+00 0.  1.
</event>
<event>
 8    1  0.2184156E-005  0.1211560E+03  0.7561462E-02  0.1241202E+00
         -1   -1    0    0    0  501 -0.00000000000E+00  0.00000000000E+00  0.30330180267E+02  0.30330180267E+02  0.00000000000E+00 0.  1.
          1   -1    0    0  501    0  0.00000000000E+00 -0.00000000000E+00 -0.62330624866E+03  0.62330624866E+03  0.00000000000E+00 0. -1.
         23    2    1    2    0    0 -0.61754177697E+02  0.19889985250E+02 -0.15268217828E+03  0.19134385722E+03  0.95349012341E+02 0.  0.
         23    2    1    2    0    0  0.61754177697E+02 -0.19889985250E+02 -0.44029389011E+03  0.46229257170E+03  0.12508605922E+03 0.  0.
          5    1    4    4  502    0  0.52175928332E+02  0.46987092382E+02 -0.27070886733E+03  0.27969783267E+03  0.41800000000E+01 0.  1.
         -5    1    4    4    0  502  0.95782493653E+01 -0.66877077632E+02 -0.16958502278E+03  0.18259473904E+03  0.41800000000E+01 0.  1.
        -11    1    3    3    0    0 -0.81877687732E+02  0.19448940251E+02 -0.80685019172E+02  0.11658597404E+03  0.00000000000E+00 0.  1.
         11    1    3    3    0    0  0.20123510034E+02  0.44104499856E+00 -0.71997159112E+02  0.74757883176E+02  0.00000000000E+00 0. -1.
</event>
<event>
 8    1  0.2184156E-005  0.1193619E+03  0.7561462E-02  0.1244153E+00
         -1   -1    0    0    0  501 -0.00000000000E+00  0.00000000000E+00  0.17806433451E+02  0.17806433451E+02  0.00000000000E+00 0.  1.
          1   -1    0    0  501    0  0.00000000000E+00 -0.00000000000E+00 -0.94450307649E+03  0.94450307649E+03  0.00000000000E+00 0. -1.
         23    2    1    2    0    0 -0.98368019075E+01 -0.67942781447E+02 -0.36581557890E+03  0.38356271110E+03  0.92662459265E+02 0.  0.
         23    2    1    2    0    0  0.98368019075E+01  0.67942781447E+02 -0.56088106413E+03  0.57874679883E+03  0.12508918753E+03 0.  0.
          5    1    4    4  502    0 -0.48801754434E+01  0.10287815470E+03 -0.36983573741E+03  0.38393186360E+03  0.41800000000E+01 0. -1.
         -5    1    4    4    0  502  0.14716977351E+02 -0.34935373248E+02 -0.19104532673E+03  0.19481493523E+03  0.41800000000E+01 0. -1.
        -11    1    3    3    0    0  0.27204535731E+02 -0.10508248673E+02 -0.34054857470E+02  0.44835737663E+02  0.00000000000E+00 0.  1.
         11    1    3    3    0    0 -0.37041337638E+02 -0.57434532774E+02 -0.33176072143E+03  0.33872697344E+03  0.00000000000E+00 0. -1.
</event>
<event>
 8    1  0.2184156E-005  0.1507637E+03  0.7561462E-02  0.1199538E+00
         -3   -1    0    0    0  501 -0.00000000000E+00  0.00000000000E+00  0.40527208673E+03  0.40527208673E+03  0.00000000000E+00 0.  1.
          3   -1    0    0  501    0  0.00000000000E+00 -0.00000000000E+00 -0.82751908009E+02  0.82751908009E+02  0.00000000000E+00 0. -1.
         23    2    1    2    0    0 -0.84036761049E+02 -0.12108104910E+03  0.15612394012E+03  0.23295945903E+03  0.90402584114E+02 0.  0.
         23    2    1    2    0    0  0.84036761049E+02  0.12108104910E+03  0.16639623860E+03  0.25506453571E+03  0.12508961386E+03 0.  0.
          5    1    4    4  502    0  0.24521032198E-01  0.17315300723E+02  0.10769484329E+03  0.10915801351E+03  0.41800000000E+01 0. -1.
         -5    1    4    4    0  502  0.84012240017E+02  0.10376574838E+03  0.58701395308E+02  0.14590652220E+03  0.41800000000E+01 0. -1.
        -11    1    3    3    0    0 -0.20520459002E+02 -0.11617251914E+02 -0.87161853125E+01  0.25140041091E+02  0.00000000000E+00 0. -1.
         11    1    3    3    0    0 -0.63516302047E+02 -0.10946379719E+03  0.16484012543E+03  0.20781941794E+03  0.00000000000E+00 0.  1.
</event>
<event>
 8    1  0.2184156E-005  0.1832311E+03  0.7561462E-02  0.1164712E+00
         -3   -1    0    0    0  501 -0.00000000000E+00  0.00000000000E+00  0.24216239468E+02  0.24216239468E+02  0.00000000000E+00 0.  1.
          3   -1    0    0  501    0  0.00000000000E+00 -0.00000000000E+00 -0.17517996982E+04  0.17517996982E+04  0.00000000000E+00 0. -1.
         23    2    1    2    0    0  0.13296471003E+03  0.10177386416E+03 -0.60683024612E+03  0.63594016446E+03  0.90218687822E+02 0.  0.
         23    2    1    2    0    0 -0.13296471003E+03 -0.10177386416E+03 -0.11207532126E+04  0.11400757732E+04  0.12508985382E+03 0.  0.
          5    1    4    4  502    0 -0.47580656211E+02 -0.73669382709E+02 -0.25567812138E+03  0.27033288913E+03  0.41800000000E+01 0.  1.
         -5    1    4    4    0  502 -0.85384053818E+02 -0.28104481448E+02 -0.86507509120E+03  0.86974288404E+03  0.41800000000E+01 0.  1.
        -11    1    3    3    0    0  0.53505522840E+02  0.94869222390E+02 -0.30983035432E+03  0.32841720233E+03  0.00000000000E+00 0.  1.
         11    1    3    3    0    0  0.79459187189E+02  0.69046417661E+01 -0.29699989180E+03  0.30752296213E+03  0.00000000000E+00 0. -1.
</event>
<event>
 8    1  0.2184156E-005  0.9530107E+02  0.7561462E-02  0.1290499E+00
          2   -1    0    0  501    0  0.00000000000E+00  0.00000000000E+00  0.26412118472E+03  0.26412118472E+03  0.00000000000E+00 0. -1.
         -2   -1    0    0    0  501 -0.00000000000E+00 -0.00000000000E+00 -0.56596770605E+02  0.56596770605E+02  0.00000000000E+00 0.  1.
         23    2    1    2    0    0 -0.31832493357E+02  0.47082341283E+02  0.94818926034E+02  0.14301113908E+03  0.90727629051E+02 0.  0.
         23    2    1    2    0    0  0.31832493357E+02 -0.47082341283E+02  0.11270548808E+03  0.17770681624E+03  0.12508849268E+03 0.  0.
          5    1    4    4  502    0 -0.37220132064E+02  0.43546185247E+01  0.74325616844E+02  0.83343090011E+02  0.41800000000E+01 0.  1.
         -5    1    4    4    0  502  0.69052625421E+02 -0.51436959808E+02  0.38379871235E+02  0.94363726229E+02  0.41800000000E+01 0.  1.
        -11    1    3    3    0    0 -0.35476872067E+02  0.22881243774E+02  0.10746757812E+03  0.11546185567E+03  0.00000000000E+00 0. -1.
         11    1    3    3    0    0  0.36443787097E+01  0.24201097510E+02 -0.12648652085E+02  0.27549283411E+02  0.00000000000E+00 0.  1.
</event>
<event>
 8    1  0.2184156E-005  0.1237433E+03  0.7561462E-02  0.1237046E+00
          2   -1    0    0  501    0  0.00000000000E+00  0.00000000000E+00  0.17549765061E+03  0.17549765061E+03  0.00000000000E+00 0.  1.
         -2   -1    0    0    0  501 -0.00000000000E+00 -0.00000000000E+00 -0.17037312760E+03  0.17037312760E+03  0.00000000000E+00 0. -1.
         23    2    1    2    0    0  0.56665341419E+02  0.84131169653E+02 -0.85179393368E+02  0.16122577031E+03  0.91919559027E+02 0.  0.
         23    2    1    2    0    0 -0.56665341419E+02 -0.84131169653E+02  0.90303916371E+02  0.18464500790E+03  0.12509982816E+03 0.  0.
          5    1    4    4  502    0 -0.57686428784E+02 -0.10508587278E+03  0.10440466856E+03  0.15902380936E+03  0.41800000000E+01 0. -1.
         -5    1    4    4    0  502  0.10210873654E+01  0.20954703131E+02 -0.14100752190E+02  0.25621198548E+02  0.41800000000E+01 0. -1.
        -11    1    3    3    0    0  0.11973096201E+02  0.45565713365E+02 -0.90424783714E+02  0.10196190846E+03  0.00000000000E+00 0. -1.
         11    1    3    3    0    0  0.44692245218E+02  0.38565456288E+02  0.52453903460E+01  0.59263861848E+02  0.00000000000E+00 0.  1.
</event>
<event>
 8    1  0.2184156E-005  0.1129745E+03  0.7561462E-02  0.1255159E+00
          1   -1    0    0  501    0  0.00000000000E+00  0.00000000000E+00  0.28284102830E+03  0.28284102830E+03  0.00000000000E+00 0. -1.
         -1   -1    0    0    0  501 -0.00000000000E+00 -0.00000000000E+00 -0.51069198005E+02  0.51069198005E+02  0.00000000000E+00 0.  1.
         23    2    1    2    0    0  0.41157838706E+02  0.91231967780E+01  0.57860012074E+02  0.11557610225E+03  0.90735075954E+02 0.  0.
         23    2    1    2    0    0 -0.41157838706E+02 -0.91231967780E+01  0.17391181822E+03  0.21833412405E+03  0.12508904350E+03 0.  0.
          5    1    4    4  502    0 -0.82801142462E+02 -0.13471065494E+02  0.82649030781E+02  0.11783816651E+03  0.41800000000E+01 0.  1.
         -5    1    4    4    0  502  0.41643303757E+02  0.43478687157E+01  0.91262787441E+02  0.10049595754E+03  0.41800000000E+01 0.  1.
        -11    1    3    3    0    0  0.70120195406E+02  0.10398339738E+02  0.44106963396E+02  0.83488870475E+02  0.00000000000E+00 0.  1.
         11    1    3    3    0    0 -0.28962356701E+02 -0.12751429601E+01  0.13753048678E+02  0.32087231778E+02  0.00000000000E+00 0. -1.
</event>
<event>
 8    1  0.2184156E-005  0.1082742E+03  0.7561462E-02  0.1263800E+00
         -1   -1    0    0    0  501 -0.00000000000E+00  0.00000000000E+00  0.22914640304E+02  0.22914640304E+02  0.00000000000E+00 0.  1.
          1   -1    0    0  501    0  0.00000000000E+00 -0.00000000000E+00 -0.21391419855E+04  0.21391419855E+04  0.00000000000E+00 0. -1.
         23    2    1    2    0    0 -0.27535448133E+00  0.87293601562E+02 -0.17899969042E+03  0.21883114836E+03  0.90696932855E+02 0.  0.
         23    2    1    2    0    0  0.27535448133E+00 -0.87293601562E+02 -0.19372276548E+04  0.19432254775E+04  0.12511603038E+03 0.  0.
          5    1    4    4  502    0  0.14817794253E+02 -0.56171741319E+02 -0.29831922574E+03  0.30395174682E+03  0.41800000000E+01 0. -1.
         -5    1    4    4    0  502 -0.14542439771E+02 -0.31121860243E+02 -0.16389084291E+04  0.16392737306E+04  0.41800000000E+01 0. -1.
        -11    1    3    3    0    0  0.42254647129E+01  0.10517532112E+03 -0.16484544496E+03  0.19558559111E+03  0.00000000000E+00 0. -1.
         11    1    3    3    0    0 -0.45008191942E+01 -0.17881719554E+02 -0.14154245457E+02  0.23245557255E+02  0.00000000000E+00 0.  1.
</event>
<event>
 8    1  0.2184156E-005  0.1455604E+03  0.7561462E-02  0.1206037E+00
          1   -1    0    0  501    0  0.00000000000E+00  0.00000000000E+00  0.74118573772E+02  0.74118573772E+02  0.00000000000E+00 0. -1.
         -1   -1    0    0    0  501 -0.00000000000E+00 -0.00000000000E+00 -0.32132789782E+03  0.32132789782E+03  0.00000000000E+00 0.  1.
         23    2    1    2    0    0  0.43349953071E+02 -0.95141477187E+02 -0.14589995526E+03  0.20350186821E+03  0.95891054366E+02 0.  0.
         23    2    1    2    0    0 -0.43349953071E+02  0.95141477187E+02 -0.10130936878E+03  0.19194460338E+03  0.12509205990E+03 0.  0.
          5    1    4    4  502    0 -0.79612179769E+02  0.30012668278E+02 -0.72703393295E+02  0.11199158549E+03  0.41800000000E+01 0. -1.
         -5    1    4    4    0  502  0.36262226698E+02  0.65128808910E+02 -0.28605975485E+02  0.79953017882E+02  0.41800000000E+01 0. -1.
        -11    1    3    3    0    0  0.12751903172E+02  0.13403877518E+02  0.73466565915E+00  0.18515255889E+02  0.00000000000E+00 0. -1.
         11    1    3    3    0    0  0.30598049899E+02 -0.10854535470E+03 -0.14663462092E+03  0.18498661232E+03  0.00000000000E+00 0.  1.
</event>
<event>
 8    1  0.2184156E-005  0.8620781E+02  0.7561462E-02  0.1312304E+00
          2   -1    0    0  501    0  0.00000000000E+00  0.00000000000E+00  0.21326897535E+03  0.21326897535E+03  0.00000000000E+00 0. -1.
         -2   -1    0    0    0  501 -0.00000000000E+00 -0.00000000000E+00 -0.93342275601E+02  0.93342275601E+02  0.00000000000E+00 0.  1.
         23    2    1    2    0    0 -0.31609220113E+02  0.44385248825E+02 -0.22376711988E+02  0.10946173467E+03  0.92260289439E+02 0.  0.
         23    2    1    2    0    0  0.31609220113E+02 -0.44385248825E+02  0.14230341173E+03  0.19714951628E+03  0.12509387543E+03 0.  0.
          5    1    4    4  502    0 -0.29433393143E+02 -0.18794764349E+02  0.12321368423E+03  0.12813528858E+03  0.41800000000E+01 0. -1.
         -5    1    4    4    0  502  0.61042613256E+02 -0.25590484475E+02  0.19089727506E+02  0.69014227700E+02  0.41800000000E+01 0. -1.
        -11    1    3    3    0    0  0.33819532868E+01  0.34356479223E+02 -0.52078206188E+02  0.62481555938E+02  0.00000000000E+00 0.  1.
         11    1    3    3    0    0 -0.34991173400E+02  0.10028769602E+02  0.29701494200E+02  0.46980178728E+02  0.00000000000E+00 0. -1.
</event>
<event>
 8    1  0.2184156E-005  0.1314152E+03  0.7561462E-02  0.1225371E+00
         -2   -1    0    0    0  501 -0.00000000000E+00  0.00000000000E+00  0.20116053251E+02  0.20116053251E+02  0.00000000000E+00 0.  1.
          2   -1    0    0  501    0  0.00000000000E+00 -0.00000000000E+00 -0.10109449865E+04  0.10109449865E+04  0.00000000000E+00 0. -1.
         23    2    1    2    0    0  0.34122569992E+02  0.74429381590E+02 -0.32941752754E+03  0.35296358716E+03  0.96764165825E+02 0.  0.
         23    2    1    2    0    0 -0.34122569992E+02 -0.74429381590E+02 -0.66141140567E+03  0.67809745255E+03  0.12508806887E+03 0.  0.
          5    1    4    4  502    0 -0.19515866237E+02  0.34098525776E+02 -0.15404482881E+03  0.15903100383E+03  0.41800000000E+01 0.  1.
         -5    1    4    4    0  502 -0.14606703755E+02 -0.10852790737E+03 -0.50736657686E+03  0.51906644872E+03  0.41800000000E+01 0.  1.
        -11    1    3    3    0    0  0.18354319568E+02 -0.14516648327E+02 -0.20503472949E+02  0.31112803288E+02  0.00000000000E+00 0.  1.
         11    1    3    3    0    0  0.15768250425E+02  0.88946029917E+02 -0.30891405459E+03  0.32185078388E+03  0.00000000000E+00 0. -1.
</event>
<event>
 8    1  0.2184156E-005  0.2842435E+03  0.7561462E-02  0.1093394E+00
         -2   -1    0    0    0  501 -0.00000000000E+00  0.00000000000E+00  0.27306983083E+03  0.27306983083E+03  0.00000000000E+00 0. -1.
          2   -1    0    0  501    0  0.00000000000E+00 -0.00000000000E+00 -0.11591336922E+04  0.11591336922E+04  0.00000000000E+00 0.  1.
         23    2    1    2    0    0 -0.20178623200E+02 -0.27535160079E+03  0.16792992297E+03  0.33549228461E+03  0.90160596219E+02 0.  0.
         23    2    1    2    0    0  0.20178623200E+02  0.27535160079E+03 -0.10539937844E+04  0.10967112384E+04  0.12508781769E+03 0.  0.
          5    1    4    4  502    0  0.40171445556E+02  0.23860234719E+03 -0.99663070604E+03  0.10255901042E+04  0.41800000000E+01 0. -1.
         -5    1    4    4    0  502 -0.19992822356E+02  0.36749253596E+02 -0.57363078322E+02  0.71121134272E+02  0.41800000000E+01 0. -1.
        -11    1    3    3    0    0 -0.37848410386E+02 -0.82275469970E+02  0.86392841895E+02  0.12516180831E+03  0.00000000000E+00 0.  1.
         11    1    3    3    0    0  0.17669787186E+02 -0.19307613082E+03  0.81537081080E+02  0.21033047630E+03  0.00000000000E+00 0. -1.
</event>
<event>
 8    1  0.2184156E-005  0.1025025E+03  0.7561462E-02  0.1275120E+00
         -2   -1    0    0    0  501 -0.00000000000E+00  0.00000000000E+00  0.10544150379E+02  0.10544150379E+02  0.00000000000E+00 0.  1.
          2   -1    0    0  501    0  0.00000000000E+00 -0.00000000000E+00 -0.10166334736E+04  0.10166334736E+04  0.00000000000E+00 0. -1.
         23    2    1    2    0    0 -0.12980331591E+02 -0.16903143737E+02 -0.36904511818E+03  0.37761831066E+03  0.77117339247E+02 0.  0.
         23    2    1    2    0    0  0.12980331591E+02  0.16903143737E+02 -0.63704420505E+03  0.64955931334E+03  0.12509107512E+03 0.  0.
          5    1    4    4  502    0  0.67337956947E+02 -0.40774311786E+01 -0.30315548283E+03  0.31059901008E+03  0.41800000000E+01 0. -1.
         -5    1    4    4    0  502 -0.54357625356E+02  0.20980574915E+02 -0.33388872222E+03  0.33896030326E+03  0.41800000000E+01 0. -1.
        -11    1    3    3    0    0 -0.12115267554E+02  0.29861604687E+02 -0.12199414549E+03  0.12617870928E+03  0.00000000000E+00 0. -1.
         11    1    3    3    0    0 -0.86506403602E+00 -0.46764748423E+02 -0.24705097270E+03  0.25143960138E+03  0.00000000000E+00 0.  1.
</event>
<event>
 6    1  0.2450020E-005  0.1336471E+03  0.7561462E-02  0.1222142E+00
          2   -1    0    0  501    0  0.00000000000E+00  0.00000000000E+00  0.26996836218E+03  0.26996836218E+03  0.00000000000E+00 0. -1.
         -2   -1    0    0    0  501 -0.00000000000E+00 -0.00000000000E+00 -0.11304729982E+03  0.11304729982E+03  0.00000000000E+00 0.  1.
          5    1    1    2  502    0 -0.24374454121E+02  0.10310451857E+03  0.17013524068E+03  0.20046976900E+03  0.41800000000E+01 0. -1.
         -5    1    1    2    0  502  0.71651266110E+02 -0.41582395224E+02 -0.48168544845E+02  0.95920178483E+02  0.41800000000E+01 0.  1.
        -11    1    1    2    0    0 -0.11292330058E+02 -0.22876292344E+02  0.17786572404E+02  0.31099897547E+02  0.00000000000E+00 0.  1.
         11    1    1    2    0    0 -0.35984481931E+02 -0.38645831007E+02  0.17167794125E+02  0.55525816961E+02  0.00000000000E+00 0. -1.
</event>
<event>
 8    1  0.2184156E-005  0.1256772E+03  0.7561462E-02  0.1234015E+00
          2   -1    0    0  501    0  0.00000000000E+00  0.00000000000E+00  0.30264835008E+03  0.30264835008E+03  0.00000000000E+00 0. -1.
         -2   -1    0    0    0  501 -0.00000000000E+00 -0.00000000000E+00 -0.66574956324E+02  0.66574956324E+02  0.00000000000E+00 0.  1.
         23    2    1    2    0    0  0.24663818573E+02 -0.88365006166E+02  0.72633030291E+02  0.14388314080E+03  0.83726476438E+02 0.  0.
         23    2    1    2    0    0 -0.24663818573E+02  0.88365006166E+02  0.16344036346E+03  0.22534016560E+03  0.12509500215E+03 0.  0.
          5    1    4    4  502    0 -0.49586334915E+02 -0.10395351770E+02  0.73659943465E+02  0.89499316310E+02  0.41800000000E+01 0.  1.
         -5    1    4    4    0  502  0.24922516342E+02  0.98760357936E+02  0.89780419995E+02  0.13584084929E+03  0.41800000000E+01 0.  1.
        -11    1    3    3    0    0  0.62907348288E+00 -0.65173126523E+02  0.13802689421E+01  0.65190776162E+02  0.00000000000E+00 0. -1.
         11    1    3    3    0    0  0.24034745090E+02 -0.23191879643E+02  0.71252761349E+02  0.78692364641E+02  0.00000000000E+00 0.  1.
</event>
<event>
 8    1  0.2184156E-005  0.1439770E+03  0.7561462E-02  0.1208076E+00
         -2   -1    0    0    0  501 -0.00000000000E+00  0.00000000000E+00  0.22786300316E+02  0.22786300316E+02  0.00000000000E+00 0.  1.
          2   -1    0    0  501    0  0.00000000000E+00 -0.00000000000E+00 -0.16666391611E+04  0.16666391611E+04  0.00000000000E+00 0. -1.
         23    2    1    2    0    0 -0.10430160835E+03 -0.88590043732E+01 -0.25268250888E+03  0.28872531921E+03  0.92501633492E+02 0.  0.
         23    2    1    2    0    0  0.10430160835E+03  0.88590043732E+01 -0.13911703519E+04  0.14007001422E+04  0.12509449581E+03 0.  0.
          5    1    4    4  502    0 -0.10636545512E+02 -0.37172791312E+02 -0.29533485934E+03  0.29788438035E+03  0.41800000000E+01 0. -1.
         -5    1    4    4    0  502  0.11493815387E+03  0.46031795685E+02 -0.10958354926E+04  0.11028157619E+04  0.41800000000E+01 0. -1.
        -11    1    3    3    0    0 -0.61692095591E+02  0.29012149053E+02 -0.71525744925E+02  0.98810685851E+02  0.00000000000E+00 0.  1.
         11    1    3    3    0    0 -0.42609512761E+02 -0.37871153426E+02 -0.18115676395E+03  0.18991463336E+03  0.00000000000E+00 0. -1.
</event>
<event>
 8    1  0.2184156E-005  0.1270519E+03  0.7561462E-02  0.1231897E+00
         -1   -1    0    0    0  501 -0.00000000000E+00  0.00000000000E+00  0.38691311690E+02  0.38691311690E+02  0.00000000000E+00 0.  1.
          1   -1    0    0  501    0  0.00000000000E+00 -0.00000000000E+00 -0.46767149787E+03  0.46767149787E+03  0.00000000000E+00 0. -1.
         23    2    1    2    0    0  0.54449162815E+02 -0.56150634132E+02 -0.17589273502E+03  0.21341402196E+03  0.92139489318E+02 0.  0.
         23    2    1    2    0    0 -0.54449162815E+02  0.56150634132E+02 -0.25308745116E+03  0.29294878760E+03  0.12509248250E+03 0.  0.
          5    1    4    4  502    0  0.30189262772E+02  0.41730146973E+02 -0.15041120793E+03  0.15904024844E+03  0.41800000000E+01 0.  1.
         -5    1    4    4    0  502 -0.84638425587E+02  0.14420487159E+02 -0.10267624323E+03  0.13390853916E+03  0.41800000000E+01 0.  1.
        -11    1    3    3    0    0 -0.19999090622E+01  0.20876656821E+02 -0.13248590187E+02  0.24806442272E+02  0.00000000000E+00 0.  1.
         11    1    3    3    0    0  0.56449071877E+02 -0.77027290952E+02 -0.16264414483E+03  0.18860757969E+03  0.00000000000E+00 0. -1.
</event>
<event>
 8    1  0.2184156E-005  0.9893716E+02  0.7561462E-02  0.1282547E+00
         -1   -1    0    0    0  501 -0.00000000000E+00  0.00000000000E+00  0.33516309109E+02  0.33516309109E+02  0.00000000000E+00 0.  1.
          1   -1    0    0  501    0  0.00000000000E+00 -0.00000000000E+00 -0.43563476036E+03  0.43563476036E+03  0.00000000000E+00 0. -1.
         23    2    1    2    0    0  0.18989361384E+02 -0.47416433995E+02 -0.14394514730E+03  0.17775544805E+03  0.90927882528E+02 0.  0.
         23    2    1    2    0    0 -0.18989361384E+02  0.47416433995E+02 -0.25817330395E+03  0.29139562142E+03  0.12509612005E+03 0.  0.
          5    1    4    4  502    0  0.10892491078E+02 -0.21762144007E+02 -0.25034275392E+01  0.24818880376E+02  0.41800000000E+01 0.  1.
         -5    1    4    4    0  502 -0.29881852463E+02  0.69178578002E+02 -0.25566987641E+03  0.26657674104E+03  0.41800000000E+01 0.  1.
        -11    1    3    3    0    0  0.53332200129E+01 -0.70601015959E+02 -0.72164586330E+02  0.10109735017E+03  0.00000000000E+00 0. -1.
         11    1    3    3    0    0  0.13656141372E+02  0.23184581964E+02 -0.71780560966E+02  0.76658097880E+02  0.00000000000E+00 0.  1.
</event>
<event>
 8    1  0.2184156E-005  0.1029036E+03  0.7561462E-02  0.1274306E+00
         -1   -1    0    0    0  501 -0.00000000000E+00  0.00000000000E+00  0.44178693399E+02  0.44178693399E+02  0.00000000000E+00 0.  1.
          1   -1    0    0  501    0  0.00000000000E+00 -0.00000000000E+00 -0.36499271050E+03  0.36499271050E+03  0.00000000000E+00 0. -1.
         23    2    1    2    0    0  0.42267289076E+01  0.34054110574E+02 -0.16249363369E+03  0.20449466282E+03  0.11931612820E+03 0.  0.
         23    2    1    2    0    0 -0.42267289076E+01 -0.34054110574E+02 -0.15832038341E+03  0.20467674108E+03  0.12509866846E+03 0.  0.
          5    1    4    4  502    0  0.38267062659E+02 -0.13356580418E+02 -0.15132297022E+03  0.15671273095E+03  0.41800000000E+01 0.  1.
         -5    1    4    4    0  502 -0.42493791567E+02 -0.20697530156E+02 -0.69974131918E+01  0.47964010129E+02  0.41800000000E+01 0.  1.
        -11    1    3    3    0    0  0.95967377442E+01  0.75354039814E+02 -0.13399732239E+03  0.15403120170E+03  0.00000000000E+00 0. -1.
         11    1    3    3    0    0 -0.53700088366E+01 -0.41299929240E+02 -0.28496311303E+02  0.50463461118E+02  0.00000000000E+00 0.  1.
</event>
<event>
 8    1  0.2184156E-005  0.1015247E+03  0.7561462E-02  0.1277122E+00
          2   -1    0    0  501    0  0.00000000000E+00  0.00000000000E+00  0.56273000877E+03  0.56273000877E+03  0.00000000000E+00 0.  1.
         -2   -1    0    0    0  501 -0.00000000000E+00 -0.00000000000E+00 -0.30827713527E+02  0.30827713527E+02  0.00000000000E+00 0. -1.
         23    2    1    2    0    0 -0.38880548439E+02 -0.49695896317E+02  0.14632500278E+03  0.18331531471E+03  0.90620742705E+02 0.  0.
         23    2    1    2    0    0  0.38880548439E+02  0.49695896317E+02  0.38557729246E+03  0.41024240759E+03  0.12509038879E+03 0.  0.
          5    1    4    4  502    0 -0.22872464644E+02  0.39423607719E+01  0.27212476359E+03  0.27314474406E+03  0.41800000000E+01 0. -1.
         -5    1    4    4    0  502  0.61753013084E+02  0.45753535546E+02  0.11345252887E+03  0.13709766354E+03  0.41800000000E+01 0. -1.
        -11    1    3    3    0    0  0.20638509020E+02 -0.35884561867E+02  0.27489854170E+02  0.49692473447E+02  0.00000000000E+00 0. -1.
         11    1    3    3    0    0 -0.59519057460E+02 -0.13811334450E+02  0.11883514861E+03  0.13362284126E+03  0.00000000000E+00 0.  1.
</event>
<event>
 8    1  0.2184156E-005  0.1368657E+03  0.7561462E-02  0.1217610E+00
          2   -1    0    0  501    0  0.00000000000E+00  0.00000000000E+00  0.55290383586E+03  0.55290383586E+03  0.00000000000E+00 0. -1.
         -2   -1    0    0    0  501 -0.00000000000E+00 -0.00000000000E+00 -0.67899640764E+02  0.67899640764E+02  0.00000000000E+00 0.  1.
         23    2    1    2    0    0 -0.94969035883E+02  0.14139409402E+02  0.24029114778E+02  0.13360408146E+03  0.89741916357E+02 0.  0.
         23    2    1    2    0    0  0.94969035883E+02 -0.14139409402E+02  0.46097508032E+03  0.48719939517E+03  0.12508471249E+03 0.  0.
          5    1    4    4  502    0  0.11560411100E+02 -0.54118336173E+02  0.98218289346E+02  0.11281286353E+03  0.41800000000E+01 0. -1.
         -5    1    4    4    0  502  0.83408624783E+02  0.39978926771E+02  0.36275679098E+03  0.37438653164E+03  0.41800000000E+01 0. -1.
        -11    1    3    3    0    0 -0.67926736487E+02 -0.29700216189E+02  0.33292924284E+02  0.81268463618E+02  0.00000000000E+00 0. -1.
         11    1    3    3    0    0 -0.27042299396E+02  0.43839625591E+02 -0.92638095058E+01  0.52335617844E+02  0.00000000000E+00 0.  1.
</event>
<event>
 8    1  0.2184156E-005  0.2127411E+03  0.7561462E-02  0.1139414E+00
          2   -1    0    0  501    0  0.00000000000E+00  0.00000000000E+00  0.64301498011E+03  0.64301498011E+03  0.00000000000E+00 0. -1.
         -2   -1    0    0    0  501 -0.00000000000E+00 -0.00000000000E+00 -0.88754543611E+02  0.88754543611E+02  0.00000000000E+00 0.  1.
         23    2    1    2    0    0 -0.18890724443E+03  0.15093560715E+02  0.12185736397E+03  0.24337025906E+03  0.92011430076E+02 0.  0.
         23    2    1    2    0    0  0.18890724443E+03 -0.15093560715E+02  0.43240307253E+03  0.48839926467E+03  0.12509061523E+03 0.  0.
          5    1    4    4  502    0  0.13507852738E+03  0.40331091111E+02  0.21036855124E+03  0.25326903723E+03  0.41800000000E+01 0.  1.
         -5    1    4    4    0  502  0.53828717056E+02 -0.55424651826E+02  0.22203452129E+03  0.23513022744E+03  0.41800000000E+01 0.  1.
        -11    1    3    3    0    0 -0.19115481207E+02  0.31126228250E+02  0.55672271016E+01  0.36949123460E+02  0.00000000000E+00 0.  1.
         11    1    3    3    0    0 -0.16979176323E+03 -0.16032667535E+02  0.11629013687E+03  0.20642113560E+03  0.00000000000E+00 0. -1.
</event>
<event>
 8    1  0.2184156E-005  0.1536791E+03  0.7561462E-02  0.1196024E+00
          1   -1    0    0  501    0  0.00000000000E+00  0.00000000000E+00  0.33118978859E+03  0.33118978859E+03  0.00000000000E+00 0. -1.
         -1   -1    0    0    0  501 -0.00000000000E+00 -0.00000000000E+00 -0.14733291092E+03  0.14733291092E+03  0.00000000000E+00 0.  1.
         23    2    1    2    0    0  0.31628162145E+02  0.12560687833E+03 -0.65357398235E+02  0.17106144097E+03  0.90625595498E+02 0.  0.
         23    2    1    2    0    0 -0.31628162145E+02 -0.12560687833E+03  0.24921427591E+03  0.30746125854E+03  0.12508893500E+03 0.  0.
          5    1    4    4  502    0 -0.28010334739E+02 -0.14159500114E+03  0.15539579534E+03  0.21212979236E+03  0.41800000000E+01 0. -1.
         -5    1    4    4    0  502 -0.36178274058E+01  0.15988122804E+02  0.93818480575E+02  0.95331466176E+02  0.41800000000E+01 0. -1.
        -11    1    3    3    0    0  0.51679032684E+02  0.70590350648E+02 -0.70392374094E+02  0.11228894137E+03  0.00000000000E+00 0.  1.
         11    1    3    3    0    0 -0.20050870539E+02  0.55016527684E+02  0.50349758583E+01  0.58772499604E+02  0.00000000000E+00 0. -1.
</event>
<event>
 8    1  0.2184156E-005  0.1265763E+03  0.7561462E-02  0.1232626E+00
         -4   -1    0    0    0  501 -0.00000000000E+00  0.00000000000E+00  0.34990581774E+03  0.34990581774E+03  0.00000000000E+00 0. -1.
          4   -1    0    0  501    0  0.00000000000E+00 -0.00000000000E+00 -0.67221713310E+02  0.67221713310E+02  0.00000000000E+00 0.  1.
         23    2    1    2    0    0  0.87981491803E+02 -0.50509240692E+01  0.21589853933E+03  0.25017102033E+03  0.90593075863E+02 0.  0.
         23    2    1    2    0    0 -0.87981491803E+02  0.50509240692E+01  0.66785565098E+02  0.16695651072E+03  0.12509160656E+03 0.  0.
          5    1    4    4  502    0 -0.10102872626E+03  0.39897446507E+02  0.70135170896E+02  0.12936392219E+03  0.41800000000E+01 0. -1.
         -5    1    4    4    0  502  0.13047234461E+02 -0.34846522438E+02 -0.33496057982E+01  0.37592588526E+02  0.41800000000E+01 0. -1.
        -11    1    3    3    0    0 -0.10321964457E+01 -0.17145217944E+02  0.94568918271E+00  0.17202274730E+02  0.00000000000E+00 0.  1.
         11    1    3    3    0    0  0.89013688249E+02  0.12094293875E+02  0.21495285015E+03  0.23296874560E+03  0.00000000000E+00 0. -1.
</event>
<event>
 8    1  0.2184156E-005  0.1222145E+03  0.7561462E-02  0.1239488E+00
         -1   -1    0    0    0  501 -0.00000000000E+00  0.00000000000E+00  0.36949374415E+02  0.36949374415E+02  0.00000000000E+00 0.  1.
          1   -1    0    0  501    0  0.00000000000E+00 -0.00000000000E+00 -0.57209315391E+03  0.57209315391E+03  0.00000000000E+00 0. -1.
         23    2    1    2    0    0  0.75800128334E+02 -0.50844407352E+02 -0.15510633417E+03  0.19866788080E+03  0.84143560351E+02 0.  0.
         23    2    1    2    0    0 -0.75800128334E+02  0.50844407352E+02 -0.38003744532E+03  0.41037464752E+03  0.12509227900E+03 0.  0.
          5    1    4    4  502    0  0.10398295772E+02 -0.31462845861E+02 -0.57504148190E+02  0.66499884840E+02  0.41800000000E+01 0.  1.
         -5    1    4    4    0  502 -0.86198424106E+02  0.82307253213E+02 -0.32253329713E+03  0.34387476268E+03  0.41800000000E+01 0.  1.
        -11    1    3    3    0    0  0.38226668399E+02 -0.31382593018E+02 -0.14070520773E+02  0.51421054795E+02  0.00000000000E+00 0.  1.
         11    1    3    3    0    0  0.37573459935E+02 -0.19461814334E+02 -0.14103581340E+03  0.14724682601E+03  0.00000000000E+00 0. -1.
</event>
<event>
 8    1  0.2184156E-005  0.1070724E+03  0.7561462E-02  0.1266089E+00
          2   -1    0    0  501    0  0.00000000000E+00  0.00000000000E+00  0.35668542261E+03  0.35668542261E+03  0.00000000000E+00 0. -1.
         -2   -1    0    0    0  501 -0.00000000000E+00 -0.00000000000E+00 -0.45423801812E+02  0.45423801812E+02  0.00000000000E+00 0.  1.
         23    2    1    2    0    0  0.86913753550E+01 -0.62163310615E+02  0.10104454226E+03  0.14956560704E+03  0.90664513979E+02 0.  0.
         23    2    1    2    0    0 -0.86913753550E+01  0.62163310615E+02  0.21021707853E+03  0.25254361738E+03  0.12508893389E+03 0.  0.
          5    1    4    4  502    0 -0.34278492232E+02  0.93253689576E+02  0.15174014778E+03  0.18142163735E+03  0.41800000000E+01 0.  1.
         -5    1    4    4    0  502  0.25587116877E+02 -0.31090378961E+02  0.58476930752E+02  0.71121980035E+02  0.41800000000E+01 0.  1.
        -11    1    3    3    0    0  0.11927260765E+02  0.46079015981E-01 -0.14210956754E+02  0.18552977241E+02  0.00000000000E+00 0.  1.
         11    1    3    3    0    0 -0.32358854101E+01 -0.62209389631E+02  0.11525549902E+03  0.13101262980E+03  0.00000000000E+00 0. -1.
</event>
<event>
 8    1  0.2184156E-005  0.8720919E+02  0.7561462E-02  0.1309754E+00
         -1   -1    0    0    0  501 -0.00000000000E+00  0.00000000000E+00  0.14478335725E+03  0.14478335725E+03  0.00000000000E+00 0.  1.
          1   -1    0    0  501    0  0.00000000000E+00 -0.00000000000E+00 -0.10745131020E+03  0.10745131020E+03  0.00000000000E+00 0. -1.
         23    2    1    2    0    0 -0.70318291585E+02 -0.23113373798E+02  0.15140708789E+02  0.10524805962E+03  0.73273616071E+02 0.  0.
         23    2    1    2    0    0  0.70318291585E+02  0.23113373798E+02  0.22191338257E+02  0.14698660782E+03  0.12503486396E+03 0.  0.
          5    1    4    4  502    0  0.50024281770E+02  0.37078872577E+02  0.69547241618E+02  0.93442831586E+02  0.41800000000E+01 0. -1.
         -5    1    4    4    0  502  0.20294009815E+02 -0.13965498779E+02 -0.47355903361E+02  0.53543776236E+02  0.41800000000E+01 0. -1.
        -11    1    3    3    0    0 -0.21148684283E+02 -0.30692320147E+02  0.35518248969E+02  0.51486225077E+02  0.00000000000E+00 0.  1.
         11    1    3    3    0    0 -0.49169607302E+02  0.75789463497E+01 -0.20377540180E+02  0.53761834546E+02  0.00000000000E+00 0. -1.
</event>
<event>
 8    1  0.2184156E-005  0.1397469E+03  0.7561462E-02  0.1213670E+00
         -1   -1    0    0    0  501 -0.00000000000E+00  0.00000000000E+00  0.34610638814E+03  0.34610638814E+03  0.00000000000E+00 0.  1.
          1   -1    0    0  501    0  0.00000000000E+00 -0.00000000000E+00 -0.62522733751E+02  0.62522733751E+02  0.00000000000E+00 0. -1.
         23    2    1    2    0    0 -0.64238971601E+02  0.75615221312E+02  0.13794521054E+03  0.19252427999E+03  0.90511933518E+02 0.  0.
         23    2    1    2    0    0  0.64238971601E+02 -0.75615221312E+02  0.14563844385E+03  0.21610484190E+03  0.12508572740E+03 0.  0.
          5    1    4    4  502    0  0.32374272841E+02  0.32725257920E+02  0.49633156807E+02  0.67822995381E+02  0.41800000000E+01 0. -1.
         -5    1    4    4    0  502  0.31864698760E+02 -0.10834047923E+03  0.96005287046E+02  0.14828184652E+03  0.41800000000E+01 0. -1.
        -11    1    3    3    0    0 -0.51319797548E+02  0.86240180186E+01  0.10406107903E+03  0.11634776954E+03  0.00000000000E+00 0.  1.
         11    1    3    3    0    0 -0.12919174052E+02  0.66991203293E+02  0.33884131508E+02  0.76176510454E+02  0.00000000000E+00 0. -1.
</event>
<event>
 8    1  0.2184156E-005  0.1957109E+03  0.7561462E-02  0.1153409E+00
         -1   -1    0    0    0  501 -0.00000000000E+00  0.00000000000E+00  0.25887910037E+02  0.25887910037E+02  0.00000000000E+00 0.  1.
          1   -1    0    0  501    0  0.00000000000E+00 -0.00000000000E+00 -0.16179139361E+04  0.16179139361E+04  0.00000000000E+00 0. -1.
         23    2    1    2    0    0 -0.27281162217E+02 -0.16923015182E+03 -0.86659702865E+03  0.88797028568E+03  0.90098346699E+02 0.  0.
         23    2    1    2    0    0  0.27281162217E+02  0.16923015182E+03 -0.72542899746E+03  0.75583156051E+03  0.12510400236E+03 0.  0.
          5    1    4    4  502    0  0.64494981554E+02  0.99590999335E+02 -0.29137359964E+03  0.31463314632E+03  0.41800000000E+01 0.  1.
         -5    1    4    4    0  502 -0.37213819336E+02  0.69639152488E+02 -0.43405539782E+03  0.44119841419E+03  0.41800000000E+01 0.  1.
        -11    1    3    3    0    0  0.18858032352E+02 -0.13466206254E+03 -0.61478355398E+03  0.62964141757E+03  0.00000000000E+00 0.  1.
         11    1    3    3    0    0 -0.46139194569E+02 -0.34568089283E+02 -0.25181347467E+03  0.25832886810E+03  0.00000000000E+00 0. -1.
</event>
<event>
 8    1  0.2184156E-005  0.9912732E+02  0.7561462E-02  0.1282142E+00
          1   -1    0    0  501    0  0.00000000000E+00  0.00000000000E+00  0.76943580473E+03  0.76943580473E+03  0.00000000000E+00 0. -1.
         -1   -1    0    0    0  501 -0.00000000000E+00 -0.00000000000E+00 -0.15848711568E+02  0.15848711568E+02  0.00000000000E+00 0.  1.
         23    2    1    2    0    0 -0.14665316812E+02 -0.17566428547E+02  0.33477542305E+03  0.34759334348E+03  0.90680194245E+02 0.  0.
         23    2    1    2    0    0  0.14665316812E+02  0.17566428547E+02  0.41881167011E+03  0.43769117281E+03  0.12508675712E+03 0.  0.
          5    1    4    4  502    0  0.46899195600E+01 -0.44503433924E+02  0.29865334372E+03  0.30201629607E+03  0.41800000000E+01 0. -1.
         -5    1    4    4    0  502  0.99753972522E+01  0.62069862471E+02  0.12015832640E+03  0.13567487674E+03  0.41800000000E+01 0. -1.
        -11    1    3    3    0    0 -0.51353322908E+02 -0.15131034805E+02  0.15189829333E+03  0.16105652270E+03  0.00000000000E+00 0.  1.
         11    1    3    3    0    0  0.36688006096E+02 -0.24353937422E+01  0.18287712972E+03  0.18653682078E+03  0.00000000000E+00 0. -1.
</event>
<event>
 8    1  0.2184156E-005  0.1126761E+03  0.7561462E-02  0.1255693E+00
          1   -1    0    0  501    0  0.00000000000E+00  0.00000000000E+00  0.94429166024E+02  0.94429166024E+02  0.00000000000E+00 0. -1.
         -1   -1    0    0    0  501 -0.00000000000E+00 -0.00000000000E+00 -0.16734244905E+03  0.16734244905E+03  0.00000000000E+00 0.  1.
         23    2    1    2    0    0  0.32367206653E+02  0.38426802644E+02 -0.71872222309E+02  0.12696703679E+03  0.91819153028E+02 0.  0.
         23    2    1    2    0    0 -0.32367206653E+02 -0.38426802644E+02 -0.10410607179E+01  0.13480457829E+03  0.12508771040E+03 0.  0.
          5    1    4    4  502    0 -0.46168436004E+02 -0.72308247391E+02  0.25287885412E+02  0.89537459604E+02  0.41800000000E+01 0. -1.
         -5    1    4    4    0  502  0.13801229351E+02  0.33881444746E+02 -0.26328946130E+02  0.45267118685E+02  0.41800000000E+01 0. -1.
        -11    1    3    3    0    0  0.61829411329E+02  0.11840382482E+02 -0.55897668105E+02  0.84188004265E+02  0.00000000000E+00 0.  1.
         11    1    3    3    0    0 -0.29462204676E+02  0.26586420162E+02 -0.15974554203E+02  0.42779032521E+02  0.00000000000E+00 0. -1.
</event>
<event>
 8    1  0.2184156E-005  0.1128325E+03  0.7561462E-02  0.1255413E+00
         -2   -1    0    0    0  501 -0.00000000000E+00  0.00000000000E+00  0.16188178142E+02  0.16188178142E+02  0.00000000000E+00 0. -1.
          2   -1    0    0  501    0  0.00000000000E+00 -0.00000000000E+00 -0.10269315622E+04  0.10269315622E+04  0.00000000000E+00 0.  1.
         23    2    1    2    0    0  0.53070056092E+02  0.39861950131E+02 -0.37949893801E+03  0.39619069721E+03  0.92424123919E+02 0.  0.
         23    2    1    2    0    0 -0.53070056092E+02 -0.39861950131E+02 -0.63124444608E+03  0.64692904316E+03  0.12506890206E+03 0.  0.
          5    1    4    4  502    0 -0.25435881820E+02  0.41613852668E+02 -0.14303710839E+03  0.15118129379E+03  0.41800000000E+01 0.  1.
         -5    1    4    4    0  502 -0.27634174272E+02 -0.81475802798E+02 -0.48820733769E+03  0.49574774937E+03  0.41800000000E+01 0.  1.
        -11    1    3    3    0    0 -0.63621192191E+01  0.29588416489E+02 -0.34218812948E+02  0.45682361048E+02  0.00000000000E+00 0. -1.
         11    1    3    3    0    0  0.59432175311E+02  0.10273533641E+02 -0.34528012506E+03  0.35050833616E+03  0.00000000000E+00 0.  1.
</event>
<event>
 8    1  0.2184156E-005  0.1135735E+03  0.7561462E-02  0.1254092E+00
          2   -1    0    0  501    0  0.00000000000E+00  0.00000000000E+00  0.10072631915E+04  0.10072631915E+04  0.00000000000E+00 0. -1.
         -2   -1    0    0    0  501 -0.00000000000E+00 -0.00000000000E+00 -0.18035732863E+02  0.18035732863E+02  0.00000000000E+00 0.  1.
         23    2    1    2    0    0 -0.67536087624E+01  0.37116387301E+02  0.17399099882E+03  0.19965883326E+03  0.90374468695E+02 0.  0.
         23    2    1    2    0    0  0.67536087624E+01 -0.37116387301E+02  0.81523645986E+03  0.82564009115E+03  0.12509131537E+03 0.  0.
          5    1    4    4  502    0 -0.17033421321E+02  0.42557123236E+02  0.34992794064E+03  0.35294232138E+03  0.41800000000E+01 0. -1.
         -5    1    4    4    0  502  0.23787030083E+02 -0.79673510537E+02  0.46530851922E+03  0.47269776977E+03  0.41800000000E+01 0. -1.
        -11    1    3    3    0    0 -0.47876265278E+02  0.28917878010E+02  0.10312243413E+03  0.11731418016E+03  0.00000000000E+00 0. -1.
         11    1    3    3    0    0  0.41122656516E+02  0.81985092912E+01  0.70868564692E+02  0.82344653106E+02  0.00000000000E+00 0.  1.
</event>
<event>
 8    1  0.2184156E-005  0.8295057E+02  0.7561462E-02  0.1320881E+00
          1   -1    0    0  501    0  0.00000000000E+00  0.00000000000E+00  0.23543790611E+03  0.23543790611E+03  0.00000000000E+00 0. -1.
         -1   -1    0    0    0  501 -0.00000000000E+00 -0.00000000000E+00 -0.58677549679E+02  0.58677549679E+02  0.00000000000E+00 0.  1.
         23    2    1    2    0    0  0.25363174207E+02  0.20928098593E+02  0.20634486058E+02  0.99942910542E+02  0.92095208541E+02 0.  0.
         23    2    1    2    0    0 -0.25363174207E+02 -0.20928098593E+02  0.15612587037E+03  0.19417254525E+03  0.11066351708E+03 0.  0.
          5    1    4    4  502    0 -0.66599520036E+02 -0.41523222069E+01  0.68064935605E+02  0.95409882652E+02  0.41800000000E+01 0. -1.
         -5    1    4    4    0  502  0.41236345829E+02 -0.16775776386E+02  0.88060934769E+02  0.98762662596E+02  0.41800000000E+01 0.  1.
        -11    1    3    3    0    0  0.30007898909E+02  0.31056221554E+02 -0.27060918266E+02  0.50963282778E+02  0.00000000000E+00 0.  1.
         11    1    3    3    0    0 -0.46447247020E+01 -0.10128122961E+02  0.47695404324E+02  0.48979627764E+02  0.00000000000E+00 0. -1.
</event>
<event>
 8    1  0.2184156E-005  0.7913854E+02  0.7561462E-02  0.1331514E+00
          1   -1    0    0  501    0  0.00000000000E+00  0.00000000000E+00  0.32807218598E+02  0.32807218598E+02  0.00000000000E+00 0. -1.
         -1   -1    0    0    0  501 -0.00000000000E+00 -0.00000000000E+00 -0.37377167186E+03  0.37377167186E+03  0.00000000000E+00 0.  1.
         23    2    1    2    0    0 -0.10653975012E+02 -0.28842594686E+02 -0.15312519468E+03  0.17884849586E+03  0.87143885463E+02 0.  0.
         23    2    1    2    0    0  0.10653975012E+02  0.28842594686E+02 -0.18783925858E+03  0.22773039459E+03  0.12502856916E+03 0.  0.
          5    1    4    4  502    0 -0.38387505155E+02  0.29397357444E+02 -0.19431722877E+02  0.52276853680E+02  0.41800000000E+01 0.  1.
         -5    1    4    4    0  502  0.49041480167E+02 -0.55476275805E+00 -0.16840753570E+03  0.17545354091E+03  0.41800000000E+01 0.  1.
        -11    1    3    3    0    0  0.12523219237E+02 -0.34468693732E+02 -0.16599149600E+02  0.40254858527E+02  0.00000000000E+00 0. -1.
         11    1    3    3    0    0 -0.23177194248E+02  0.56260990459E+01 -0.13652604508E+03  0.13859363733E+03  0.00000000000E+00 0.  1.
</event>
<event>
 8    1  0.2281804E-005  0.2928392E+03  0.7561462E-02  0.1088876E+00
         -1   -1    0    0    0  501 -0.00000000000E+00  0.00000000000E+00  0.16126213982E+03  0.16126213982E+03  0.00000000000E+00 0.  1.
          1   -1    0    0  501    0  0.00000000000E+00 -0.00000000000E+00 -0.58885263092E+03  0.58885263092E+03  0.00000000000E+00 0. -1.
         23    2    1    2    0    0  0.27589788126E+03  0.55754935139E+02 -0.13410549900E+03  0.32466176178E+03  0.90513651025E+02 0.  0.
         23    2    1    2    0    0 -0.27589788126E+03 -0.55754935139E+02 -0.29348499211E+03  0.42545300897E+03  0.12509423875E+03 0.  0.
          5    1    4    4  502    0 -0.18019226015E+03 -0.84205051010E+02 -0.14378032154E+03  0.24545874296E+03  0.41800000000E+01 0.  1.
         -5    1    4    4    0  502 -0.95705621114E+02  0.28450115871E+02 -0.14970467057E+03  0.17999426601E+03  0.41800000000E+01 0.  1.
        -11    1    3    3    0    0  0.25579040522E+03  0.35459752733E+02 -0.92729799411E+02  0.27438101459E+03  0.00000000000E+00 0.  1.
         11    1    3    3    0    0  0.20107476038E+02  0.20295182406E+02 -0.41375699586E+02  0.50280747188E+02  0.00000000000E+00 0. -1.
</event>
<event>
 8    1  0.2184156E-005  0.1250110E+03  0.7561462E-02  0.1235052E+00
         -3   -1    0    0    0  501 -0.00000000000E+00  0.00000000000E+00  0.94485164574E+02  0.94485164574E+02  0.00000000000E+00 0.  1.
          3   -1    0    0  501    0  0.00000000000E+00 -0.00000000000E+00 -0.18767740569E+03  0.18767740569E+03  0.00000000000E+00 0. -1.
         23    2    1    2    0    0  0.74999177557E+02 -0.24608110549E+02 -0.32826375116E+02  0.12240156929E+03  0.87602154784E+02 0.  0.
         23    2    1    2    0    0 -0.74999177557E+02  0.24608110549E+02 -0.60365865996E+02  0.15976100097E+03  0.12509637850E+03 0.  0.
          5    1    4    4  502    0  0.14272549847E+02  0.39528550216E+02  0.11885243500E+02  0.43874176623E+02  0.41800000000E+01 0.  1.
         -5    1    4    4    0  502 -0.89271727404E+02 -0.14920439667E+02 -0.72251109496E+02  0.11588682435E+03  0.41800000000E+01 0.  1.
        -11    1    3    3    0    0  0.65134728495E+02  0.22607602090E+02 -0.25998545247E+02  0.73685554102E+02  0.00000000000E+00 0. -1.
         11    1    3    3    0    0  0.98644490625E+01 -0.47215712639E+02 -0.68278298695E+01  0.48716015190E+02  0.00000000000E+00 0.  1.
</event>
<event>
 8    1  0.2184156E-005  0.1132437E+03  0.7561462E-02  0.1254678E+00
         -2   -1    0    0    0  501 -0.00000000000E+00  0.00000000000E+00  0.20566296300E+02  0.20566296300E+02  0.00000000000E+00 0.  1.
          2   -1    0    0  501    0  0.00000000000E+00 -0.00000000000E+00 -0.68030071973E+03  0.68030071973E+03  0.00000000000E+00 0. -1.
         23    2    1    2    0    0  0.68654055260E+01 -0.37762653503E+02 -0.20356186432E+03  0.22630212804E+03  0.91115688857E+02 0.  0.
         23    2    1    2    0    0 -0.68654055260E+01  0.37762653503E+02 -0.45617255911E+03  0.47456488799E+03  0.12508108346E+03 0.  0.
          5    1    4    4  502    0 -0.64452654956E+02  0.58218859126E+01 -0.22766948842E+03  0.23672538402E+03  0.41800000000E+01 0. -1.
         -5    1    4    4    0  502  0.57587249430E+02  0.31940767591E+02 -0.22850307070E+03  0.23783950397E+03  0.41800000000E+01 0. -1.
        -11    1    3    3    0    0 -0.27556978867E+02  0.15962294234E+02 -0.42858256786E+02  0.53394869568E+02  0.00000000000E+00 0.  1.
         11    1    3    3    0    0  0.34422384393E+02 -0.53724947737E+02 -0.16070360753E+03  0.17290725847E+03  0.00000000000E+00 0. -1.
</event>
<event>
 8    1  0.2184156E-005  0.1098579E+03  0.7561462E-02  0.1260833E+00
         -2   -1    0    0    0  501 -0.00000000000E+00  0.00000000000E+00  0.12679392828E+03  0.12679392828E+03  0.00000000000E+00 0.  1.
          2   -1    0    0  501    0  0.00000000000E+00 -0.00000000000E+00 -0.99892283912E+02  0.99892283912E+02  0.00000000000E+00 0. -1.
         23    2    1    2    0    0  0.22351205496E+02 -0.21301267247E+01  0.17515698631E+02  0.99252756524E+02  0.95079946110E+02 0.  0.
         23    2    1    2    0    0 -0.22351205496E+02  0.21301267247E+01  0.93859457343E+01  0.12743345566E+03  0.12508827211E+03 0.  0.
          5    1    4    4  502    0  0.54548146096E+01 -0.56563720342E+02 -0.13299960908E+02  0.58511287984E+02  0.41800000000E+01 0. -1.
         -5    1    4    4    0  502 -0.27806020105E+02  0.58693847067E+02  0.22685906642E+02  0.68922167681E+02  0.41800000000E+01 0. -1.
        -11    1    3    3    0    0 -0.32085990593E+02  0.21169810943E+02  0.82926767604E+01  0.39324803567E+02  0.00000000000E+00 0.  1.
         11    1    3    3    0    0  0.54437196089E+02 -0.23299937667E+02  0.92230218703E+01  0.59927952958E+02  0.00000000000E+00 0. -1.
</event>
<event>
 8    1  0.2184156E-005  0.1109024E+03  0.7561462E-02  0.1258908E+00
          2   -1    0    0  501    0  0.00000000000E+00  0.00000000000E+00  0.20929193687E+03  0.20929193687E+03  0.00000000000E+00 0. -1.
         -2   -1    0    0    0  501 -0.00000000000E+00 -0.00000000000E+00 -0.80359245899E+02  0.80359245899E+02  0.00000000000E+00 0.  1.
         23    2    1    2    0    0 -0.20754438590E+02 -0.16561984253E+02 -0.15831533990E+02  0.96494240733E+02  0.91408177876E+02 0.  0.
         23    2    1    2    0    0  0.20754438590E+02  0.16561984253E+02  0.14476422497E+03  0.19315694204E+03  0.12509147607E+03 0.  0.
          5    1    4    4  502    0  0.69636911807E+02 -0.10566992211E+02  0.67077329600E+02  0.97354000209E+02  0.41800000000E+01 0. -1.
         -5    1    4    4    0  502 -0.48882473218E+02  0.27128976464E+02  0.77686895366E+02  0.95802941831E+02  0.41800000000E+01 0. -1.
        -11    1    3    3    0    0  0.21207099913E+02 -0.41333933297E+02 -0.80261772053E+01  0.47145038435E+02  0.00000000000E+00 0. -1.
         11    1    3    3    0    0 -0.41961538502E+02  0.24771949044E+02 -0.78053567848E+01  0.49349202298E+02  0.00000000000E+00 0.  1.
</event>
<event>
 8    1  0.2184156E-005  0.1347244E+03  0.7561462E-02  0.1220609E+00
          1   -1    0    0  501    0  0.00000000000E+00  0.00000000000E+00  0.12920720905E+03  0.12920720905E+03  0.00000000000E+00 0. -1.
         -1   -1    0    0    0  501 -0.00000000000E+00 -0.00000000000E+00 -0.19419004470E+03  0.19419004470E+03  0.00000000000E+00 0.  1.
         23    2    1    2    0    0 -0.39209528560E+02  0.74173074315E+02 -0.11008627855E+03  0.16616943759E+03  0.91947056395E+02 0.  0.
         23    2    1    2    0    0  0.39209528560E+02 -0.74173074315E+02  0.45103442909E+02  0.15722781616E+03  0.12508890250E+03 0.  0.
          5    1    4    4  502    0  0.70666566917E+02 -0.86792754679E+02  0.50132156439E+02  0.12270880756E+03  0.41800000000E+01 0. -1.
         -5    1    4    4    0  502 -0.31457038358E+02  0.12619680364E+02 -0.50287135299E+01  0.34519008597E+02  0.41800000000E+01 0. -1.
        -11    1    3    3    0    0 -0.58203593443E+02  0.13538894488E+02 -0.64770197869E+02  0.88125697079E+02  0.00000000000E+00 0.  1.
         11    1    3    3    0    0  0.18994064884E+02  0.60634179827E+02 -0.45316080683E+02  0.78043740509E+02  0.00000000000E+00 0. -1.
</event>
<event>
 8    1  0.2184156E-005  0.9062942E+02  0.7561462E-02  0.1301335E+00
          2   -1    0    0  501    0  0.00000000000E+00  0.00000000000E+00  0.34600648842E+02  0.34600648842E+02  0.00000000000E+00 0. -1.
         -2   -1    0    0    0  501 -0.00000000000E+00 -0.00000000000E+00 -0.64394867816E+03  0.64394867816E+03  0.00000000000E+00 0.  1.
         23    2    1    2    0    0 -0.42122974425E+02 -0.45363705820E+02 -0.46482545509E+03  0.47763431399E+03  0.90772371476E+02 0.  0.
         23    2    1    2    0    0  0.42122974425E+02  0.45363705820E+02 -0.14452257423E+03  0.20091501302E+03  0.12509139543E+03 0.  0.
          5    1    4    4  502    0  0.47661455432E+02  0.12536985229E+02 -0.15739135985E+03  0.16497970447E+03  0.41800000000E+01 0.  1.
         -5    1    4    4    0  502 -0.55384810075E+01  0.32826720591E+02  0.12868785617E+02  0.35935308541E+02  0.41800000000E+01 0.  1.
        -11    1    3    3    0    0  0.71267694528E+01  0.17203789849E+02 -0.28104868973E+02  0.33714164501E+02  0.00000000000E+00 0. -1.
         11    1    3    3    0    0 -0.49249743878E+02 -0.62567495669E+02 -0.43672058611E+03  0.44392014949E+03  0.00000000000E+00 0.  1.
</event>
<event>
 8    1  0.2184156E-005  0.1168874E+03  0.7561462E-02  0.1248322E+00
         -2   -1    0    0    0  501 -0.00000000000E+00  0.00000000000E+00  0.13071890462E+02  0.13071890462E+02  0.00000000000E+00 0.  1.
          2   -1    0    0  501    0  0.00000000000E+00 -0.00000000000E+00 -0.12245060453E+04  0.12245060453E+04  0.00000000000E+00 0. -1.
         23    2    1    2    0    0 -0.26152683091E+02  0.37444213098E+02 -0.31830760696E+03  0.33457290848E+03  0.92375681406E+02 0.  0.
         23    2    1    2    0    0  0.26152683091E+02 -0.37444213098E+02 -0.89312654785E+03  0.90300502725E+03  0.12512800181E+03 0.  0.
          5    1    4    4  502    0 -0.34276979178E+02 -0.58832286456E+02 -0.50753636603E+03  0.51210036563E+03  0.41800000000E+01 0.  1.
         -5    1    4    4    0  502  0.60429662268E+02  0.21388073359E+02 -0.38559018182E+03  0.39090466162E+03  0.41800000000E+01 0.  1.
        -11    1    3    3    0    0 -0.11734221248E+02 -0.30071587475E+02 -0.74805708487E+02  0.81473224705E+02  0.00000000000E+00 0.  1.
         11    1    3    3    0    0 -0.14418461842E+02  0.67515800573E+02 -0.24350189847E+03  0.25309968377E+03  0.00000000000E+00 0. -1.
</event>
<event>
 8    1  0.2184156E-005  0.1003178E+03  0.7561462E-02  0.1279629E+00
          1   -1    0    0  501    0  0.00000000000E+00  0.00000000000E+00  0.24620741836E+03  0.24620741836E+03  0.00000000000E+00 0. -1.
         -1   -1    0    0    0  501 -0.00000000000E+00 -0.00000000000E+00 -0.51308808042E+02  0.51308808042E+02  0.00000000000E+00 0.  1.
         23    2    1    2    0    0 -0.28390894513E+02  0.78421980277E+01  0.70136986025E+02  0.11840636420E+03  0.90737684090E+02 0.  0.
         23    2    1    2    0    0  0.28390894513E+02 -0.78421980277E+01  0.12476162429E+03  0.17910986220E+03  0.12508931561E+03 0.  0.
          5    1    4    4  502    0  0.67119764912E+02  0.30124096371E+02  0.64507272159E+02  0.97934593405E+02  0.41800000000E+01 0.  1.
         -5    1    4    4    0  502 -0.38728870399E+02 -0.37966294399E+02  0.60254352133E+02  0.81175268793E+02  0.41800000000E+01 0.  1.
        -11    1    3    3    0    0 -0.37399130567E+02  0.30442267982E+02  0.45316412053E+01  0.48435136204E+02  0.00000000000E+00 0.  1.
         11    1    3    3    0    0  0.90082360547E+01 -0.22600069954E+02  0.65605344820E+02  0.69971227999E+02  0.00000000000E+00 0. -1.
</event>
<event>
 8    1  0.2184156E-005  0.5998790E+02  0.7561462E-02  0.1397883E+00
          2   -1    0    0  501    0  0.00000000000E+00  0.00000000000E+00  0.83761271508E+03  0.83761271508E+03  0.00000000000E+00 0. -1.
         -2   -1    0    0    0  501 -0.00000000000E+00 -0.00000000000E+00 -0.17911376564E+02  0.17911376564E+02  0.00000000000E+00 0.  1.
         23    2    1    2    0    0  0.12215131014E+02  0.30453930032E+02  0.18886194799E+03  0.21156497002E+03  0.89522342804E+02 0.  0.
         23    2    1    2    0    0 -0.12215131014E+02 -0.30453930032E+02  0.63083939053E+03  0.64395912162E+03  0.12509341471E+03 0.  0.
          5    1    4    4  502    0 -0.19541470547E+02 -0.95411069180E+01  0.12939111967E+02  0.25647510812E+02  0.41800000000E+01 0.  1.
         -5    1    4    4    0  502  0.73263395326E+01 -0.20912823114E+02  0.61790027856E+03  0.61831161081E+03  0.41800000000E+01 0.  1.
        -11    1    3    3    0    0  0.40212661185E+02  0.22929450717E+02  0.44120539040E+02  0.63948727860E+02  0.00000000000E+00 0.  1.
         11    1    3    3    0    0 -0.27997530171E+02  0.75244793154E+01  0.14474140895E+03  0.14761624216E+03  0.00000000000E+00 0. -1.
</event>
<event>
 8    1  0.2184156E-005  0.7833800E+02  0.7561462E-02  0.1333835E+00
         -2   -1    0    0    0  501 -0.00000000000E+00  0.00000000000E+00  0.17133877829E+03  0.17133877829E+03  0.00000000000E+00 0.  1.
          2   -1    0    0  501    0  0.00000000000E+00 -0.00000000000E+00 -0.94796320417E+02  0.94796320417E+02  0.00000000000E+00 0. -1.
         23    2    1    2    0    0  0.10189728460E+02 -0.74083800179E+01  0.10350976747E+03  0.13755055216E+03  0.89706007469E+02 0.  0.
         23    2    1    2    0    0 -0.10189728460E+02  0.74083800179E+01 -0.26967309598E+02  0.12858454655E+03  0.12509210672E+03 0.  0.
          5    1    4    4  502    0 -0.48391030487E+02  0.29107615993E+02  0.23706172019E+02  0.61387296179E+02  0.41800000000E+01 0.  1.
         -5    1    4    4    0  502  0.38201302027E+02 -0.21699235976E+02 -0.50673481617E+02  0.67197250372E+02  0.41800000000E+01 0.  1.
        -11    1    3    3    0    0  0.32794884271E+02 -0.35531473707E+01  0.15277697138E+01  0.33022164842E+02  0.00000000000E+00 0. -1.
         11    1    3    3    0    0 -0.22605155811E+02 -0.38552326471E+01  0.10198199776E+03  0.10452838731E+03  0.00000000000E+00 0.  1.
</event>
<event>
 8    1  0.2184156E-005  0.8794973E+02  0.7561462E-02  0.1307894E+00
          1   -1    0    0  501    0  0.00000000000E+00  0.00000000000E+00  0.29008428292E+03  0.29008428292E+03  0.00000000000E+00 0. -1.
         -1   -1    0    0    0  501 -0.00000000000E+00 -0.00000000000E+00 -0.41396250877E+02  0.41396250877E+02  0.00000000000E+00 0.  1.
         23    2    1    2    0    0 -0.13791227095E+02 -0.66641286999E+01  0.88309108071E+02  0.12751037489E+03  0.90696133210E+02 0.  0.
         23    2    1    2    0    0  0.13791227095E+02  0.66641286999E+01  0.16037892397E+03  0.20397015891E+03  0.12509123836E+03 0.  0.
          5    1    4    4  502    0 -0.39938196351E+02  0.22228089694E+02  0.13464838632E+03  0.14225613463E+03  0.41800000000E+01 0.  1.
         -5    1    4    4    0  502  0.53729423446E+02 -0.15563960994E+02  0.25730537647E+02  0.61714024284E+02  0.41800000000E+01 0.  1.
        -11    1    3    3    0    0 -0.43515421374E+02 -0.33468119088E+00  0.11653215032E+02  0.45049987009E+02  0.00000000000E+00 0.  1.
         11    1    3    3    0    0  0.29724194279E+02 -0.63294475090E+01  0.76655893039E+02  0.82460387878E+02  0.00000000000E+00 0. -1.
</event>
<event>
 8    1  0.2184156E-005  0.8210651E+02  0.7561462E-02  0.1323178E+00
          2   -1    0    0  501    0  0.00000000000E+00  0.00000000000E+00  0.74339393597E+02  0.74339393597E+02  0.00000000000E+00 0.  1.
         -2   -1    0    0    0  501 -0.00000000000E+00 -0.00000000000E+00 -0.16133378196E+03  0.16133378196E+03  0.00000000000E+00 0. -1.
         23    2    1    2    0    0  0.14121749267E+02 -0.86859881365E+01 -0.32054426585E+02  0.98047571886E+02  0.91164521042E+02 0.  0.
         23    2    1    2    0    0 -0.14121749267E+02  0.86859881365E+01 -0.54939961779E+02  0.13762560367E+03  0.12509011629E+03 0.  0.
          5    1    4    4  502    0 -0.32228613704E+02  0.41739615958E+02 -0.77252675145E+02  0.93628667077E+02  0.41800000000E+01 0. -1.
         -5    1    4    4    0  502  0.18106864437E+02 -0.33053627822E+02  0.22312713366E+02  0.43996936594E+02  0.41800000000E+01 0. -1.
        -11    1    3    3    0    0  0.15101360157E+02  0.30585555240E+02 -0.45196541560E+02  0.56623799210E+02  0.00000000000E+00 0. -1.
         11    1    3    3    0    0 -0.97961089025E+00 -0.39271543377E+02  0.13142114976E+02  0.41423772676E+02  0.00000000000E+00 0.  1.
</event>
<event>
 8    1  0.2184156E-005  0.1197824E+03  0.7561462E-02  0.1243457E+00
          2   -1    0    0  501    0  0.00000000000E+00  0.00000000000E+00  0.11391134758E+04  0.11391134758E+04  0.00000000000E+00 0. -1.
         -2   -1    0    0    0  501 -0.00000000000E+00 -0.00000000000E+00 -0.13738379984E+02  0.13738379984E+02  0.00000000000E+00 0.  1.
         23    2    1    2    0    0 -0.26701086555E+02  0.48018573853E+02  0.35862548327E+03  0.37402477243E+03  0.90904134559E+02 0.  0.
         23    2    1    2    0    0  0.26701086555E+02 -0.48018573853E+02  0.76674961253E+03  0.77882708334E+03  0.12509167028E+03 0.  0.
          5    1    4    4  502    0  0.57291643984E+02 -0.74195655375E+02  0.46485984981E+03  0.47423567993E+03  0.41800000000E+01 0.  1.
         -5    1    4    4    0  502 -0.30590557429E+02  0.26177081522E+02  0.30188976272E+03  0.30459140341E+03  0.41800000000E+01 0.  1.
        -11    1    3    3    0    0  0.33461867670E+02  0.15773450054E+02  0.15105558530E+03  0.15551941411E+03  0.00000000000E+00 0.  1.
         11    1    3    3    0    0 -0.60162954225E+02  0.32245123799E+02  0.20756989797E+03  0.21850535831E+03  0.00000000000E+00 0. -1.
</event>
<event>
 8    1  0.2184156E-005  0.8608471E+02  0.7561462E-02  0.1312620E+00
          2   -1    0    0  501    0  0.00000000000E+00  0.00000000000E+00  0.66165413113E+03  0.66165413113E+03  0.00000000000E+00 0.  1.
         -2   -1    0    0    0  501 -0.00000000000E+00 -0.00000000000E+00 -0.32871156229E+02  0.32871156229E+02  0.00000000000E+00 0. -1.
         23    2    1    2    0    0 -0.39391848404E+02  0.46044089439E+02  0.10498887939E+03  0.15260990979E+03  0.92711077415E+02 0.  0.
         23    2    1    2    0    0  0.39391848404E+02 -0.46044089439E+02  0.52379409551E+03  0.54191537758E+03  0.12506096941E+03 0.  0.
          5    1    4    4  502    0  0.22421802208E+01 -0.65089323979E+02  0.12584468961E+03  0.14176038153E+03  0.41800000000E+01 0. -1.
         -5    1    4    4    0  502  0.37149668184E+02  0.19045234540E+02  0.39794940590E+03  0.40015499605E+03  0.41800000000E+01 0. -1.
        -11    1    3    3    0    0 -0.37195370254E+02  0.27448449020E+02  0.12000955594E+03  0.12860484609E+03  0.00000000000E+00 0.  1.
         11    1    3    3    0    0 -0.21964781499E+01  0.18595640419E+02 -0.15020676547E+02  0.24005063691E+02  0.00000000000E+00 0. -1.
</event>
<event>
 8    1  0.2184156E-005  0.1361971E+03  0.7561462E-02  0.1218540E+00
         -3   -1    0    0    0  501 -0.00000000000E+00  0.00000000000E+00  0.15440384915E+03  0.15440384915E+03  0.00000000000E+00 0.  1.
          3   -1    0    0  501    0  0.00000000000E+00 -0.00000000000E+00 -0.14089325323E+03  0.14089325323E+03  0.00000000000E+00 0. -1.
         23    2    1    2    0    0 -0.93809999515E+02 -0.18486130663E+02  0.31301474497E+02  0.13685236663E+03  0.92772490052E+02 0.  0.
         23    2    1    2    0    0  0.93809999515E+02  0.18486130663E+02 -0.17790878577E+02  0.15844473576E+03  0.12508463492E+03 0.  0.
          5    1    4    4  502    0  0.10830804502E+03 -0.20435699934E+02 -0.31154281418E+02  0.11461375178E+03  0.41800000000E+01 0. -1.
         -5    1    4    4    0  502 -0.14498045502E+02  0.38921830598E+02  0.13363402840E+02  0.43830983972E+02  0.41800000000E+01 0. -1.
        -11    1    3    3    0    0 -0.15511329833E+02 -0.36803701715E+02  0.39313240049E+02  0.56041454801E+02  0.00000000000E+00 0.  1.
         11    1    3    3    0    0 -0.78298669682E+02  0.18317571052E+02 -0.80117655522E+01  0.80810911828E+02  0.00000000000E+00 0. -1.
</event>
<event>
 8    1  0.2184156E-005  0.1210789E+03  0.7561462E-02  0.1241328E+00
         -2   -1    0    0    0  501 -0.00000000000E+00  0.00000000000E+00  0.20950839338E+03  0.20950839338E+03  0.00000000000E+00 0.  1.
          2   -1    0    0  501    0  0.00000000000E+00 -0.00000000000E+00 -0.73984830934E+02  0.73984830934E+02  0.00000000000E+00 0. -1.
         23    2    1    2    0    0 -0.59118970922E+02  0.16084074245E+02  0.64947223477E+02  0.12734528733E+03  0.90801598010E+02 0.  0.
         23    2    1    2    0    0  0.59118970922E+02 -0.16084074245E+02  0.70576338968E+02  0.15614793698E+03  0.12508960162E+03 0.  0.
          5    1    4    4  502    0  0.30018935965E+02 -0.68715039728E+02  0.20694157688E+02  0.77901307844E+02  0.41800000000E+01 0.  1.
         -5    1    4    4    0  502  0.29100034957E+02  0.52630965483E+02  0.49882181280E+02  0.78246629138E+02  0.41800000000E+01 0.  1.
        -11    1    3    3    0    0  0.22921651600E+02  0.82309766423E+01  0.27757357326E+02  0.36927252460E+02  0.00000000000E+00 0.  1.
         11    1    3    3    0    0 -0.82040622522E+02  0.78530976024E+01  0.37189866151E+02  0.90418034872E+02  0.00000000000E+00 0. -1.
</event>
<event>
 8    1  0.2184156E-005  0.1327669E+03  0.7561462E-02  0.1223407E+00
          2   -1    0    0  501    0  0.00000000000E+00  0.00000000000E+00  0.92840573641E+03  0.92840573641E+03  0.00000000000E+00 0. -1.
         -2   -1    0    0    0  501 -0.00000000000E+00 -0.00000000000E+00 -0.31016591010E+02  0.31016591010E+02  0.00000000000E+00 0.  1.
         23    2    1    2    0    0 -0.93908379049E+02  0.14606047361E+01  0.16813320461E+03  0.21358371333E+03  0.92348855359E+02 0.  0.
         23    2    1    2    0    0  0.93908379049E+02 -0.14606047361E+01  0.72925594079E+03  0.74583861409E+03  0.12506036169E+03 0.  0.
          5    1    4    4  502    0  0.12488717197E+03  0.56700087552E+00  0.57122980890E+03  0.58473762850E+03  0.41800000000E+01 0. -1.
         -5    1    4    4    0  502 -0.30978792926E+02 -0.20276056116E+01  0.15802613190E+03  0.16110098559E+03  0.41800000000E+01 0. -1.
        -11    1    3    3    0    0 -0.70506330837E+02 -0.24178375366E+02  0.48285691114E+02  0.88810159834E+02  0.00000000000E+00 0.  1.
         11    1    3    3    0    0 -0.23402048212E+02  0.25638980102E+02  0.11984751350E+03  0.12477355350E+03  0.00000000000E+00 0. -1.
</event>
<event>
 8    1  0.2184156E-005  0.1107902E+03  0.7561462E-02  0.1259113E+00
         -2   -1    0    0    0  501 -0.00000000000E+00  0.00000000000E+00  0.27359104771E+02  0.27359104771E+02  0.00000000000E+00 0.  1.
          2   -1    0    0  501    0  0.00000000000E+00 -0.00000000000E+00 -0.91402509166E+03  0.91402509166E+03  0.00000000000E+00 0. -1.
         23    2    1    2    0    0  0.63737672398E+02  0.67036985413E+02 -0.24771592842E+03  0.28376619101E+03  0.10297388830E+03 0.  0.
         23    2    1    2    0    0 -0.63737672398E+02 -0.67036985413E+02 -0.63895005847E+03  0.65761800542E+03  0.12509122886E+03 0.  0.
          5    1    4    4  502    0 -0.45240878821E+02  0.96888829947E+00 -0.64817681468E+02  0.79161102139E+02  0.41800000000E+01 0. -1.
         -5    1    4    4    0  502 -0.18496793577E+02 -0.68005873713E+02 -0.57413237700E+03  0.57845690328E+03  0.41800000000E+01 0. -1.
        -11    1    3    3    0    0  0.31571356619E+02  0.66218357062E+02 -0.23960394759E+03  0.25058266714E+03  0.00000000000E+00 0. -1.
         11    1    3    3    0    0  0.32166315779E+02  0.81862835088E+00 -0.81119808242E+01  0.33183523864E+02  0.00000000000E+00 0.  1.
</event>
<event>
 8    1  0.2184156E-005  0.9939852E+02  0.7561462E-02  0.1281566E+00
         -1   -1    0    0    0  501 -0.00000000000E+00  0.00000000000E+00  0.74857006719E+02  0.74857006719E+02  0.00000000000E+00 0.  1.
          1   -1    0    0  501    0  0.00000000000E+00 -0.00000000000E+00 -0.25366386939E+03  0.25366386939E+03  0.00000000000E+00 0. -1.
         23    2    1    2    0    0 -0.51021770262E+02  0.33424258755E+02 -0.11544433697E+02  0.11093184829E+03  0.91935841223E+02 0.  0.
         23    2    1    2    0    0  0.51021770262E+02 -0.33424258755E+02 -0.16726242898E+03  0.21758902782E+03  0.12509141764E+03 0.  0.
          5    1    4    4  502    0  0.86885811698E+02 -0.35781769096E+02 -0.15104573890E+03  0.17793753655E+03  0.41800000000E+01 0.  1.
         -5    1    4    4    0  502 -0.35864041436E+02  0.23575103415E+01 -0.16216690081E+02  0.39651491275E+02  0.41800000000E+01 0.  1.
        -11    1    3    3    0    0 -0.60948287227E+01  0.21108349500E+02 -0.47335414238E+02  0.52185733652E+02  0.00000000000E+00 0. -1.
         11    1    3    3    0    0 -0.44926941539E+02  0.12315909254E+02  0.35790980541E+02  0.58746114637E+02  0.00000000000E+00 0.  1.
</event>
<event>
 8    1  0.2184156E-005  0.9474474E+02  0.7561462E-02  0.1291752E+00
          2   -1    0    0  501    0  0.00000000000E+00  0.00000000000E+00  0.14062798572E+04  0.14062798572E+04  0.00000000000E+00 0. -1.
         -2   -1    0    0    0  501 -0.00000000000E+00 -0.00000000000E+00 -0.11965196956E+02  0.11965196956E+02  0.00000000000E+00 0.  1.
         23    2    1    2    0    0  0.10573463061E+02  0.18306812627E+02  0.24636278577E+03  0.26330426653E+03  0.90485231109E+02 0.  0.
         23    2    1    2    0    0 -0.10573463061E+02 -0.18306812627E+02  0.11479518745E+04  0.11549407876E+04  0.12509108407E+03 0.  0.
          5    1    4    4  502    0 -0.99318026687E+01  0.49090222233E+02  0.28892864419E+03  0.29326732593E+03  0.41800000000E+01 0.  1.
         -5    1    4    4    0  502 -0.64166039247E+00 -0.67397034860E+02  0.85902323029E+03  0.86167346171E+03  0.41800000000E+01 0.  1.
        -11    1    3    3    0    0  0.27266196703E+02  0.37435630939E+02  0.22617543058E+03  0.23086835501E+03  0.00000000000E+00 0. -1.
         11    1    3    3    0    0 -0.16692733642E+02 -0.19128818312E+02  0.20187355194E+02  0.32435911521E+02  0.00000000000E+00 0.  1.
</event>
<event>
 8    1  0.2184156E-005  0.2207145E+03  0.7561462E-02  0.1133351E+00
         -2   -1    0    0    0  501 -0.00000000000E+00  0.00000000000E+00  0.69136376033E+02  0.69136376033E+02  0.00000000000E+00 0. -1.
          2   -1    0    0  501    0  0.00000000000E+00 -0.00000000000E+00 -0.77631874366E+03  0.77631874366E+03  0.00000000000E+00 0.  1.
         23    2    1    2    0    0  0.13354241969E+03 -0.14276096216E+03 -0.23436581253E+03  0.31875178628E+03  0.91984221460E+02 0.  0.
         23    2    1    2    0    0 -0.13354241969E+03  0.14276096216E+03 -0.47281655509E+03  0.52670333341E+03  0.12508651602E+03 0.  0.
          5    1    4    4  502    0 -0.61965227865E+02 -0.75714708499E+01 -0.94356877882E+02  0.11321532334E+03  0.41800000000E+01 0. -1.
         -5    1    4    4    0  502 -0.71577191823E+02  0.15033243301E+03 -0.37845967721E+03  0.41348801007E+03  0.41800000000E+01 0. -1.
        -11    1    3    3    0    0  0.36419262682E+02  0.36610387908E+01 -0.65621321240E+02  0.75139361859E+02  0.00000000000E+00 0. -1.
         11    1    3    3    0    0  0.97123157006E+02 -0.14642200095E+03 -0.16874449129E+03  0.24361242442E+03  0.00000000000E+00 0.  1.
</event>
<event>
 8    1  0.2184156E-005  0.1639486E+03  0.7561462E-02  0.1184310E+00
         -2   -1    0    0    0  501 -0.00000000000E+00  0.00000000000E+00  0.87951387655E+02  0.87951387655E+02  0.00000000000E+00 0.  1.
          2   -1    0    0  501    0  0.00000000000E+00 -0.00000000000E+00 -0.30679302432E+03  0.30679302432E+03  0.00000000000E+00 0. -1.
         23    2    1    2    0    0  0.10116367927E+03  0.69888335462E+02 -0.10739546608E+03  0.18693074120E+03  0.91054085203E+02 0.  0.
         23    2    1    2    0    0 -0.10116367927E+03 -0.69888335462E+02 -0.11144617058E+03  0.20781367077E+03  0.12509118029E+03 0.  0.
          5    1    4    4  502    0  0.15304037400E+02 -0.55534086865E+02 -0.31853991208E+02  0.65957543318E+02  0.41800000000E+01 0. -1.
         -5    1    4    4    0  502 -0.11646771667E+03 -0.14354248596E+02 -0.79592179371E+02  0.14185612746E+03  0.41800000000E+01 0. -1.
        -11    1    3    3    0    0 -0.17249832027E+02  0.67497228228E+01 -0.94580639476E+01  0.20798327740E+02  0.00000000000E+00 0. -1.
         11    1    3    3    0    0  0.11841351130E+03  0.63138612639E+02 -0.97937402135E+02  0.16613241346E+03  0.00000000000E+00 0.  1.
</event>
<event>
 8    1  0.2184156E-005  0.9117885E+02  0.7561462E-02  0.1300022E+00
         -2   -1    0    0    0  501 -0.00000000000E+00  0.00000000000E+00  0.13130464070E+02  0.13130464070E+02  0.00000000000E+00 0.  1.
          2   -1    0    0  501    0  0.00000000000E+00 -0.00000000000E+00 -0.97720780000E+03  0.97720780000E+03  0.00000000000E+00 0. -1.
         23    2    1    2    0    0  0.83711741583E+01 -0.29479283685E+02 -0.34472326435E+03  0.35773547592E+03  0.90561785699E+02 0.  0.
         23    2    1    2    0    0 -0.83711741583E+01  0.29479283685E+02 -0.61935407158E+03  0.63260278815E+03  0.12509083444E+03 0.  0.
          5    1    4    4  502    0  0.15615795219E+02  0.51649743771E+02 -0.57404884462E+03  0.57659439600E+03  0.41800000000E+01 0.  1.
         -5    1    4    4    0  502 -0.23986969378E+02 -0.22170460086E+02 -0.45305226963E+02  0.56008392144E+02  0.41800000000E+01 0.  1.
        -11    1    3    3    0    0  0.23595740754E+02 -0.58199838743E+02 -0.24020945563E+03  0.24828323098E+03  0.00000000000E+00 0.  1.
         11    1    3    3    0    0 -0.15224566595E+02  0.28720555058E+02 -0.10451380872E+03  0.10945224495E+03  0.00000000000E+00 0. -1.
</event>
<event>
 8    1  0.2184156E-005  0.1053895E+03  0.7561462E-02  0.1269354E+00
          1   -1    0    0  501    0  0.00000000000E+00  0.00000000000E+00  0.32873102112E+03  0.32873102112E+03  0.00000000000E+00 0. -1.
         -1   -1    0    0    0  501 -0.00000000000E+00 -0.00000000000E+00 -0.44022369043E+02  0.44022369043E+02  0.00000000000E+00 0.  1.
         23    2    1    2    0    0  0.25060756946E+02 -0.67137651088E+01  0.53613312036E+02  0.10870056115E+03  0.90930240217E+02 0.  0.
         23    2    1    2    0    0 -0.25060756946E+02  0.67137651088E+01  0.23109534005E+03  0.26405282902E+03  0.12508286910E+03 0.  0.
          5    1    4    4  502    0 -0.43911483953E+02 -0.50282063086E+02  0.10800122525E+03  0.12703637805E+03  0.41800000000E+01 0.  1.
         -5    1    4    4    0  502  0.18850727008E+02  0.56995828195E+02  0.12309411479E+03  0.13701645097E+03  0.41800000000E+01 0.  1.
        -11    1    3    3    0    0 -0.63438089926E+01 -0.38506486197E+02  0.15735461385E+00  0.39025865169E+02  0.00000000000E+00 0.  1.
         11    1    3    3    0    0  0.31404565938E+02  0.31792721088E+02  0.53455957422E+02  0.69674695980E+02  0.00000000000E+00 0. -1.
</event>
<event>
 8    1  0.2184156E-005  0.1032884E+03  0.7561462E-02  0.1273529E+00
         -1   -1    0    0    0  501 -0.00000000000E+00  0.00000000000E+00  0.49123461150E+02  0.49123461150E+02  0.00000000000E+00 0.  1.
          1   -1    0    0  501    0  0.00000000000E+00 -0.00000000000E+00 -0.31321402329E+03  0.31321402329E+03  0.00000000000E+00 0. -1.
         23    2    1    2    0    0 -0.44981091752E+02 -0.42766094645E+02 -0.10479729910E+03  0.15050383273E+03  0.88412059693E+02 0.  0.
         23    2    1    2    0    0  0.44981091752E+02  0.42766094645E+02 -0.15929326304E+03  0.21183365172E+03  0.12508762882E+03 0.  0.
          5    1    4    4  502    0 -0.23961289505E+02  0.10171686838E+02 -0.12563644408E+03  0.12837287520E+03  0.41800000000E+01 0. -1.
         -5    1    4    4    0  502  0.68942381257E+02  0.32594407807E+02 -0.33656818963E+02  0.83460776514E+02  0.41800000000E+01 0. -1.
        -11    1    3    3    0    0  0.23947844047E+02 -0.26702168999E+01 -0.44228830233E+02  0.50366841439E+02  0.00000000000E+00 0.  1.
         11    1    3    3    0    0 -0.68928935798E+02 -0.40095877745E+02 -0.60568468871E+02  0.10013699129E+03  0.00000000000E+00 0. -1.
</event>
<event>
 8    1  0.2184156E-005  0.1099393E+03  0.7561462E-02  0.1260682E+00
          2   -1    0    0  501    0  0.00000000000E+00  0.00000000000E+00  0.51886080731E+03  0.51886080731E+03  0.00000000000E+00 0. -1.
         -2   -1    0    0    0  501 -0.00000000000E+00 -0.00000000000E+00 -0.49984176744E+02  0.49984176744E+02  0.00000000000E+00 0.  1.
         23    2    1    2    0    0  0.18801075039E+02  0.10250573296E+03  0.11624384419E+03  0.18044208547E+03  0.90475461780E+02 0.  0.
         23    2    1    2    0    0 -0.18801075039E+02 -0.10250573296E+03  0.35263278637E+03  0.38840289858E+03  0.12508406728E+03 0.  0.
          5    1    4    4  502    0 -0.32350502004E+02 -0.66572963761E+02  0.66240836495E+02  0.99417479869E+02  0.41800000000E+01 0. -1.
         -5    1    4    4    0  502  0.13549426966E+02 -0.35932769201E+02  0.28639194988E+03  0.28898541871E+03  0.41800000000E+01 0. -1.
        -11    1    3    3    0    0  0.98307997823E+01  0.94742798725E+02  0.13070977837E+03  0.16173400600E+03  0.00000000000E+00 0. -1.
         11    1    3    3    0    0  0.89702752562E+01  0.77629342372E+01 -0.14465934175E+02  0.18708079476E+02  0.00000000000E+00 0.  1.
</event>
<event>
 8    1  0.2184156E-005  0.1193541E+03  0.7561462E-02  0.1244166E+00
          3   -1    0    0  501    0  0.00000000000E+00  0.00000000000E+00  0.76202236055E+02  0.76202236055E+02  0.00000000000E+00 0. -1.
         -3   -1    0    0    0  501 -0.00000000000E+00 -0.00000000000E+00 -0.34256069698E+03  0.34256069698E+03  0.00000000000E+00 0.  1.
         23    2    1    2    0    0 -0.71595553431E+02 -0.23063980438E+02 -0.24407364418E+03  0.27110732843E+03  0.90936072481E+02 0.  0.
         23    2    1    2    0    0  0.71595553431E+02  0.23063980438E+02 -0.22284816741E+02  0.14765560461E+03  0.12509074326E+03 0.  0.
          5    1    4    4  502    0  0.39293795262E+01 -0.47612922562E+02 -0.94957169679E+01  0.48888357091E+02  0.41800000000E+01 0. -1.
         -5    1    4    4    0  502  0.67666173905E+02  0.70676903000E+02 -0.12789099773E+02  0.98767247515E+02  0.41800000000E+01 0. -1.
        -11    1    3    3    0    0 -0.30263386781E+02  0.17453627370E+02 -0.21253821130E+02  0.40892867355E+02  0.00000000000E+00 0. -1.
         11    1    3    3    0    0 -0.41332166650E+02 -0.40517607809E+02 -0.22281982305E+03  0.23021446107E+03  0.00000000000E+00 0.  1.
</event>
<event>
 8    1  0.2184156E-005  0.9982127E+02  0.7561462E-02  0.1280672E+00
         -1   -1    0    0    0  501 -0.00000000000E+00  0.00000000000E+00  0.20137751086E+03  0.20137751086E+03  0.00000000000E+00 0.  1.
          1   -1    0    0  501    0  0.00000000000E+00 -0.00000000000E+00 -0.98549053351E+02  0.98549053351E+02  0.00000000000E+00 0. -1.
         23    2    1    2    0    0  0.65221577069E+02 -0.39988126472E+01  0.11015950533E+03  0.15860689197E+03  0.93547768266E+02 0.  0.
         23    2    1    2    0    0 -0.65221577069E+02  0.39988126472E+01 -0.73310478170E+01  0.14131967225E+03  0.12509061069E+03 0.  0.
          5    1    4    4  502    0 -0.34158204349E+02 -0.31230023322E+02 -0.56525563577E+02  0.73175877301E+02  0.41800000000E+01 0.  1.
         -5    1    4    4    0  502 -0.31063372721E+02  0.35228835970E+02  0.49194515761E+02  0.68143794945E+02  0.41800000000E+01 0.  1.
        -11    1    3    3    0    0  0.24488309732E+02 -0.43089314379E+02  0.81266110153E+02  0.95186905542E+02  0.00000000000E+00 0.  1.
         11    1    3    3    0    0  0.40733267338E+02  0.39090501732E+02  0.28893395177E+02  0.63419986428E+02  0.00000000000E+00 0. -1.
</event>
<event>
 8    1  0.2184156E-005  0.8547756E+02  0.7561462E-02  0.1314188E+00
         -1   -1    0    0    0  501 -0.00000000000E+00  0.00000000000E+00  0.10727981555E+03  0.10727981555E+03  0.00000000000E+00 0.  1.
          1   -1    0    0  501    0  0.00000000000E+00 -0.00000000000E+00 -0.27972797973E+03  0.27972797973E+03  0.00000000000E+00 0. -1.
         23    2    1    2    0    0  0.33741772429E+02 -0.96102557783E+01  0.61750483909E+02  0.11918875439E+03  0.95718194133E+02 0.  0.
         23    2    1    2    0    0 -0.33741772429E+02  0.96102557783E+01 -0.23419864809E+03  0.26781904088E+03  0.12508863924E+03 0.  0.
          5    1    4    4  502    0 -0.15046002753E+02 -0.44770970743E+02 -0.18814241898E+03  0.19402542163E+03  0.41800000000E+01 0. -1.
         -5    1    4    4    0  502 -0.18695769677E+02  0.54381226521E+02 -0.46056229109E+02  0.73793619246E+02  0.41800000000E+01 0. -1.
        -11    1    3    3    0    0 -0.80767583749E+01  0.15232231839E+02 -0.18537558156E+02  0.25315923349E+02  0.00000000000E+00 0. -1.
         11    1    3    3    0    0  0.41818530804E+02 -0.24842487618E+02  0.80288042064E+02  0.93872831044E+02  0.00000000000E+00 0.  1.
</event>
<event>
 8    1  0.2184156E-005  0.8912702E+02  0.7561462E-02  0.1304980E+00
         -1   -1    0    0    0  501 -0.00000000000E+00  0.00000000000E+00  0.76628440450E+02  0.76628440450E+02  0.00000000000E+00 0.  1.
          1   -1    0    0  501    0  0.00000000000E+00 -0.00000000000E+00 -0.19217556112E+03  0.19217556112E+03  0.00000000000E+00 0. -1.
         23    2    1    2    0    0 -0.25097071014E+02 -0.43543386362E+02 -0.24036216568E+02  0.10586983728E+03  0.90026625338E+02 0.  0.
         23    2    1    2    0    0  0.25097071014E+02  0.43543386362E+02 -0.91510904097E+02  0.16293416428E+03  0.12508959530E+03 0.  0.
          5    1    4    4  502    0  0.54811449384E+02  0.67699784083E+02 -0.33758162984E+02  0.93512789054E+02  0.41800000000E+01 0.  1.
         -5    1    4    4    0  502 -0.29714378370E+02 -0.24156397721E+02 -0.57752741113E+02  0.69421375230E+02  0.41800000000E+01 0.  1.
        -11    1    3    3    0    0 -0.44973725288E+01 -0.22989179952E+02 -0.57163099114E+02  0.61776602811E+02  0.00000000000E+00 0. -1.
         11    1    3    3    0    0 -0.20599698485E+02 -0.20554206410E+02  0.33126882546E+02  0.44093234470E+02  0.00000000000E+00 0.  1.
</event>
<event>
 8    1  0.2184156E-005  0.7608866E+02  0.7561462E-02  0.1340533E+00
          1   -1    0    0  501    0  0.00000000000E+00  0.00000000000E+00  0.68292391290E+02  0.68292391290E+02  0.00000000000E+00 0. -1.
         -1   -1    0    0    0  501 -0.00000000000E+00 -0.00000000000E+00 -0.18700627961E+03  0.18700627961E+03  0.00000000000E+00 0.  1.
         23    2    1    2    0    0  0.22467547891E+02  0.23617079786E+02 -0.52133510637E+02  0.10989001467E+03  0.91078840723E+02 0.  0.
         23    2    1    2    0    0 -0.22467547891E+02 -0.23617079786E+02 -0.66580377688E+02  0.14540865623E+03  0.12509265945E+03 0.  0.
          5    1    4    4  502    0  0.42709575920E+01  0.12550760490E+02  0.33138195338E+02  0.35935707282E+02  0.41800000000E+01 0. -1.
         -5    1    4    4    0  502 -0.26738505483E+02 -0.36167840276E+02 -0.99718573026E+02  0.10947294895E+03  0.41800000000E+01 0. -1.
        -11    1    3    3    0    0 -0.18646204651E+02 -0.23871594156E+02 -0.35856720276E+01  0.30502311377E+02  0.00000000000E+00 0. -1.
         11    1    3    3    0    0  0.41113752542E+02  0.47488673942E+02 -0.48547838609E+02  0.79387703295E+02  0.00000000000E+00 0.  1.
</event>
<event>
 8    1  0.2184156E-005  0.1253173E+03  0.7561462E-02  0.1234574E+00
          1   -1    0    0  501    0  0.00000000000E+00  0.00000000000E+00  0.16407343557E+03  0.16407343557E+03  0.00000000000E+00 0. -1.
         -1   -1    0    0    0  501 -0.00000000000E+00 -0.00000000000E+00 -0.11832495390E+03  0.11832495390E+03  0.00000000000E+00 0.  1.
         23    2    1    2    0    0 -0.67291915727E+02  0.22302717563E+02 -0.29208039005E+02  0.12025087246E+03  0.92636653931E+02 0.  0.
         23    2    1    2    0    0  0.67291915727E+02 -0.22302717563E+02  0.74956520671E+02  0.16214751701E+03  0.12509086357E+03 0.  0.
          5    1    4    4  502    0 -0.22852920563E+02 -0.42312696854E+02  0.42091384878E+02  0.64045119831E+02  0.41800000000E+01 0. -1.
         -5    1    4    4    0  502  0.90144836290E+02  0.20009979291E+02  0.32865135793E+02  0.98102397176E+02  0.41800000000E+01 0. -1.
        -11    1    3    3    0    0 -0.77221279392E+01  0.45390337171E+02  0.73770620717E+01  0.46629765314E+02  0.00000000000E+00 0. -1.
         11    1    3    3    0    0 -0.59569787788E+02 -0.23087619608E+02 -0.36585101077E+02  0.73621107144E+02  0.00000000000E+00 0.  1.
</event>
<event>
 8    1  0.2184156E-005  0.1475328E+03  0.7561462E-02  0.1203538E+00
         -2   -1    0    0    0  501 -0.00000000000E+00  0.00000000000E+00  0.32604667028E+02  0.32604667028E+02  0.00000000000E+00 0.  1.
          2   -1    0    0  501    0  0.00000000000E+00 -0.00000000000E+00 -0.79273820782E+03  0.79273820782E+03  0.00000000000E+00 0. -1.
         23    2    1    2    0    0  0.21934887479E+02 -0.11162460894E+03 -0.25011598560E+03  0.28802840491E+03  0.86378024818E+02 0.  0.
         23    2    1    2    0    0 -0.21934887479E+02  0.11162460894E+03 -0.51001755519E+03  0.53731446994E+03  0.12509092849E+03 0.  0.
          5    1    4    4  502    0 -0.18628282131E+02  0.13934767133E+03 -0.41453679904E+03  0.43774766311E+03  0.41800000000E+01 0. -1.
         -5    1    4    4    0  502 -0.33066053477E+01 -0.27723062382E+02 -0.95480756148E+02  0.99566806825E+02  0.41800000000E+01 0. -1.
        -11    1    3    3    0    0  0.34880054711E+02 -0.38610316856E+02 -0.17461589398E+03  0.18220341713E+03  0.00000000000E+00 0. -1.
         11    1    3    3    0    0 -0.12945167232E+02 -0.73014292087E+02 -0.75500091629E+02  0.10582498779E+03  0.00000000000E+00 0.  1.
</event>
<event>
 8    1  0.2184156E-005  0.1405617E+03  0.7561462E-02  0.1212575E+00
          2   -1    0    0  501    0  0.00000000000E+00  0.00000000000E+00  0.70080193030E+03  0.70080193030E+03  0.00000000000E+00 0.  1.
         -2   -1    0    0    0  501 -0.00000000000E+00 -0.00000000000E+00 -0.46730536995E+02  0.46730536995E+02  0.00000000000E+00 0. -1.
         23    2    1    2    0    0  0.49271248819E+02  0.12347605055E+03  0.19490497021E+03  0.25341003424E+03  0.92491659198E+02 0.  0.
         23    2    1    2    0    0 -0.49271248819E+02 -0.12347605055E+03  0.45916642310E+03  0.49412243306E+03  0.12509669751E+03 0.  0.
          5    1    4    4  502    0 -0.41289139622E+02 -0.85742868137E+02  0.44120659475E+03  0.45137275520E+03  0.41800000000E+01 0.  1.
         -5    1    4    4    0  502 -0.79821091974E+01 -0.37733182417E+02  0.17959828350E+02  0.42749677857E+02  0.41800000000E+01 0.  1.
        -11    1    3    3    0    0  0.29544392267E+02  0.89667330240E+01  0.57343094463E+01  0.31403116412E+02  0.00000000000E+00 0. -1.
         11    1    3    3    0    0  0.19726856552E+02  0.11450931753E+03  0.18917066076E+03  0.22200691783E+03  0.00000000000E+00 0.  1.
</event>
<event>
 7    1  0.2184156E-005  0.1357059E+03  0.7561462E-02  0.1219227E+00
          1   -1    0    0  501    0  0.00000000000E+00  0.00000000000E+00  0.11925271171E+03  0.11925271171E+03  0.00000000000E+00 0. -1.
         -1   -1    0    0    0  501 -0.00000000000E+00 -0.00000000000E+00 -0.17354995224E+03  0.17354995224E+03  0.00000000000E+00 0.  1.
         23    2    1    2    0    0 -0.59871523076E+02  0.18917077637E+02 -0.62228229844E+02  0.12707106767E+03  0.91281151110E+02 0.  0.
          5    1    1    2  502    0  0.72387402813E+02  0.54356053135E+02  0.10561033596E+02  0.91233351517E+02  0.41800000000E+01 0. -1.
         -5    1    1    2    0  502 -0.12515879737E+02 -0.73273130772E+02 -0.26300442836E+01  0.74498244755E+02  0.41800000000E+01 0.  1.
        -11    1    3    3    0    0 -0.64966685145E+02  0.45472953795E+02 -0.60921171138E+02  0.99999243989E+02  0.00000000000E+00 0.  1.
         11    1    3    3    0    0  0.50951620691E+01 -0.26555876158E+02 -0.13070587058E+01  0.27071823682E+02  0.00000000000E+00 0. -1.
</event>
<event>
 8    1  0.2184156E-005  0.1221544E+03  0.7561462E-02  0.1239585E+00
          3   -1    0    0  501    0  0.00000000000E+00  0.00000000000E+00  0.91791978551E+03  0.91791978551E+03  0.00000000000E+00 0. -1.
         -3   -1    0    0    0  501 -0.00000000000E+00 -0.00000000000E+00 -0.21022456238E+02  0.21022456238E+02  0.00000000000E+00 0.  1.
         23    2    1    2    0    0  0.49793335257E+02 -0.97123092172E+01  0.36573924964E+03  0.39089741357E+03  0.12830387376E+03 0.  0.
         23    2    1    2    0    0 -0.49793335257E+02  0.97123092172E+01  0.53115807964E+03  0.54804482818E+03  0.12510205013E+03 0.  0.
          5    1    4    4  502    0 -0.73933337613E+02  0.35673840745E+02  0.22013644715E+03  0.23498146541E+03  0.41800000000E+01 0.  1.
         -5    1    4    4    0  502  0.24140002356E+02 -0.25961531527E+02  0.31102163249E+03  0.31306336277E+03  0.41800000000E+01 0.  1.
        -11    1    3    3    0    0  0.86666603428E+02  0.47775651903E+01  0.31373993287E+03  0.32552522292E+03  0.00000000000E+00 0. -1.
         11    1    3    3    0    0 -0.36873268171E+02 -0.14489874408E+02  0.51999316768E+02  0.65372190649E+02  0.00000000000E+00 0.  1.
</event>
<event>
 8    1  0.2184156E-005  0.2231524E+03  0.7561462E-02  0.1131554E+00
          2   -1    0    0  501    0  0.00000000000E+00  0.00000000000E+00  0.14194324030E+04  0.14194324030E+04  0.00000000000E+00 0. -1.
         -2   -1    0    0    0  501 -0.00000000000E+00 -0.00000000000E+00 -0.42123338341E+02  0.42123338341E+02  0.00000000000E+00 0.  1.
         23    2    1    2    0    0  0.17483849853E+03 -0.10661386202E+03  0.42127570712E+03  0.47587086577E+03  0.83933564993E+02 0.  0.
         23    2    1    2    0    0 -0.17483849853E+03  0.10661386202E+03  0.95603335752E+03  0.98568487556E+03  0.12505949409E+03 0.  0.
          5    1    4    4  502    0 -0.13197881683E+02 -0.26601799405E+02  0.10092118220E+03  0.10528246402E+03  0.41800000000E+01 0.  1.
         -5    1    4    4    0  502 -0.16164061685E+03  0.13321566143E+03  0.85511217532E+03  0.88040241154E+03  0.41800000000E+01 0.  1.
        -11    1    3    3    0    0  0.14505088695E+03 -0.74693837316E+02  0.24561355064E+03  0.29486428301E+03  0.00000000000E+00 0.  1.
         11    1    3    3    0    0  0.29787611576E+02 -0.31920024708E+02  0.17566215648E+03  0.18100658276E+03  0.00000000000E+00 0. -1.
</event>
<event>
 8    1  0.4223733E-005  0.2937880E+03  0.7561462E-02  0.1088388E+00
          2   -1    0    0  501    0  0.00000000000E+00  0.00000000000E+00  0.23989438872E+04  0.23989438872E+04  0.00000000000E+00 0.  1.
         -2   -1    0    0    0  501 -0.00000000000E+00 -0.00000000000E+00 -0.37278247035E+02  0.37278247035E+02  0.00000000000E+00 0. -1.
         23    2    1    2    0    0 -0.21042521449E+03 -0.18057432740E+03  0.12267977489E+04  0.12612927481E+04  0.94555914564E+02 0.  0.
         23    2    1    2    0    0  0.21042521449E+03  0.18057432740E+03  0.11348678913E+04  0.11749293862E+04  0.12509225908E+03 0.  0.
          5    1    4    4  502    0  0.26017890295E+02  0.95676069891E+02  0.31336018497E+03  0.32869882703E+03  0.41800000000E+01 0. -1.
         -5    1    4    4    0  502  0.18440732419E+03  0.84898257509E+02  0.82150770631E+03  0.84623055917E+03  0.41800000000E+01 0. -1.
        -11    1    3    3    0    0 -0.10747981001E+03 -0.48736326438E+02  0.65437595158E+03  0.66493234625E+03  0.00000000000E+00 0.  1.
         11    1    3    3    0    0 -0.10294540448E+03 -0.13183800096E+03  0.57242179734E+03  0.59636040183E+03  0.00000000000E+00 0. -1.
</event>
<event>
 8    1  0.2184156E-005  0.1008078E+03  0.7561462E-02  0.1278606E+00
          2   -1    0    0  501    0  0.00000000000E+00  0.00000000000E+00  0.70769531817E+02  0.70769531817E+02  0.00000000000E+00 0. -1.
         -2   -1    0    0    0  501 -0.00000000000E+00 -0.00000000000E+00 -0.23950005462E+03  0.23950005462E+03  0.00000000000E+00 0.  1.
         23    2    1    2    0    0  0.27817576899E+01 -0.31099513578E+02 -0.15132105435E+03  0.18017005763E+03  0.92672920822E+02 0.  0.
         23    2    1    2    0    0 -0.27817576899E+01  0.31099513578E+02 -0.17409468443E+02  0.13009952881E+03  0.12509148605E+03 0.  0.
          5    1    4    4  502    0  0.36797597867E+02 -0.29723571662E+02  0.15988665375E+02  0.50106523943E+02  0.41800000000E+01 0. -1.
         -5    1    4    4    0  502 -0.39579355557E+02  0.60823085240E+02 -0.33398133818E+02  0.79993004863E+02  0.41800000000E+01 0. -1.
        -11    1    3    3    0    0 -0.14527291010E+02 -0.52180240700E+02 -0.14093181594E+03  0.15098210639E+03  0.00000000000E+00 0.  1.
         11    1    3    3    0    0  0.17309048700E+02  0.21080727122E+02 -0.10389238411E+02  0.29187951241E+02  0.00000000000E+00 0. -1.
</event>
<event>
 8    1  0.2184156E-005  0.1103878E+03  0.7561462E-02  0.1259853E+00
         -1   -1    0    0    0  501 -0.00000000000E+00  0.00000000000E+00  0.32088766224E+02  0.32088766224E+02  0.00000000000E+00 0.  1.
          1   -1    0    0  501    0  0.00000000000E+00 -0.00000000000E+00 -0.52392904030E+03  0.52392904030E+03  0.00000000000E+00 0. -1.
         23    2    1    2    0    0 -0.66284490473E+02 -0.19311219423E+02 -0.28838290148E+03  0.31055255552E+03  0.92258522634E+02 0.  0.
         23    2    1    2    0    0  0.66284490473E+02  0.19311219423E+02 -0.20345737260E+03  0.24546525101E+03  0.11870859327E+03 0.  0.
          5    1    4    4  502    0 -0.15746575147E+02  0.28255970627E+02 -0.13280968979E+03  0.13675613553E+03  0.41800000000E+01 0. -1.
         -5    1    4    4    0  502  0.82031065620E+02 -0.89447512037E+01 -0.70647682809E+02  0.10870911547E+03  0.41800000000E+01 0.  1.
        -11    1    3    3    0    0 -0.55427165344E+02 -0.48964678900E+02 -0.25073159361E+03  0.26141163415E+03  0.00000000000E+00 0. -1.
         11    1    3    3    0    0 -0.10857325129E+02  0.29653459477E+02 -0.37651307876E+02  0.49140921365E+02  0.00000000000E+00 0.  1.
</event>
<event>
 8    1  0.2540132E-005  0.1511988E+03  0.7561462E-02  0.1199008E+00
         -2   -1    0    0    0  501 -0.00000000000E+00  0.00000000000E+00  0.69132463988E+02  0.69132463988E+02  0.00000000000E+00 0.  1.
          2   -1    0    0  501    0  0.00000000000E+00 -0.00000000000E+00 -0.38309673903E+03  0.38309673903E+03  0.00000000000E+00 0. -1.
         23    2    1    2    0    0 -0.64776180290E+02 -0.10105854842E+03 -0.13484273737E+03  0.20294864603E+03  0.92718959019E+02 0.  0.
         23    2    1    2    0    0  0.64776180290E+02  0.10105854842E+03 -0.17912153766E+03  0.24928055698E+03  0.12508991603E+03 0.  0.
          5    1    4    4  502    0 -0.13652634016E+02 -0.19796344962E+02 -0.83118102806E+01  0.25784652016E+02  0.41800000000E+01 0.  1.
         -5    1    4    4    0  502  0.78428814305E+02  0.12085489338E+03 -0.17080972738E+03  0.22349590497E+03  0.41800000000E+01 0.  1.
        -11    1    3    3    0    0 -0.64300627632E+02 -0.46638639732E+02 -0.30164098767E+02  0.84968266337E+02  0.00000000000E+00 0.  1.
         11    1    3    3    0    0 -0.47555265752E+00 -0.54419908689E+02 -0.10467863861E+03  0.11798037970E+03  0.00000000000E+00 0. -1.
</event>
<event>
 8    1  0.2184156E-005  0.1253516E+03  0.7561462E-02  0.1234521E+00
          2   -1    0    0  501    0  0.00000000000E+00  0.00000000000E+00  0.17178219988E+04  0.17178219988E+04  0.00000000000E+00 0. -1.
         -2   -1    0    0    0  501 -0.00000000000E+00 -0.00000000000E+00 -0.35378933177E+02  0.35378933177E+02  0.00000000000E+00 0.  1.
         23    2    1    2    0    0 -0.97897877927E+02  0.50549770971E+02  0.12981134784E+03  0.19167481702E+03  0.88028265931E+02 0.  0.
         23    2    1    2    0    0  0.97897877927E+02 -0.50549770971E+02  0.15526317178E+04  0.15615261149E+04  0.12473685416E+03 0.  0.
          5    1    4    4  502    0  0.40740126090E+02 -0.61276176263E+02  0.13067183350E+04  0.13087951738E+04  0.41800000000E+01 0. -1.
         -5    1    4    4    0  502  0.57157751837E+02  0.10726405292E+02  0.24591338280E+03  0.25273094114E+03  0.41800000000E+01 0.  1.
        -11    1    3    3    0    0 -0.14541406291E+02  0.29243078071E+02  0.92132026412E+02  0.97749273158E+02  0.00000000000E+00 0. -1.
         11    1    3    3    0    0 -0.83356471636E+02  0.21306692900E+02  0.37679321425E+02  0.93925543858E+02  0.00000000000E+00 0.  1.
</event>
<event>
 8    1  0.2184156E-005  0.1443519E+03  0.7561462E-02  0.1207590E+00
          1   -1    0    0  501    0  0.00000000000E+00  0.00000000000E+00  0.76197394217E+03  0.76197394217E+03  0.00000000000E+00 0. -1.
         -1   -1    0    0    0  501 -0.00000000000E+00 -0.00000000000E+00 -0.50015421050E+02  0.50015421050E+02  0.00000000000E+00 0.  1.
         23    2    1    2    0    0  0.12979925765E+03 -0.60459105574E+02  0.18204160515E+03  0.24899474952E+03  0.91411643398E+02 0.  0.
         23    2    1    2    0    0 -0.12979925765E+03  0.60459105574E+02  0.52991691597E+03  0.56299461371E+03  0.12509135260E+03 0.  0.
          5    1    4    4  502    0 -0.40973874532E+02  0.13035729222E+02  0.37941803611E+03  0.38186948969E+03  0.41800000000E+01 0.  1.
         -5    1    4    4    0  502 -0.88825383114E+02  0.47423376351E+02  0.15049887986E+03  0.18112512402E+03  0.41800000000E+01 0.  1.
        -11    1    3    3    0    0  0.14294986509E+02  0.12562013854E+00 -0.95709466033E+01  0.17203646085E+02  0.00000000000E+00 0. -1.
         11    1    3    3    0    0  0.11550427114E+03 -0.60584725712E+02  0.19161255175E+03  0.23179110343E+03  0.00000000000E+00 0.  1.
</event>
<event>
 8    1  0.2184156E-005  0.1273830E+03  0.7561462E-02  0.1231391E+00
          2   -1    0    0  501    0  0.00000000000E+00  0.00000000000E+00  0.40834673006E+03  0.40834673006E+03  0.00000000000E+00 0. -1.
         -2   -1    0    0    0  501 -0.00000000000E+00 -0.00000000000E+00 -0.53137845393E+02  0.53137845393E+02  0.00000000000E+00 0.  1.
         23    2    1    2    0    0 -0.38559006615E+02 -0.69650768687E+02  0.69458477637E+02  0.13955382009E+03  0.91174349550E+02 0.  0.
         23    2    1    2    0    0  0.38559006615E+02  0.69650768687E+02  0.28575040703E+03  0.32193075537E+03  0.12509232415E+03 0.  0.
          5    1    4    4  502    0  0.56399493287E+02  0.90772192054E+02  0.15559854200E+03  0.18880908973E+03  0.41800000000E+01 0.  1.
         -5    1    4    4    0  502 -0.17840486672E+02 -0.21121423367E+02  0.13015186503E+03  0.13312166563E+03  0.41800000000E+01 0.  1.
        -11    1    3    3    0    0  0.28542304319E+02 -0.32128981283E+02  0.15747191638E+02  0.45770171713E+02  0.00000000000E+00 0.  1.
         11    1    3    3    0    0 -0.67101310934E+02 -0.37521787404E+02  0.53711285998E+02  0.93783648376E+02  0.00000000000E+00 0. -1.
</event>
<event>
 8    1  0.2184156E-005  0.1727048E+03  0.7561462E-02  0.1175056E+00
          2   -1    0    0  501    0  0.00000000000E+00  0.00000000000E+00  0.31810002312E+03  0.31810002312E+03  0.00000000000E+00 0.  1.
         -2   -1    0    0    0  501 -0.00000000000E+00 -0.00000000000E+00 -0.11598089594E+03  0.11598089594E+03  0.00000000000E+00 0. -1.
         23    2    1    2    0    0  0.14770625560E+03  0.17959321792E+02  0.35145424824E+02  0.17782495769E+03  0.90812111024E+02 0.  0.
         23    2    1    2    0    0 -0.14770625560E+03 -0.17959321792E+02  0.16697370235E+03  0.25625596137E+03  0.12508886952E+03 0.  0.
          5    1    4    4  502    0 -0.11404227109E+03 -0.63121001361E+02  0.81430051367E+02  0.15374727989E+03  0.41800000000E+01 0.  1.
         -5    1    4    4    0  502 -0.33663984512E+02  0.45161679569E+02  0.85543650986E+02  0.10250868148E+03  0.41800000000E+01 0.  1.
        -11    1    3    3    0    0  0.14135370808E+03  0.30363575572E+02  0.54039399729E+02  0.15434725211E+03  0.00000000000E+00 0.  1.
         11    1    3    3    0    0  0.63525475225E+01 -0.12404253780E+02 -0.18893974905E+02  0.23477705586E+02  0.00000000000E+00 0. -1.
</event>
<event>
 8    1  0.2184156E-005  0.8864259E+02  0.7561462E-02  0.1306173E+00
          2   -1    0    0  501    0  0.00000000000E+00  0.00000000000E+00  0.19115473601E+03  0.19115473601E+03  0.00000000000E+00 0. -1.
         -2   -1    0    0    0  501 -0.00000000000E+00 -0.00000000000E+00 -0.65276869665E+02  0.65276869665E+02  0.00000000000E+00 0.  1.
         23    2    1    2    0    0 -0.36264710456E+02 -0.17817319156E+02  0.49495802427E+02  0.10439912017E+03  0.82563646652E+02 0.  0.
         23    2    1    2    0    0  0.36264710456E+02  0.17817319156E+02  0.76382063920E+02  0.15203248550E+03  0.12508825234E+03 0.  0.
          5    1    4    4  502    0 -0.28648412669E+02  0.49124245065E+02  0.47744609747E+02  0.74370311023E+02  0.41800000000E+01 0.  1.
         -5    1    4    4    0  502  0.64913123126E+02 -0.31306925909E+02  0.28637454173E+02  0.77662174482E+02  0.41800000000E+01 0.  1.
        -11    1    3    3    0    0 -0.93330523038E+01 -0.18945385876E+02 -0.20475307906E+02  0.29415501783E+02  0.00000000000E+00 0.  1.
         11    1    3    3    0    0 -0.26931658152E+02  0.11280667200E+01  0.69971110334E+02  0.74983618389E+02  0.00000000000E+00 0. -1.
</event>
<event>
 8    1  0.2184156E-005  0.1148844E+03  0.7561462E-02  0.1251783E+00
          2   -1    0    0  501    0  0.00000000000E+00  0.00000000000E+00  0.69473545151E+03  0.69473545151E+03  0.00000000000E+00 0. -1.
         -2   -1    0    0    0  501 -0.00000000000E+00 -0.00000000000E+00 -0.20514872336E+02  0.20514872336E+02  0.00000000000E+00 0.  1.
         23    2    1    2    0    0 -0.40854510014E+02 -0.11436346442E+02  0.21091234765E+03  0.23347680154E+03  0.90705663864E+02 0.  0.
         23    2    1    2    0    0  0.40854510014E+02  0.11436346442E+02  0.46330823153E+03  0.48177352232E+03  0.12510526924E+03 0.  0.
          5    1    4    4  502    0  0.65370165668E+02  0.52231126532E+02  0.27345410694E+03  0.28599994779E+03  0.41800000000E+01 0.  1.
         -5    1    4    4    0  502 -0.24515655654E+02 -0.40794780090E+02  0.18985412460E+03  0.19577357452E+03  0.41800000000E+01 0.  1.
        -11    1    3    3    0    0  0.17303705374E+02 -0.32121253239E+02  0.57344767901E+02  0.67967753640E+02  0.00000000000E+00 0.  1.
         11    1    3    3    0    0 -0.58158215388E+02  0.20684906797E+02  0.15356757975E+03  0.16550904790E+03  0.00000000000E+00 0. -1.
</event>
<event>
 8    1  0.2401709E-005  0.2169399E+03  0.7561462E-02  0.1136185E+00
         -1   -1    0    0    0  501 -0.00000000000E+00  0.00000000000E+00  0.10314688435E+03  0.10314688435E+03  0.00000000000E+00 0.  1.
          1   -1    0    0  501    0  0.00000000000E+00 -0.00000000000E+00 -0.49451078055E+03  0.49451078055E+03  0.00000000000E+00 0. -1.
         23    2    1    2    0    0  0.97873657819E+02  0.16788180356E+03 -0.14036861934E+03  0.25646884256E+03  0.91155718658E+02 0.  0.
         23    2    1    2    0    0 -0.97873657819E+02 -0.16788180356E+03 -0.25099527687E+03  0.34118882234E+03  0.12509048973E+03 0.  0.
          5    1    4    4  502    0 -0.54274466190E+02  0.29731656883E+01 -0.53167531097E+02  0.76149958354E+02  0.41800000000E+01 0. -1.
         -5    1    4    4    0  502 -0.43599191630E+02 -0.17085496925E+03 -0.19782774577E+03  0.26503886399E+03  0.41800000000E+01 0. -1.
        -11    1    3    3    0    0  0.69487128963E+02  0.15854045969E+03 -0.83412411056E+02  0.19214881933E+03  0.00000000000E+00 0.  1.
         11    1    3    3    0    0  0.28386528856E+02  0.93413438708E+01 -0.56956208287E+02  0.64320023230E+02  0.00000000000E+00 0. -1.
</event>
<event>
 8    1  0.2184156E-005  0.3223722E+03  0.7561462E-02  0.1074563E+00
         -1   -1    0    0    0  501 -0.00000000000E+00  0.00000000000E+00  0.16204934152E+03  0.16204934152E+03  0.00000000000E+00 0.  1.
          1   -1    0    0  501    0  0.00000000000E+00 -0.00000000000E+00 -0.70413635004E+03  0.70413635004E+03  0.00000000000E+00 0. -1.
         23    2    1    2    0    0 -0.82724456036E+02 -0.29303860192E+03 -0.14072387590E+03  0.34709517335E+03  0.89201414099E+02 0.  0.
         23    2    1    2    0    0  0.82724456036E+02  0.29303860192E+03 -0.40136313262E+03  0.51909051821E+03  0.12509054333E+03 0.  0.
          5    1    4    4  502    0 -0.21410935293E+02  0.66151449710E+01 -0.42757158060E+02  0.48454465825E+02  0.41800000000E+01 0.  1.
         -5    1    4    4    0  502  0.10413539133E+03  0.28642345694E+03 -0.35860597456E+03  0.47063605238E+03  0.41800000000E+01 0.  1.
        -11    1    3    3    0    0 -0.17418730821E+02 -0.21363470042E+03 -0.90345955121E+02  0.23260608121E+03  0.00000000000E+00 0. -1.
         11    1    3    3    0    0 -0.65305725215E+02 -0.79403901494E+02 -0.50377920784E+02  0.11448909215E+03  0.00000000000E+00 0.  1.
</event>
<event>
 8    1  0.2184156E-005  0.1562867E+03  0.7561462E-02  0.1192954E+00
         -2   -1    0    0    0  501 -0.00000000000E+00  0.00000000000E+00  0.49728966170E+02  0.49728966170E+02  0.00000000000E+00 0.  1.
          2   -1    0    0  501    0  0.00000000000E+00 -0.00000000000E+00 -0.72470456239E+03  0.72470456239E+03  0.00000000000E+00 0. -1.
         23    2    1    2    0    0 -0.12007152671E+03  0.32056765801E+02 -0.12966114984E+03  0.20131917115E+03  0.90953763723E+02 0.  0.
         23    2    1    2    0    0  0.12007152671E+03 -0.32056765801E+02 -0.54531444639E+03  0.57311435741E+03  0.12508962176E+03 0.  0.
          5    1    4    4  502    0  0.11228279782E+03 -0.65180390503E+02 -0.32249286758E+03  0.34767086740E+03  0.41800000000E+01 0.  1.
         -5    1    4    4    0  502  0.77887288927E+01  0.33123624701E+02 -0.22282157880E+03  0.22544349002E+03  0.41800000000E+01 0.  1.
        -11    1    3    3    0    0 -0.31405633345E+02  0.48924266148E+02 -0.25469393395E+02  0.63471155841E+02  0.00000000000E+00 0.  1.
         11    1    3    3    0    0 -0.88665893369E+02 -0.16867500346E+02 -0.10419175644E+03  0.13784801531E+03  0.00000000000E+00 0. -1.
</event>
<event>
 8    1  0.2184156E-005  0.1014118E+03  0.7561462E-02  0.1277355E+00
         -1   -1    0    0    0  501 -0.00000000000E+00  0.00000000000E+00  0.42279019606E+02  0.42279019606E+02  0.00000000000E+00 0.  1.
          1   -1    0    0  501    0  0.00000000000E+00 -0.00000000000E+00 -0.56824716938E+03  0.56824716938E+03  0.00000000000E+00 0. -1.
         23    2    1    2    0    0  0.65245132170E+02  0.54132191341E+02 -0.86111830362E+02  0.14543704672E+03  0.80928770035E+02 0.  0.
         23    2    1    2    0    0 -0.65245132170E+02 -0.54132191341E+02 -0.43985631942E+03  0.46508914227E+03  0.12508839720E+03 0.  0.
          5    1    4    4  502    0 -0.76654344519E+02 -0.65867279700E+02 -0.19521506249E+03  0.21986536811E+03  0.41800000000E+01 0.  1.
         -5    1    4    4    0  502  0.11409212349E+02  0.11735088359E+02 -0.24464125692E+03  0.24522377416E+03  0.41800000000E+01 0.  1.
        -11    1    3    3    0    0  0.45137597286E+02  0.37708013641E+02 -0.99984145007E+02  0.11600054411E+03  0.00000000000E+00 0. -1.
         11    1    3    3    0    0  0.20107534884E+02  0.16424177700E+02  0.13872314645E+02  0.29436502609E+02  0.00000000000E+00 0.  1.
</event>
<event>
 7    1  0.2184156E-005  0.1824289E+03  0.7561462E-02  0.1165473E+00
          1   -1    0    0  501    0  0.00000000000E+00  0.00000000000E+00  0.23937950740E+03  0.23937950740E+03  0.00000000000E+00 0. -1.
         -1   -1    0    0    0  501 -0.00000000000E+00 -0.00000000000E+00 -0.32307151786E+03  0.32307151786E+03  0.00000000000E+00 0.  1.
         23    2    1    2    0    0  0.32948112094E+02  0.10625372573E+03 -0.10567995283E+03  0.17975581817E+03  0.93640105791E+02 0.  0.
          5    1    1    2  502    0  0.68704577823E+02 -0.12629290025E+03  0.15669556106E+03  0.21269975770E+03  0.41800000000E+01 0. -1.
         -5    1    1    2    0  502 -0.10165268992E+03  0.20039174517E+02 -0.13470761870E+03  0.16999544940E+03  0.41800000000E+01 0.  1.
        -11    1    3    3    0    0  0.29750338413E+02  0.34700960575E+02  0.69976834567E+01  0.46240749067E+02  0.00000000000E+00 0.  1.
         11    1    3    3    0    0  0.31977736819E+01  0.71552765156E+02 -0.11267763628E+03  0.13351506910E+03  0.00000000000E+00 0. -1.
</event>
<event>
 8    1  0.2184156E-005  0.6270368E+02  0.7561462E-02  0.1386824E+00
          4   -1    0    0  501    0  0.00000000000E+00  0.00000000000E+00  0.21810431302E+02  0.21810431302E+02  0.00000000000E+00 0. -1.
         -4   -1    0    0    0  501 -0.00000000000E+00 -0.00000000000E+00 -0.56356721717E+03  0.56356721717E+03  0.00000000000E+00 0.  1.
         23    2    1    2    0    0 -0.94253570520E+01  0.15779293348E+02 -0.28450702903E+03  0.29881971039E+03  0.89505007107E+02 0.  0.
         23    2    1    2    0    0  0.94253570520E+01 -0.15779293348E+02 -0.25724975684E+03  0.28655793808E+03  0.12490072470E+03 0.  0.
          5    1    4    4  502    0 -0.22394874647E+01 -0.26584181645E+02 -0.26638484525E+03  0.26775005545E+03  0.41800000000E+01 0.  1.
         -5    1    4    4    0  502  0.11664844517E+02  0.10804888297E+02  0.91350884087E+01  0.18807882628E+02  0.41800000000E+01 0.  1.
        -11    1    3    3    0    0 -0.42257559363E+02  0.23335526013E+02 -0.97426597088E+02  0.10872989432E+03  0.00000000000E+00 0. -1.
         11    1    3    3    0    0  0.32832202311E+02 -0.75562326652E+01 -0.18708043194E+03  0.19008981608E+03  0.00000000000E+00 0.  1.
</event>
<event>
 8    1  0.2184156E-005  0.1089773E+03  0.7561462E-02  0.1262476E+00
         -2   -1    0    0    0  501 -0.00000000000E+00  0.00000000000E+00  0.20269524093E+02  0.20269524093E+02  0.00000000000E+00 0. -1.
          2   -1    0    0  501    0  0.00000000000E+00 -0.00000000000E+00 -0.68201439650E+03  0.68201439650E+03  0.00000000000E+00 0.  1.
         23    2    1    2    0    0  0.50946770752E+01  0.44344671884E+02 -0.26232084268E+03  0.28135616102E+03  0.91414764549E+02 0.  0.
         23    2    1    2    0    0 -0.50946770752E+01 -0.44344671884E+02 -0.39942402972E+03  0.42092775958E+03  0.12509283593E+03 0.  0.
          5    1    4    4  502    0 -0.59641509092E+02 -0.49411646473E+02 -0.21940459730E+03  0.23271113023E+03  0.41800000000E+01 0. -1.
         -5    1    4    4    0  502  0.54546832016E+02  0.50669745892E+01 -0.18001943242E+03  0.18821662935E+03  0.41800000000E+01 0. -1.
        -11    1    3    3    0    0  0.32625031570E+02 -0.72983720034E+00 -0.18412168793E+03  0.18699123326E+03  0.00000000000E+00 0.  1.
         11    1    3    3    0    0 -0.27530354495E+02  0.45074509084E+02 -0.78199154749E+02  0.94364927761E+02  0.00000000000E+00 0. -1.
</event>
<event>
 8    1  0.2184156E-005  0.1752432E+03  0.7561462E-02  0.1172488E+00
          1   -1    0    0  501    0  0.00000000000E+00  0.00000000000E+00  0.13583052497E+03  0.13583052497E+03  0.00000000000E+00 0. -1.
         -1   -1    0    0    0  501 -0.00000000000E+00 -0.00000000000E+00 -0.30880655203E+03  0.30880655203E+03  0.00000000000E+00 0.  1.
         23    2    1    2    0    0  0.14267838640E+03 -0.12776408223E+02 -0.18841680973E+03  0.25383173119E+03  0.91702208374E+02 0.  0.
         23    2    1    2    0    0 -0.14267838640E+03  0.12776408223E+02  0.15440782660E+02  0.19080534581E+03  0.12509158113E+03 0.  0.
          5    1    4    4  502    0 -0.14231667603E+03 -0.30625618845E+02  0.38443921164E+01  0.14568533405E+03  0.41800000000E+01 0. -1.
         -5    1    4    4    0  502 -0.36171036663E+00  0.43402027067E+02  0.11596390544E+02  0.45120011764E+02  0.41800000000E+01 0. -1.
        -11    1    3    3    0    0  0.56201681075E+02  0.31146719898E+02 -0.11664642686E+03  0.13317333072E+03  0.00000000000E+00 0.  1.
         11    1    3    3    0    0  0.86476705322E+02 -0.43923128121E+02 -0.71770382862E+02  0.12065840047E+03  0.00000000000E+00 0. -1.
</event>
<event>
 8    1  0.2184156E-005  0.8270407E+02  0.7561462E-02  0.1321548E+00
         -2   -1    0    0    0  501 -0.00000000000E+00  0.00000000000E+00  0.50154174737E+02  0.50154174737E+02  0.00000000000E+00 0.  1.
          2   -1    0    0  501    0  0.00000000000E+00 -0.00000000000E+00 -0.46551194411E+03  0.46551194411E+03  0.00000000000E+00 0. -1.
         23    2    1    2    0    0 -0.20779042829E+01 -0.28506488756E+02 -0.17043036626E+02  0.97193310123E+02  0.91318874543E+02 0.  0.
         23    2    1    2    0    0  0.20779042829E+01  0.28506488756E+02 -0.39831473275E+03  0.41847280873E+03  0.12509167730E+03 0.  0.
          5    1    4    4  502    0  0.39498046091E+02  0.22109143990E+02 -0.48099285654E+02  0.66180991028E+02  0.41800000000E+01 0.  1.
         -5    1    4    4    0  502 -0.37420141808E+02  0.63973447662E+01 -0.35021544709E+03  0.35229181770E+03  0.41800000000E+01 0.  1.
        -11    1    3    3    0    0 -0.25040023250E+02  0.17357108213E+02  0.17707023965E+02  0.35239334096E+02  0.00000000000E+00 0.  1.
         11    1    3    3    0    0  0.22962118967E+02 -0.45863596969E+02 -0.34750060591E+02  0.61953976026E+02  0.00000000000E+00 0. -1.
</event>
<event>
 8    1  0.2184156E-005  0.1192416E+03  0.7561462E-02  0.1244353E+00
          1   -1    0    0  501    0  0.00000000000E+00  0.00000000000E+00  0.47901765143E+03  0.47901765143E+03  0.00000000000E+00 0. -1.
         -1   -1    0    0    0  501 -0.00000000000E+00 -0.00000000000E+00 -0.39501098423E+02  0.39501098423E+02  0.00000000000E+00 0.  1.
         23    2    1    2    0    0  0.20149267154E+02 -0.82007104682E+02  0.17812283996E+03  0.21668137090E+03  0.89955056538E+02 0.  0.
         23    2    1    2    0    0 -0.20149267154E+02  0.82007104682E+02  0.26139371305E+03  0.30183737895E+03  0.12509185395E+03 0.  0.
          5    1    4    4  502    0 -0.51636087126E+02  0.26874335368E+02  0.21582090724E+03  0.22357247549E+03  0.41800000000E+01 0. -1.
         -5    1    4    4    0  502  0.31486819972E+02  0.55132769315E+02  0.45572805812E+02  0.78264903462E+02  0.41800000000E+01 0. -1.
        -11    1    3    3    0    0 -0.30873240854E+02 -0.23073410414E+02  0.28380948546E+02  0.47864574680E+02  0.00000000000E+00 0.  1.
         11    1    3    3    0    0  0.51022508008E+02 -0.58933694269E+02  0.14974189141E+03  0.16881679622E+03  0.00000000000E+00 0. -1.
</event>
<event>
 8    1  0.2184156E-005  0.1070431E+03  0.7561462E-02  0.1266146E+00
         -2   -1    0    0    0  501 -0.00000000000E+00  0.00000000000E+00  0.41667154155E+02  0.41667154155E+02  0.00000000000E+00 0.  1.
          2   -1    0    0  501    0  0.00000000000E+00 -0.00000000000E+00 -0.29393402011E+03  0.29393402011E+03  0.00000000000E+00 0. -1.
         23    2    1    2    0    0 -0.18592107697E+02  0.21163309368E+02 -0.89845031333E+02  0.12866928387E+03  0.87693231343E+02 0.  0.
         23    2    1    2    0    0  0.18592107697E+02 -0.21163309368E+02 -0.16242183462E+03  0.20693189040E+03  0.12508558178E+03 0.  0.
          5    1    4    4  502    0 -0.24098781104E+02 -0.62531751890E+02 -0.70288955569E+02  0.97205868753E+02  0.41800000000E+01 0.  1.
         -5    1    4    4    0  502  0.42690888802E+02  0.41368442521E+02 -0.92132879055E+02  0.10972602165E+03  0.41800000000E+01 0.  1.
        -11    1    3    3    0    0  0.28453394629E+02  0.27867988612E+02 -0.61703888874E+02  0.73441067240E+02  0.00000000000E+00 0. -1.
         11    1    3    3    0    0 -0.47045502326E+02 -0.67046792433E+01 -0.28141142459E+02  0.55228216626E+02  0.00000000000E+00 0.  1.
</event>
<event>
 8    1  0.2184156E-005  0.1324060E+03  0.7561462E-02  0.1223929E+00
         -3   -1    0    0    0  501 -0.00000000000E+00  0.00000000000E+00  0.33819740892E+03  0.33819740892E+03  0.00000000000E+00 0.  1.
          3   -1    0    0  501    0  0.00000000000E+00 -0.00000000000E+00 -0.78551953774E+02  0.78551953774E+02  0.00000000000E+00 0. -1.
         23    2    1    2    0    0  0.72638709751E+02  0.73676773021E+02  0.20074355805E+03  0.24405527339E+03  0.92522166702E+02 0.  0.
         23    2    1    2    0    0 -0.72638709751E+02 -0.73676773021E+02  0.58901897096E+02  0.17269408931E+03  0.12509662651E+03 0.  0.
          5    1    4    4  502    0  0.20673078103E+02 -0.64067520283E+02  0.15286396244E+02  0.69160462864E+02  0.41800000000E+01 0.  1.
         -5    1    4    4    0  502 -0.93311787853E+02 -0.96092527378E+01  0.43615500852E+02  0.10353362645E+03  0.41800000000E+01 0.  1.
        -11    1    3    3    0    0  0.42113665184E+02  0.42939825007E+02  0.28699216656E+02  0.66641086453E+02  0.00000000000E+00 0. -1.
         11    1    3    3    0    0  0.30525044566E+02  0.30736948014E+02  0.17204434140E+03  0.17741418693E+03  0.00000000000E+00 0.  1.
</event>
<event>
 8    1  0.2184156E-005  0.1041096E+03  0.7561462E-02  0.1271884E+00
          2   -1    0    0  501    0  0.00000000000E+00  0.00000000000E+00  0.27378329114E+03  0.27378329114E+03  0.00000000000E+00 0. -1.
         -2   -1    0    0    0  501 -0.00000000000E+00 -0.00000000000E+00 -0.75535665930E+02  0.75535665930E+02  0.00000000000E+00 0.  1.
         23    2    1    2    0    0 -0.18529234054E+02  0.99482054463E+01 -0.14178507956E+02  0.10190149749E+03  0.98694406102E+02 0.  0.
         23    2    1    2    0    0  0.18529234054E+02 -0.99482054463E+01  0.21242613316E+03  0.24741745958E+03  0.12509291726E+03 0.  0.
          5    1    4    4  502    0 -0.43203015480E+02 -0.21876664569E+02  0.37206541319E+02  0.61211829871E+02  0.41800000000E+01 0.  1.
         -5    1    4    4    0  502  0.61732249534E+02  0.11928459123E+02  0.17521959184E+03  0.18620562971E+03  0.41800000000E+01 0.  1.
        -11    1    3    3    0    0  0.17174022863E+01  0.50893512321E+02  0.72699845871E+01  0.51438815527E+02  0.00000000000E+00 0.  1.
         11    1    3    3    0    0 -0.20246636340E+02 -0.40945306874E+02 -0.21448492543E+02  0.50462681959E+02  0.00000000000E+00 0. -1.
</event>
<event>
 8    1  0.2184156E-005  0.1245766E+03  0.7561462E-02  0.1235733E+00
         -2   -1    0    0    0  501 -0.00000000000E+00  0.00000000000E+00  0.30648359098E+02  0.30648359098E+02  0.00000000000E+00 0.  1.
          2   -1    0    0  501    0  0.00000000000E+00 -0.00000000000E+00 -0.74583958186E+03  0.74583958186E+03  0.00000000000E+00 0. -1.
         23    2    1    2    0    0  0.16812654308E+02 -0.83955285330E+02 -0.17558488110E+03  0.21599655616E+03  0.92159136949E+02 0.  0.
         23    2    1    2    0    0 -0.16812654308E+02  0.83955285330E+02 -0.53960634166E+03  0.56049138479E+03  0.12507770860E+03 0.  0.
          5    1    4    4  502    0  0.47549509384E+02  0.30076918723E+01 -0.18578389818E+03  0.19184142221E+03  0.41800000000E+01 0.  1.
         -5    1    4    4    0  502 -0.64362163692E+02  0.80947593458E+02 -0.35382244348E+03  0.36864996259E+03  0.41800000000E+01 0.  1.
        -11    1    3    3    0    0  0.10127217692E+02  0.30392734309E+01  0.76487741287E+01  0.13049960415E+02  0.00000000000E+00 0.  1.
         11    1    3    3    0    0  0.66854366162E+01 -0.86994558761E+02 -0.18323365523E+03  0.20294659575E+03  0.00000000000E+00 0. -1.
</event>
<event>
 8    1  0.2184156E-005  0.1310515E+03  0.7561462E-02  0.1225904E+00
         -3   -1    0    0    0  501 -0.00000000000E+00  0.00000000000E+00  0.21688803033E+02  0.21688803033E+02  0.00000000000E+00 0.  1.
          3   -1    0    0  501    0  0.00000000000E+00 -0.00000000000E+00 -0.12418618458E+04  0.12418618458E+04  0.00000000000E+00 0. -1.
         23    2    1    2    0    0 -0.11529176826E+03  0.35274181254E+01 -0.40371284182E+03  0.42954938415E+03  0.90686163579E+02 0.  0.
         23    2    1    2    0    0  0.11529176826E+03 -0.35274181254E+01 -0.81646020091E+03  0.83400126465E+03  0.12508483225E+03 0.  0.
          5    1    4    4  502    0  0.65008745662E+02 -0.13090089922E+02 -0.13358303827E+03  0.14919580416E+03  0.41800000000E+01 0. -1.
         -5    1    4    4    0  502  0.50283022596E+02  0.95626717970E+01 -0.68287716265E+03  0.68480546049E+03  0.41800000000E+01 0. -1.
        -11    1    3    3    0    0 -0.22253368949E+01 -0.27076757543E+02 -0.11083682357E+03  0.11411794067E+03  0.00000000000E+00 0.  1.
         11    1    3    3    0    0 -0.11306643136E+03  0.30604175668E+02 -0.29287601825E+03  0.31543144348E+03  0.00000000000E+00 0. -1.
</event>
<event>
 8    1  0.2184156E-005  0.8480065E+02  0.7561462E-02  0.1315955E+00
          1   -1    0    0  501    0  0.00000000000E+00  0.00000000000E+00  0.20371191273E+03  0.20371191273E+03  0.00000000000E+00 0. -1.
         -1   -1    0    0    0  501 -0.00000000000E+00 -0.00000000000E+00 -0.92390120172E+02  0.92390120172E+02  0.00000000000E+00 0.  1.
         23    2    1    2    0    0  0.27540600634E+02 -0.14343724167E+02 -0.33554104464E+02  0.10223100685E+03  0.91438907083E+02 0.  0.
         23    2    1    2    0    0 -0.27540600634E+02  0.14343724167E+02  0.14487589703E+03  0.19387102606E+03  0.12503088458E+03 0.  0.
          5    1    4    4  502    0 -0.49349938478E+02  0.43729585870E+01  0.15840316793E+03  0.16602281531E+03  0.41800000000E+01 0. -1.
         -5    1    4    4    0  502  0.21809337844E+02  0.99707655798E+01 -0.13527270904E+02  0.27848210743E+02  0.41800000000E+01 0. -1.
        -11    1    3    3    0    0 -0.33190437003E+02 -0.99517183248E+01 -0.51093204369E+01  0.35024947700E+02  0.00000000000E+00 0.  1.
         11    1    3    3    0    0  0.60731037638E+02 -0.43920058421E+01 -0.28444784028E+02  0.67206059148E+02  0.00000000000E+00 0. -1.
</event>
<event>
 7    1  0.2184156E-005  0.2510333E+03  0.7561462E-02  0.1112654E+00
         -2   -1    0    0    0  501 -0.00000000000E+00  0.00000000000E+00  0.44511383870E+02  0.44511383870E+02  0.00000000000E+00 0.  1.
          2   -1    0    0  501    0  0.00000000000E+00 -0.00000000000E+00 -0.21082846954E+04  0.21082846954E+04  0.00000000000E+00 0. -1.
         23    2    1    2    0    0  0.14669618162E+03 -0.74885096301E+02 -0.39703028534E+03  0.44255369745E+03  0.10532416770E+03 0.  0.
          5    1    1    2  502    0  0.31039962449E+02 -0.72838541743E+02 -0.10263814054E+04  0.10294392620E+04  0.41800000000E+01 0. -1.
         -5    1    1    2    0  502 -0.17773614407E+03  0.14772363804E+03 -0.64036162075E+03  0.68080311976E+03  0.41800000000E+01 0.  1.
        -11    1    3    3    0    0  0.73410543932E+02 -0.90671879681E+02 -0.19721265517E+03  0.22913604929E+03  0.00000000000E+00 0.  1.
         11    1    3    3    0    0  0.73285637686E+02  0.15786783380E+02 -0.19981763016E+03  0.21341764816E+03  0.00000000000E+00 0. -1.
</event>
<event>
 8    1  0.2846909E-005  0.1007512E+03  0.7561462E-02  0.1278724E+00
         -1   -1    0    0    0  501 -0.00000000000E+00  0.00000000000E+00  0.46507357509E+02  0.46507357509E+02  0.00000000000E+00 0.  1.
          1   -1    0    0  501    0  0.00000000000E+00 -0.00000000000E+00 -0.27816213395E+03  0.27816213395E+03  0.00000000000E+00 0. -1.
         23    2    1    2    0    0  0.21593252781E+02 -0.21386996796E+02 -0.67924464218E+02  0.11639404684E+03  0.89499548058E+02 0.  0.
         23    2    1    2    0    0 -0.21593252781E+02  0.21386996796E+02 -0.16373031222E+03  0.20827544462E+03  0.12508946196E+03 0.  0.
          5    1    4    4  502    0 -0.58816172814E+02  0.46293330436E+02 -0.62869981138E+02  0.97839263875E+02  0.41800000000E+01 0.  1.
         -5    1    4    4    0  502  0.37222920033E+02 -0.24906333641E+02 -0.10086033108E+03  0.11043618074E+03  0.41800000000E+01 0.  1.
        -11    1    3    3    0    0  0.23813610220E+02  0.25340870933E+02 -0.10609606911E+01  0.34790421224E+02  0.00000000000E+00 0.  1.
         11    1    3    3    0    0 -0.22203574388E+01 -0.46727867728E+02 -0.66863503527E+02  0.81603625615E+02  0.00000000000E+00 0. -1.
</event>
<event>
 8    1  0.2184156E-005  0.1225009E+03  0.7561462E-02  0.1239027E+00
         -1   -1    0    0    0  501 -0.00000000000E+00  0.00000000000E+00  0.80866424814E+02  0.80866424814E+02  0.00000000000E+00 0.  1.
          1   -1    0    0  501    0  0.00000000000E+00 -0.00000000000E+00 -0.19527435550E+03  0.19527435550E+03  0.00000000000E+00 0. -1.
         23    2    1    2    0    0  0.58750236588E+02 -0.14540358357E+02 -0.26022681809E+02  0.11144643929E+03  0.89889468469E+02 0.  0.
         23    2    1    2    0    0 -0.58750236588E+02  0.14540358357E+02 -0.88385248875E+02  0.16469434102E+03  0.12509700806E+03 0.  0.
          5    1    4    4  502    0 -0.70973295627E+02  0.58288983060E+02 -0.69828658724E+02  0.11544837902E+03  0.41800000000E+01 0.  1.
         -5    1    4    4    0  502  0.12223059039E+02 -0.43748624703E+02 -0.18556590151E+02  0.49245962004E+02  0.41800000000E+01 0.  1.
        -11    1    3    3    0    0 -0.23315145581E+02 -0.96664019735E+01 -0.78068020190E-01  0.25239679776E+02  0.00000000000E+00 0.  1.
         11    1    3    3    0    0  0.82065382169E+02 -0.48739563837E+01 -0.25944613789E+02  0.86206759514E+02  0.00000000000E+00 0. -1.
</event>
<event>
 8    1  0.2184156E-005  0.1651916E+03  0.7561462E-02  0.1182957E+00
          1   -1    0    0  501    0  0.00000000000E+00  0.00000000000E+00  0.32427776244E+03  0.32427776244E+03  0.00000000000E+00 0. -1.
         -1   -1    0    0    0  501 -0.00000000000E+00 -0.00000000000E+00 -0.84766499899E+02  0.84766499899E+02  0.00000000000E+00 0.  1.
         23    2    1    2    0    0 -0.57603587607E+02 -0.11101207694E+03  0.11674325485E+03  0.19371916136E+03  0.90864026951E+02 0.  0.
         23    2    1    2    0    0  0.57603587607E+02  0.11101207694E+03  0.12276800768E+03  0.21532510097E+03  0.12510420004E+03 0.  0.
          5    1    4    4  502    0 -0.16558295486E+02 -0.19319436744E+02  0.27079570384E+02  0.37392423266E+02  0.41800000000E+01 0. -1.
         -5    1    4    4    0  502  0.74161883093E+02  0.13033151368E+03  0.95688437301E+02  0.17793267771E+03  0.41800000000E+01 0. -1.
        -11    1    3    3    0    0  0.19768261099E+02 -0.56717197482E+02  0.46125040859E+02  0.75730733730E+02  0.00000000000E+00 0.  1.
         11    1    3    3    0    0 -0.77371848706E+02 -0.54294879458E+02  0.70618213994E+02  0.11798842763E+03  0.00000000000E+00 0. -1.
</event>
<event>
 8    1  0.2184156E-005  0.1094208E+03  0.7561462E-02  0.1261646E+00
          2   -1    0    0  501    0  0.00000000000E+00  0.00000000000E+00  0.97400705247E+03  0.97400705247E+03  0.00000000000E+00 0. -1.
         -2   -1    0    0    0  501 -0.00000000000E+00 -0.00000000000E+00 -0.15110954866E+02  0.15110954866E+02  0.00000000000E+00 0.  1.
         23    2    1    2    0    0  0.24405534308E+02  0.15774485937E+01  0.26923995526E+03  0.28778324875E+03  0.98645457600E+02 0.  0.
         23    2    1    2    0    0 -0.24405534308E+02 -0.15774485937E+01  0.68965614235E+03  0.70133475859E+03  0.12508689171E+03 0.  0.
          5    1    4    4  502    0  0.29604729636E+02 -0.41464384751E+02  0.17540910426E+03  0.18270621630E+03  0.41800000000E+01 0.  1.
         -5    1    4    4    0  502 -0.54010263945E+02  0.39886936157E+02  0.51424703809E+03  0.51862854229E+03  0.41800000000E+01 0.  1.
        -11    1    3    3    0    0  0.19241116052E+02 -0.47423098293E+02  0.11523627854E+03  0.12608953442E+03  0.00000000000E+00 0. -1.
         11    1    3    3    0    0  0.51644182567E+01  0.49000546887E+02  0.15400367671E+03  0.16169371432E+03  0.00000000000E+00 0.  1.
</event>
<event>
 8    1  0.2184156E-005  0.1308096E+03  0.7561462E-02  0.1226259E+00
         -1   -1    0    0    0  501 -0.00000000000E+00  0.00000000000E+00  0.74158095784E+03  0.74158095784E+03  0.00000000000E+00 0.  1.
          1   -1    0    0  501    0  0.00000000000E+00 -0.00000000000E+00 -0.33562530715E+02  0.33562530715E+02  0.00000000000E+00 0. -1.
         23    2    1    2    0    0  0.10705637269E+02  0.11427275527E+03  0.31733928345E+03  0.34917526627E+03  0.89701017215E+02 0.  0.
         23    2    1    2    0    0 -0.10705637269E+02 -0.11427275527E+03  0.39067914367E+03  0.42596822228E+03  0.12508341147E+03 0.  0.
          5    1    4    4  502    0 -0.86575684916E-01 -0.93511906497E+02  0.39122897159E+03  0.40227113340E+03  0.41800000000E+01 0.  1.
         -5    1    4    4    0  502 -0.10619061584E+02 -0.20760848777E+02 -0.54982791744E+00  0.23697088884E+02  0.41800000000E+01 0.  1.
        -11    1    3    3    0    0  0.49231792628E+02  0.70816817371E+02  0.21229533173E+03  0.22914645732E+03  0.00000000000E+00 0. -1.
         11    1    3    3    0    0 -0.38526155359E+02  0.43455937903E+02  0.10504395172E+03  0.12002880895E+03  0.00000000000E+00 0.  1.
</event>
<event>
 7    1  0.2184156E-005  0.1071963E+03  0.7561462E-02  0.1265852E+00
         -1   -1    0    0    0  501 -0.00000000000E+00  0.00000000000E+00  0.73401074121E+02  0.73401074121E+02  0.00000000000E+00 0.  1.
          1   -1    0    0  501    0  0.00000000000E+00 -0.00000000000E+00 -0.69532057187E+03  0.69532057187E+03  0.00000000000E+00 0. -1.
         23    2    1    2    0    0 -0.11846244935E+02  0.25907920619E+02  0.27219798190E+02  0.98978196498E+02  0.90797643685E+02 0.  0.
          5    1    1    2  502    0  0.53659868496E+02 -0.74176587665E+02 -0.48472832583E+03  0.49331589262E+03  0.41800000000E+01 0. -1.
         -5    1    1    2    0  502 -0.41813623560E+02  0.48268667046E+02 -0.16441097010E+03  0.17642755687E+03  0.41800000000E+01 0.  1.
        -11    1    3    3    0    0  0.80068961586E+01  0.35717689772E+02  0.53366824793E+02  0.64713845019E+02  0.00000000000E+00 0.  1.
         11    1    3    3    0    0 -0.19853141094E+02 -0.98097691529E+01 -0.26147026602E+02  0.34264351479E+02  0.00000000000E+00 0. -1.
</event>
<event>
 8    1  0.2184156E-005  0.8968973E+02  0.7561462E-02  0.1303605E+00
          4   -1    0    0  501    0  0.00000000000E+00  0.00000000000E+00  0.86820176058E+02  0.86820176058E+02  0.00000000000E+00 0. -1.
         -4   -1    0    0    0  501 -0.00000000000E+00 -0.00000000000E+00 -0.18349536456E+03  0.18349536456E+03  0.00000000000E+00 0.  1.
         23    2    1    2    0    0  0.52950988824E+02  0.21118366334E+02 -0.65921062111E+02  0.12792536973E+03  0.93645721612E+02 0.  0.
         23    2    1    2    0    0 -0.52950988824E+02 -0.21118366334E+02 -0.30754126388E+02  0.14239017089E+03  0.12680438424E+03 0.  0.
          5    1    4    4  502    0  0.47825801154E-01  0.16613468813E+02 -0.66064369270E+02  0.68249416996E+02  0.41800000000E+01 0. -1.
         -5    1    4    4    0  502 -0.52998814625E+02 -0.37731835147E+02  0.35310242882E+02  0.74140753891E+02  0.41800000000E+01 0.  1.
        -11    1    3    3    0    0  0.66457952576E+02 -0.60321064500E+01 -0.70708411077E+02  0.97225126206E+02  0.00000000000E+00 0.  1.
         11    1    3    3    0    0 -0.13506963752E+02  0.27150472784E+02  0.47873489657E+01  0.30700243522E+02  0.00000000000E+00 0. -1.
</event>
<event>
 8    1  0.2184156E-005  0.1475212E+03  0.7561462E-02  0.1203552E+00
         -2   -1    0    0    0  501 -0.00000000000E+00  0.00000000000E+00  0.11314639978E+04  0.11314639978E+04  0.00000000000E+00 0.  1.
          2   -1    0    0  501    0  0.00000000000E+00 -0.00000000000E+00 -0.24085011431E+02  0.24085011431E+02  0.00000000000E+00 0. -1.
         23    2    1    2    0    0 -0.11019838277E+03  0.59273999930E+02  0.47476014377E+03  0.49865147993E+03  0.87172321800E+02 0.  0.
         23    2    1    2    0    0  0.11019838277E+03 -0.59273999930E+02  0.63261884263E+03  0.65689752934E+03  0.12510265129E+03 0.  0.
          5    1    4    4  502    0  0.65419257993E+02 -0.71205630342E+02  0.57377239816E+03  0.58187813019E+03  0.41800000000E+01 0. -1.
         -5    1    4    4    0  502  0.44779124782E+02  0.11931630412E+02  0.58846444474E+02  0.75019399143E+02  0.41800000000E+01 0. -1.
        -11    1    3    3    0    0  0.14230629767E+02  0.12020560076E+02  0.43541717191E+02  0.47359115533E+02  0.00000000000E+00 0.  1.
         11    1    3    3    0    0 -0.12442901254E+03  0.47253439854E+02  0.43121842658E+03  0.45129236440E+03  0.00000000000E+00 0. -1.
</event>
<event>
 8    1  0.2184156E-005  0.9010362E+02  0.7561462E-02  0.1302601E+00
          3   -1    0    0  501    0  0.00000000000E+00  0.00000000000E+00  0.26517194696E+03  0.26517194696E+03  0.00000000000E+00 0. -1.
         -3   -1    0    0    0  501 -0.00000000000E+00 -0.00000000000E+00 -0.55943948989E+02  0.55943948989E+02  0.00000000000E+00 0.  1.
         23    2    1    2    0    0  0.31413650539E+02  0.14682013252E+02  0.37500180672E+02  0.10584977543E+03  0.92712094439E+02 0.  0.
         23    2    1    2    0    0 -0.31413650539E+02 -0.14682013252E+02  0.17172781730E+03  0.21526612052E+03  0.12508669176E+03 0.  0.
          5    1    4    4  502    0 -0.28939203985E+02  0.31862740832E+02  0.16173070753E+03  0.16741268154E+03  0.41800000000E+01 0. -1.
         -5    1    4    4    0  502 -0.24744465537E+01 -0.46544754085E+02  0.99971097667E+01  0.47853438980E+02  0.41800000000E+01 0. -1.
        -11    1    3    3    0    0 -0.27940868253E+02 -0.33254331080E+01  0.33422338744E+02  0.43689854099E+02  0.00000000000E+00 0. -1.
         11    1    3    3    0    0  0.59354518791E+02  0.18007446361E+02  0.40778419274E+01  0.62159921333E+02  0.00000000000E+00 0.  1.
</event>
<event>
 8    1  0.2184156E-005  0.3174941E+03  0.7561462E-02  0.1076808E+00
          1   -1    0    0  501    0  0.00000000000E+00  0.00000000000E+00  0.18014493873E+03  0.18014493873E+03  0.00000000000E+00 0. -1.
         -1   -1    0    0    0  501 -0.00000000000E+00 -0.00000000000E+00 -0.63137300264E+03  0.63137300264E+03  0.00000000000E+00 0.  1.
         23    2    1    2    0    0  0.34308689973E+02  0.29738181038E+03 -0.88405951353E+02  0.32479224744E+03  0.89785101295E+02 0.  0.
         23    2    1    2    0    0 -0.34308689973E+02 -0.29738181038E+03 -0.36282211256E+03  0.48672569392E+03  0.12509591684E+03 0.  0.
          5    1    4    4  502    0  0.45331413721E+02 -0.80927847192E+02 -0.12105038347E+03  0.15256120496E+03  0.41800000000E+01 0.  1.
         -5    1    4    4    0  502 -0.79640103694E+02 -0.21645396318E+03 -0.24177172909E+03  0.33416448896E+03  0.41800000000E+01 0.  1.
        -11    1    3    3    0    0 -0.16128300298E+02  0.20957929130E+03 -0.46961450566E+02  0.21538100949E+03  0.00000000000E+00 0. -1.
         11    1    3    3    0    0  0.50436990272E+02  0.87802519078E+02 -0.41444500787E+02  0.10941123795E+03  0.00000000000E+00 0.  1.
</event>
<event>
 8    1  0.2184156E-005  0.1557970E+03  0.7561462E-02  0.1193525E+00
         -2   -1    0    0    0  501 -0.00000000000E+00  0.00000000000E+00  0.39172995733E+03  0.39172995733E+03  0.00000000000E+00 0.  1.
          2   -1    0    0  501    0  0.00000000000E+00 -0.00000000000E+00 -0.93709391612E+02  0.93709391612E+02  0.00000000000E+00 0. -1.
         23    2    1    2    0    0  0.55786625705E+01  0.13983914524E+03  0.23495961784E+03  0.28742362402E+03  0.88431949047E+02 0.  0.
         23    2    1    2    0    0 -0.55786625705E+01 -0.13983914524E+03  0.63060947877E+02  0.19801572492E+03  0.12508971241E+03 0.  0.
          5    1    4    4  502    0  0.12435144988E+02 -0.14732026413E+03  0.83175639317E+02  0.16968663008E+03  0.41800000000E+01 0. -1.
         -5    1    4    4    0  502 -0.18013807558E+02  0.74811188898E+01 -0.20114691440E+02  0.28329094837E+02  0.41800000000E+01 0. -1.
        -11    1    3    3    0    0 -0.11281004900E+02  0.22205057420E+02  0.89808645877E+00  0.24922524067E+02  0.00000000000E+00 0. -1.
         11    1    3    3    0    0  0.16859667470E+02  0.11763408782E+03  0.23406153138E+03  0.26250109995E+03  0.00000000000E+00 0.  1.
</event>
<event>
 8    1  0.2184156E-005  0.7381908E+02  0.7561462E-02  0.1347567E+00
          1   -1    0    0  501    0  0.00000000000E+00  0.00000000000E+00  0.12351168655E+04  0.12351168655E+04  0.00000000000E+00 0. -1.
         -1   -1    0    0    0  501 -0.00000000000E+00 -0.00000000000E+00 -0.15513134880E+02  0.15513134880E+02  0.00000000000E+00 0.  1.
         23    2    1    2    0    0  0.15757907483E+01 -0.57550997062E+02  0.26277504666E+03  0.28394326570E+03  0.90876028796E+02 0.  0.
         23    2    1    2    0    0 -0.15757907483E+01  0.57550997062E+02  0.95682868392E+03  0.96668673464E+03  0.12509001629E+03 0.  0.
          5    1    4    4  502    0  0.13756069766E+01  0.26916778802E+02  0.91051253615E+03  0.91092093848E+03  0.41800000000E+01 0. -1.
         -5    1    4    4    0  502 -0.29513977248E+01  0.30634218260E+02  0.46316147769E+02  0.55765796158E+02  0.41800000000E+01 0. -1.
        -11    1    3    3    0    0  0.34598637477E+02 -0.23208291611E+02  0.20435590996E+03  0.20855941228E+03  0.00000000000E+00 0. -1.
         11    1    3    3    0    0 -0.33022846729E+02 -0.34342705451E+02  0.58419136701E+02  0.75383853421E+02  0.00000000000E+00 0.  1.
</event>
<event>
 8    1  0.2184156E-005  0.1086685E+03  0.7561462E-02  0.1263056E+00
         -2   -1    0    0    0  501 -0.00000000000E+00  0.00000000000E+00  0.24373218516E+02  0.24373218516E+02  0.00000000000E+00 0.  1.
          2   -1    0    0  501    0  0.00000000000E+00 -0.00000000000E+00 -0.61681376347E+03  0.61681376347E+03  0.00000000000E+00 0. -1.
         23    2    1    2    0    0 -0.21723568842E+02 -0.50147168022E+02 -0.24660940237E+03  0.26938970843E+03  0.93637416483E+02 0.  0.
         23    2    1    2    0    0  0.21723568842E+02  0.50147168022E+02 -0.34583114258E+03  0.37179727356E+03  0.12508949413E+03 0.  0.
          5    1    4    4  502    0  0.13841598703E+02  0.91693136607E+02 -0.25885990090E+03  0.27500025790E+03  0.41800000000E+01 0.  1.
         -5    1    4    4    0  502  0.78819701392E+01 -0.41545968584E+02 -0.86971241687E+02  0.96797015653E+02  0.41800000000E+01 0.  1.
        -11    1    3    3    0    0 -0.22491917868E+02  0.79948776973E+01 -0.10241781847E+02  0.25974959753E+02  0.00000000000E+00 0.  1.
         11    1    3    3    0    0  0.76834902590E+00 -0.58142045719E+02 -0.23636762052E+03  0.24341474867E+03  0.00000000000E+00 0. -1.
</event>
<event>
 8    1  0.2184156E-005  0.1460424E+03  0.7561462E-02  0.1205422E+00
          1   -1    0    0  501    0  0.00000000000E+00  0.00000000000E+00  0.89446981636E+03  0.89446981636E+03  0.00000000000E+00 0. -1.
         -1   -1    0    0    0  501 -0.00000000000E+00 -0.00000000000E+00 -0.42339809122E+02  0.42339809122E+02  0.00000000000E+00 0.  1.
         23    2    1    2    0    0 -0.69138338876E+02 -0.98232770866E+02  0.20858715725E+03  0.27030808478E+03  0.12299622497E+03 0.  0.
         23    2    1    2    0    0  0.69138338876E+02  0.98232770866E+02  0.64354284999E+03  0.66650154070E+03  0.12508843594E+03 0.  0.
          5    1    4    4  502    0  0.63531565818E+02  0.66352827103E+02  0.61866789157E+03  0.62546493905E+03  0.41800000000E+01 0.  1.
         -5    1    4    4    0  502  0.56067730578E+01  0.31879943763E+02  0.24874958414E+02  0.41036601644E+02  0.41800000000E+01 0.  1.
        -11    1    3    3    0    0  0.27215775298E+01  0.24831120613E+02  0.57100632629E+02  0.62325546783E+02  0.00000000000E+00 0. -1.
         11    1    3    3    0    0 -0.71859916405E+02 -0.12306389148E+03  0.15148652462E+03  0.20798253800E+03  0.00000000000E+00 0.  1.
</event>
<event>
 8    1  0.2184156E-005  0.1079723E+03  0.7561462E-02  0.1264372E+00
         -1   -1    0    0    0  501 -0.00000000000E+00  0.00000000000E+00  0.66425718788E+03  0.66425718788E+03  0.00000000000E+00 0.  1.
          1   -1    0    0  501    0  0.00000000000E+00 -0.00000000000E+00 -0.28427094057E+02  0.28427094057E+02  0.00000000000E+00 0. -1.
         23    2    1    2    0    0 -0.75333507267E+02 -0.27543292065E+02  0.24329500515E+03  0.27296537712E+03  0.94254269497E+02 0.  0.
         23    2    1    2    0    0  0.75333507267E+02  0.27543292065E+02  0.39253508867E+03  0.41971890482E+03  0.12508554261E+03 0.  0.
          5    1    4    4  502    0  0.37991575985E+02 -0.12391536699E+02  0.23324479586E+02  0.46458731962E+02  0.41800000000E+01 0. -1.
         -5    1    4    4    0  502  0.37341931282E+02  0.39934828764E+02  0.36921060909E+03  0.37326017286E+03  0.41800000000E+01 0. -1.
        -11    1    3    3    0    0 -0.32766743061E+02 -0.59349987556E+02  0.16455207259E+03  0.17797040504E+03  0.00000000000E+00 0. -1.
         11    1    3    3    0    0 -0.42566764206E+02  0.31806695491E+02  0.78742932557E+02  0.94994972082E+02  0.00000000000E+00 0.  1.
</event>
<event>
 7    1  0.2184156E-005  0.1306841E+03  0.7561462E-02  0.1226444E+00
          2   -1    0    0  501    0  0.00000000000E+00  0.00000000000E+00  0.27029156747E+02  0.27029156747E+02  0.00000000000E+00 0. -1.
         -2   -1    0    0    0  501 -0.00000000000E+00 -0.00000000000E+00 -0.66928236861E+03  0.66928236861E+03  0.00000000000E+00 0.  1.
         23    2    1    2    0    0  0.33224730297E+02 -0.64858253472E+02 -0.24781468154E+03  0.27392834950E+03  0.91181952853E+02 0.  0.
          5    1    1    2  502    0 -0.81231559375E+02  0.53405025952E+02 -0.21065821098E+03  0.23204529146E+03  0.41800000000E+01 0. -1.
         -5    1    1    2    0  502  0.48006829077E+02  0.11453227519E+02 -0.18378031935E+03  0.19033788440E+03  0.41800000000E+01 0.  1.
        -11    1    3    3    0    0  0.57967920435E+02 -0.68264716965E+02 -0.16916921080E+03  0.19141205099E+03  0.00000000000E+00 0.  1.
         11    1    3    3    0    0 -0.24743190138E+02  0.34064634935E+01 -0.78645470732E+02  0.82516298502E+02  0.00000000000E+00 0. -1.
</event>
<event>
 8    1  0.2184156E-005  0.8910087E+02  0.7561462E-02  0.1305044E+00
          3   -1    0    0  501    0  0.00000000000E+00  0.00000000000E+00  0.24811481342E+03  0.24811481342E+03  0.00000000000E+00 0. -1.
         -3   -1    0    0    0  501 -0.00000000000E+00 -0.00000000000E+00 -0.60572761413E+02  0.60572761413E+02  0.00000000000E+00 0.  1.
         23    2    1    2    0    0  0.52591554292E+02  0.14521018756E+02  0.63667624975E+02  0.12437859581E+03  0.91868041547E+02 0.  0.
         23    2    1    2    0    0 -0.52591554292E+02 -0.14521018756E+02  0.12387442704E+03  0.18430897902E+03  0.12509274362E+03 0.  0.
          5    1    4    4  502    0  0.46331053195E+01  0.11842183568E+02 -0.21775450742E+02  0.25560626588E+02  0.41800000000E+01 0. -1.
         -5    1    4    4    0  502 -0.57224659612E+02 -0.26363202323E+02  0.14564987778E+03  0.15874835244E+03  0.41800000000E+01 0. -1.
        -11    1    3    3    0    0  0.65473582039E+02 -0.16979492953E+02  0.59511874970E+02  0.90093042953E+02  0.00000000000E+00 0. -1.
         11    1    3    3    0    0 -0.12882027747E+02  0.31500511709E+02  0.41557500045E+01  0.34285552860E+02  0.00000000000E+00 0.  1.
</event>
<event>
 8    1  0.2184156E-005  0.1375128E+03  0.7561462E-02  0.1216715E+00
          2   -1    0    0  501    0  0.00000000000E+00  0.00000000000E+00  0.44600813776E+03  0.44600813776E+03  0.00000000000E+00 0. -1.
         -2   -1    0    0    0  501 -0.00000000000E+00 -0.00000000000E+00 -0.46859589175E+02  0.46859589175E+02  0.00000000000E+00 0.  1.
         23    2    1    2    0    0  0.28728363944E+02 -0.89400787839E+02  0.15345431912E+03  0.20161022029E+03  0.90997984083E+02 0.  0.
         23    2    1    2    0    0 -0.28728363944E+02  0.89400787839E+02  0.24569422946E+03  0.29125750665E+03  0.12508981183E+03 0.  0.
          5    1    4    4  502    0 -0.13977762543E+02  0.11912366683E+03  0.16608469706E+03  0.20490833278E+03  0.41800000000E+01 0. -1.
         -5    1    4    4    0  502 -0.14750601402E+02 -0.29722878996E+02  0.79609532402E+02  0.86349173863E+02  0.41800000000E+01 0. -1.
        -11    1    3    3    0    0 -0.22045709521E+02 -0.42849568260E+01  0.48309459690E+01  0.22971987338E+02  0.00000000000E+00 0.  1.
         11    1    3    3    0    0  0.50774073465E+02 -0.85115831013E+02  0.14862337315E+03  0.17863823295E+03  0.00000000000E+00 0. -1.
</event>
<event>
 8    1  0.2184156E-005  0.1759238E+03  0.7561462E-02  0.1171807E+00
          2   -1    0    0  501    0  0.00000000000E+00  0.00000000000E+00  0.80844163037E+03  0.80844163037E+03  0.00000000000E+00 0. -1.
         -2   -1    0    0    0  501 -0.00000000000E+00 -0.00000000000E+00 -0.44682042906E+02  0.44682042906E+02  0.00000000000E+00 0.  1.
         23    2    1    2    0    0 -0.73117018652E+02  0.13313640856E+03  0.27871172991E+03  0.32968268599E+03  0.89101309469E+02 0.  0.
         23    2    1    2    0    0  0.73117018652E+02 -0.13313640856E+03  0.48504785756E+03  0.52344098729E+03  0.12509053263E+03 0.  0.
          5    1    4    4  502    0  0.10865435155E+03 -0.10299347985E+03  0.35887526759E+03  0.38887318639E+03  0.41800000000E+01 0.  1.
         -5    1    4    4    0  502 -0.35537332901E+02 -0.30142928712E+02  0.12617258996E+03  0.13456780090E+03  0.41800000000E+01 0.  1.
        -11    1    3    3    0    0 -0.56967937166E+02  0.70673712374E+02  0.23453963526E+03  0.25149345915E+03  0.00000000000E+00 0. -1.
         11    1    3    3    0    0 -0.16149081485E+02  0.62462696190E+02  0.44172094648E+02  0.78189226839E+02  0.00000000000E+00 0.  1.
</event>
<event>
 8    1  0.2184156E-005  0.1274219E+03  0.7561462E-02  0.1231332E+00
         -1   -1    0    0    0  501 -0.00000000000E+00  0.00000000000E+00  0.52626553002E+02  0.52626553002E+02  0.00000000000E+00 0.  1.
          1   -1    0    0  501    0  0.00000000000E+00 -0.00000000000E+00 -0.37337465056E+03  0.37337465056E+03  0.00000000000E+00 0. -1.
         23    2    1    2    0    0 -0.64528122060E+02 -0.36225424123E+02 -0.74675735387E+02  0.14020501189E+03  0.92762169093E+02 0.  0.
         23    2    1    2    0    0  0.64528122060E+02  0.36225424123E+02 -0.24607236217E+03  0.28579619167E+03  0.12510673786E+03 0.  0.
          5    1    4    4  502    0 -0.22950865870E+02 -0.23721545324E+02 -0.98914075798E+02  0.10435957430E+03  0.41800000000E+01 0.  1.
         -5    1    4    4    0  502  0.87478987930E+02  0.59946969447E+02 -0.14715828637E+03  0.18143661737E+03  0.41800000000E+01 0.  1.
        -11    1    3    3    0    0 -0.86888001303E+02 -0.32539908136E+02 -0.45716410966E+02  0.10343287980E+03  0.00000000000E+00 0.  1.
         11    1    3    3    0    0  0.22359879242E+02 -0.36855159874E+01 -0.28959324421E+02  0.36772132094E+02  0.00000000000E+00 0. -1.
</event>
<event>
 8    1  0.2184156E-005  0.1056100E+03  0.7561462E-02  0.1268922E+00
          2   -1    0    0  501    0  0.00000000000E+00  0.00000000000E+00  0.58142945839E+03  0.58142945839E+03  0.00000000000E+00 0. -1.
         -2   -1    0    0    0  501 -0.00000000000E+00 -0.00000000000E+00 -0.27431666131E+02  0.27431666131E+02  0.00000000000E+00 0.  1.
         23    2    1    2    0    0 -0.42569113165E+02 -0.30489105308E+02  0.16450472930E+03  0.19643648595E+03  0.93721780355E+02 0.  0.
         23    2    1    2    0    0  0.42569113165E+02  0.30489105308E+02  0.38949306296E+03  0.41242463857E+03  0.12509005343E+03 0.  0.
          5    1    4    4  502    0  0.79449392463E+02  0.73573573157E+01  0.16044259837E+03  0.17923625872E+03  0.41800000000E+01 0.  1.
         -5    1    4    4    0  502 -0.36880279298E+02  0.23131747992E+02  0.22905046460E+03  0.23318837985E+03  0.41800000000E+01 0.  1.
        -11    1    3    3    0    0 -0.58045958246E+02 -0.56497566727E+01  0.15509001344E+03  0.16569298503E+03  0.00000000000E+00 0. -1.
         11    1    3    3    0    0  0.15476845081E+02 -0.24839348635E+02  0.94147158610E+01  0.30743500924E+02  0.00000000000E+00 0.  1.
</event>
<event>
 8    1  0.2184156E-005  0.1369427E+03  0.7561462E-02  0.1217503E+00
         -1   -1    0    0    0  501 -0.00000000000E+00  0.00000000000E+00  0.22595928348E+02  0.22595928348E+02  0.00000000000E+00 0.  1.
          1   -1    0    0  501    0  0.00000000000E+00 -0.00000000000E+00 -0.10045970644E+04  0.10045970644E+04  0.00000000000E+00 0. -1.
         23    2    1    2    0    0  0.34018181169E+02  0.96276431410E+02 -0.51832019799E+03  0.53619953491E+03  0.91802645371E+02 0.  0.
         23    2    1    2    0    0 -0.34018181169E+02 -0.96276431410E+02 -0.46368093811E+03  0.49099345789E+03  0.12509266736E+03 0.  0.
          5    1    4    4  502    0 -0.64483270902E+02 -0.76043703722E+02 -0.18778946922E+03  0.21265722243E+03  0.41800000000E+01 0.  1.
         -5    1    4    4    0  502  0.30465089733E+02 -0.20232727689E+02 -0.27589146889E+03  0.27833623546E+03  0.41800000000E+01 0.  1.
        -11    1    3    3    0    0  0.65181029891E+02  0.53298843459E+02 -0.32289333425E+03  0.33369063319E+03  0.00000000000E+00 0.  1.
         11    1    3    3    0    0 -0.31162848722E+02  0.42977587951E+02 -0.19542686373E+03  0.20250890172E+03  0.00000000000E+00 0. -1.
</event>
<event>
 8    1  0.2184156E-005  0.7716617E+02  0.7561462E-02  0.1337291E+00
          2   -1    0    0  501    0  0.00000000000E+00  0.00000000000E+00  0.22036435728E+03  0.22036435728E+03  0.00000000000E+00 0. -1.
         -2   -1    0    0    0  501 -0.00000000000E+00 -0.00000000000E+00 -0.73949238122E+02  0.73949238122E+02  0.00000000000E+00 0.  1.
         23    2    1    2    0    0  0.49224194454E+02 -0.21066021317E+02  0.16485115412E+02  0.10617699036E+03  0.90194210894E+02 0.  0.
         23    2    1    2    0    0 -0.49224194454E+02  0.21066021317E+02  0.12993000374E+03  0.18813660504E+03  0.12508708050E+03 0.  0.
          5    1    4    4  502    0 -0.22581527457E+02 -0.16089721100E+02 -0.17949859137E+02  0.33293758430E+02  0.41800000000E+01 0. -1.
         -5    1    4    4    0  502 -0.26642666997E+02  0.37155742416E+02  0.14787986288E+03  0.15484284660E+03  0.41800000000E+01 0. -1.
        -11    1    3    3    0    0  0.42931101007E+02 -0.41068491078E+02  0.42290670377E+02  0.72925998067E+02  0.00000000000E+00 0. -1.
         11    1    3    3    0    0  0.62930934474E+01  0.20002469761E+02 -0.25805554965E+02  0.33250992297E+02  0.00000000000E+00 0.  1.
</event>
<event>
 8    1  0.2184156E-005  0.8019104E+02  0.7561462E-02  0.1328510E+00
          1   -1    0    0  501    0  0.00000000000E+00  0.00000000000E+00  0.74603020007E+02  0.74603020007E+02  0.00000000000E+00 0. -1.
         -1   -1    0    0    0  501 -0.00000000000E+00 -0.00000000000E+00 -0.16910541575E+03  0.16910541575E+03  0.00000000000E+00 0.  1.
         23    2    1    2    0    0 -0.28300047074E+02 -0.91831945371E+01 -0.48135278994E+02  0.10701891747E+03  0.90834023840E+02 0.  0.
         23    2    1    2    0    0  0.28300047074E+02  0.91831945371E+01 -0.46367116748E+02  0.13668951828E+03  0.12509552816E+03 0.  0.
          5    1    4    4  502    0  0.84112490591E+01  0.45173861298E+02  0.26285933427E+02  0.53102255616E+02  0.41800000000E+01 0.  1.
         -5    1    4    4    0  502  0.19888798015E+02 -0.35990666761E+02 -0.72653050175E+02  0.83587262667E+02  0.41800000000E+01 0.  1.
        -11    1    3    3    0    0  0.17320329839E+02 -0.19557625853E+02  0.13684180342E+02  0.29491547033E+02  0.00000000000E+00 0. -1.
         11    1    3    3    0    0 -0.45620376913E+02  0.10374431316E+02 -0.61819459336E+02  0.77527370440E+02  0.00000000000E+00 0.  1.
</event>
<event>
 7    1  0.2184156E-005  0.8507708E+02  0.7561462E-02  0.1315231E+00
         -1   -1    0    0    0  501 -0.00000000000E+00  0.00000000000E+00  0.53615044578E+02  0.53615044578E+02  0.00000000000E+00 0.  1.
          1   -1    0    0  501    0  0.00000000000E+00 -0.00000000000E+00 -0.31063515241E+03  0.31063515241E+03  0.00000000000E+00 0. -1.
         23    2    1    2    0    0  0.15249331735E+02  0.24450490949E+02 -0.28100399518E+03  0.30337154046E+03  0.11063759591E+03 0.  0.
          5    1    3    3  502    0 -0.25044220866E+02  0.56974814572E+02 -0.15411028536E+03  0.16625521029E+03  0.41800000000E+01 0. -1.
         -5    1    3    3    0  502  0.40293552601E+02 -0.32524323622E+02 -0.12689370981E+03  0.13711633017E+03  0.41800000000E+01 0.  1.
        -11    1    1    2    0    0 -0.51343480109E+01  0.14605940550E+02  0.85200212287E+01  0.17671609734E+02  0.00000000000E+00 0. -1.
         11    1    1    2    0    0 -0.10114983724E+02 -0.39056431499E+02  0.15463866119E+02  0.43207046792E+02  0.00000000000E+00 0.  1.
</event>
<event>
 8    1  0.2184156E-005  0.1131736E+03  0.7561462E-02  0.1254803E+00
         -2   -1    0    0    0  501 -0.00000000000E+00  0.00000000000E+00  0.18009977891E+03  0.18009977891E+03  0.00000000000E+00 0. -1.
          2   -1    0    0  501    0  0.00000000000E+00 -0.00000000000E+00 -0.88980210260E+02  0.88980210260E+02  0.00000000000E+00 0.  1.
         23    2    1    2    0    0  0.34939057114E+01  0.58096115890E+02  0.72289032098E+02  0.12983441948E+03  0.90795959495E+02 0.  0.
         23    2    1    2    0    0 -0.34939057114E+01 -0.58096115890E+02  0.18830536550E+02  0.13924556969E+03  0.12508946204E+03 0.  0.
          5    1    4    4  502    0 -0.17805524805E+02  0.34308356344E+02  0.23676086900E+02  0.45520649375E+02  0.41800000000E+01 0. -1.
         -5    1    4    4    0  502  0.14311619094E+02 -0.92404472234E+02 -0.48455503502E+01  0.93724920315E+02  0.41800000000E+01 0. -1.
        -11    1    3    3    0    0  0.29490137962E+02 -0.78888860932E+00  0.56221423713E+02  0.63491251890E+02  0.00000000000E+00 0. -1.
         11    1    3    3    0    0 -0.25996232251E+02  0.58885004499E+02  0.16067608384E+02  0.66343167586E+02  0.00000000000E+00 0.  1.
</event>
<event>
 8    1  0.2184156E-005  0.2395909E+03  0.7561462E-02  0.1120066E+00
         -2   -1    0    0    0  501 -0.00000000000E+00  0.00000000000E+00  0.37533478950E+02  0.37533478950E+02  0.00000000000E+00 0.  1.
          2   -1    0    0  501    0  0.00000000000E+00 -0.00000000000E+00 -0.22300703523E+04  0.22300703523E+04  0.00000000000E+00 0. -1.
         23    2    1    2    0    0  0.10821150241E+03 -0.20124649115E+03 -0.52425015425E+03  0.57910093956E+03  0.91158074333E+02 0.  0.
         23    2    1    2    0    0 -0.10821150241E+03  0.20124649115E+03 -0.16682867191E+04  0.16885028917E+04  0.12510618954E+03 0.  0.
          5    1    4    4  502    0 -0.10143284526E+03  0.20688102243E+03 -0.16593411456E+04  0.16752668114E+04  0.41800000000E+01 0. -1.
         -5    1    4    4    0  502 -0.67786571486E+01 -0.56345312808E+01 -0.89455734605E+01  0.13236080237E+02  0.41800000000E+01 0. -1.
        -11    1    3    3    0    0  0.18540648045E+02 -0.10812278603E+03 -0.31035991219E+03  0.32917710671E+03  0.00000000000E+00 0. -1.
         11    1    3    3    0    0  0.89670854363E+02 -0.93123705119E+02 -0.21389024206E+03  0.24992383285E+03  0.00000000000E+00 0.  1.
</event>
<event>
 8    1  0.2184156E-005  0.1834430E+03  0.7561462E-02  0.1164512E+00
         -2   -1    0    0    0  501 -0.00000000000E+00  0.00000000000E+00  0.77329824552E+03  0.77329824552E+03  0.00000000000E+00 0.  1.
          2   -1    0    0  501    0  0.00000000000E+00 -0.00000000000E+00 -0.59867941133E+02  0.59867941133E+02  0.00000000000E+00 0. -1.
         23    2    1    2    0    0  0.15841805220E+03 -0.34326956615E+02  0.51688809241E+03  0.54935067943E+03  0.91314017002E+02 0.  0.
         23    2    1    2    0    0 -0.15841805220E+03  0.34326956615E+02  0.19654221197E+03  0.28381550722E+03  0.12509109416E+03 0.  0.
          5    1    4    4  502    0 -0.29529204522E+02 -0.42681951318E+02  0.32416573944E+02  0.61335385825E+02  0.41800000000E+01 0. -1.
         -5    1    4    4    0  502 -0.12888884768E+03  0.77008907933E+02  0.16412563803E+03  0.22248012140E+03  0.41800000000E+01 0. -1.
        -11    1    3    3    0    0  0.78328150120E+02 -0.23045176068E+01  0.37660868325E+03  0.38467481098E+03  0.00000000000E+00 0.  1.
         11    1    3    3    0    0  0.80089902083E+02 -0.32022439008E+02  0.14027940916E+03  0.16467586845E+03  0.00000000000E+00 0. -1.
</event>
<event>
 8    1  0.2184156E-005  0.1229996E+03  0.7561462E-02  0.1238229E+00
         -1   -1    0    0    0  501 -0.00000000000E+00  0.00000000000E+00  0.10803521372E+03  0.10803521372E+03  0.00000000000E+00 0.  1.
          1   -1    0    0  501    0  0.00000000000E+00 -0.00000000000E+00 -0.17203065760E+03  0.17203065760E+03  0.00000000000E+00 0. -1.
         23    2    1    2    0    0  0.39017515132E+01  0.81577289917E+02 -0.19937093699E+02  0.12431633938E+03  0.91580492667E+02 0.  0.
         23    2    1    2    0    0 -0.39017515132E+01 -0.81577289917E+02 -0.44058350179E+02  0.15574953194E+03  0.12508677222E+03 0.  0.
          5    1    4    4  502    0 -0.24289089323E+02 -0.96967971974E+02  0.51127980830E+01  0.10018163780E+03  0.41800000000E+01 0.  1.
         -5    1    4    4    0  502  0.20387337810E+02  0.15390682057E+02 -0.49171148262E+02  0.55567894135E+02  0.41800000000E+01 0.  1.
        -11    1    3    3    0    0  0.36826433521E+02  0.78850719639E+02 -0.25783386860E+02  0.90765661080E+02  0.00000000000E+00 0.  1.
         11    1    3    3    0    0 -0.32924682008E+02  0.27265702781E+01  0.58462931613E+01  0.33550678302E+02  0.00000000000E+00 0. -1.
</event>
<event>
 8    1  0.2184156E-005  0.1475928E+03  0.7561462E-02  0.1203462E+00
          2   -1    0    0  501    0  0.00000000000E+00  0.00000000000E+00  0.77960764632E+03  0.77960764632E+03  0.00000000000E+00 0. -1.
         -2   -1    0    0    0  501 -0.00000000000E+00 -0.00000000000E+00 -0.33446869359E+02  0.33446869359E+02  0.00000000000E+00 0.  1.
         23    2    1    2    0    0  0.60007158651E+02  0.10326347279E+03  0.37134057456E+03  0.40025538218E+03  0.89701419986E+02 0.  0.
         23    2    1    2    0    0 -0.60007158651E+02 -0.10326347279E+03  0.37482020240E+03  0.41279913350E+03  0.12509491033E+03 0.  0.
          5    1    4    4  502    0  0.19328964780E+02 -0.56772624688E+02  0.60550942420E+02  0.85326600902E+02  0.41800000000E+01 0. -1.
         -5    1    4    4    0  502 -0.79336123431E+02 -0.46490848097E+02  0.31426925998E+03  0.32747253260E+03  0.41800000000E+01 0. -1.
        -11    1    3    3    0    0  0.79456414174E+02  0.84601749474E+02  0.24539886786E+03  0.27146156655E+03  0.00000000000E+00 0.  1.
         11    1    3    3    0    0 -0.19449255523E+02  0.18661723311E+02  0.12594170670E+03  0.12879381563E+03  0.00000000000E+00 0. -1.
</event>
<event>
 8    1  0.2184156E-005  0.7923527E+02  0.7561462E-02  0.1331236E+00
          2   -1    0    0  501    0  0.00000000000E+00  0.00000000000E+00  0.84104710264E+02  0.84104710264E+02  0.00000000000E+00 0. -1.
         -2   -1    0    0    0  501 -0.00000000000E+00 -0.00000000000E+00 -0.15609154486E+03  0.15609154486E+03  0.00000000000E+00 0.  1.
         23    2    1    2    0    0  0.21805589560E+01  0.10356336622E+02 -0.67513851430E+02  0.11457993540E+03  0.91969739135E+02 0.  0.
         23    2    1    2    0    0 -0.21805589560E+01 -0.10356336622E+02 -0.44729831609E+01  0.12561631972E+03  0.12508974241E+03 0.  0.
          5    1    4    4  502    0 -0.42954231731E+02  0.22925990140E+01  0.43461267763E+02  0.61291730514E+02  0.41800000000E+01 0.  1.
         -5    1    4    4    0  502  0.40773672775E+02 -0.12648935636E+02 -0.47934250924E+02  0.64324589202E+02  0.41800000000E+01 0.  1.
        -11    1    3    3    0    0  0.31289725033E+02  0.24740049533E+02 -0.71493057132E+02  0.81868028935E+02  0.00000000000E+00 0.  1.
         11    1    3    3    0    0 -0.29109166077E+02 -0.14383712911E+02  0.39792057024E+01  0.32711906469E+02  0.00000000000E+00 0. -1.
</event>
<event>
 8    1  0.2184156E-005  0.1056908E+03  0.7561462E-02  0.1268765E+00
         -1   -1    0    0    0  501 -0.00000000000E+00  0.00000000000E+00  0.27306670990E+02  0.27306670990E+02  0.00000000000E+00 0.  1.
          1   -1    0    0  501    0  0.00000000000E+00 -0.00000000000E+00 -0.92655985885E+03  0.92655985885E+03  0.00000000000E+00 0. -1.
         23    2    1    2    0    0  0.18988647555E+02 -0.31315057612E+02 -0.84441052103E+02  0.12869695791E+03  0.89952288059E+02 0.  0.
         23    2    1    2    0    0 -0.18988647555E+02  0.31315057612E+02 -0.81481213576E+03  0.82516957193E+03  0.12507919206E+03 0.  0.
          5    1    4    4  502    0  0.43681576880E+02 -0.11215784124E+02 -0.17070625317E+03  0.17661248892E+03  0.41800000000E+01 0.  1.
         -5    1    4    4    0  502 -0.62670224435E+02  0.42530841735E+02 -0.64410588259E+03  0.64855708301E+03  0.41800000000E+01 0.  1.
        -11    1    3    3    0    0 -0.20781604482E+02  0.17571774114E+02 -0.49880927295E+02  0.56822084071E+02  0.00000000000E+00 0. -1.
         11    1    3    3    0    0  0.39770252038E+02 -0.48886831725E+02 -0.34560124808E+02  0.71874873843E+02  0.00000000000E+00 0.  1.
</event>
<event>
 8    1  0.2184156E-005  0.1047930E+03  0.7561462E-02  0.1270528E+00
         -2   -1    0    0    0  501 -0.00000000000E+00  0.00000000000E+00  0.41311365261E+02  0.41311365261E+02  0.00000000000E+00 0.  1.
          2   -1    0    0  501    0  0.00000000000E+00 -0.00000000000E+00 -0.28405057222E+03  0.28405057222E+03  0.00000000000E+00 0. -1.
         23    2    1    2    0    0  0.22515540012E+01  0.50337736103E+01 -0.11351657424E+03  0.14543414046E+03  0.90745072649E+02 0.  0.
         23    2    1    2    0    0 -0.22515540012E+01 -0.50337736103E+01 -0.12922263272E+03  0.17992779703E+03  0.12508043398E+03 0.  0.
          5    1    4    4  502    0  0.59200757269E+02  0.82864805698E+01 -0.46032561052E+02  0.75563645349E+02  0.41800000000E+01 0. -1.
         -5    1    4    4    0  502 -0.61452311270E+02 -0.13320254180E+02 -0.83190071668E+02  0.10436415168E+03  0.41800000000E+01 0. -1.
        -11    1    3    3    0    0  0.44214321333E+02  0.63074818218E+01 -0.80363112679E+02  0.91939765158E+02  0.00000000000E+00 0.  1.
         11    1    3    3    0    0 -0.41962767332E+02 -0.12737082114E+01 -0.33153461564E+02  0.53494375298E+02  0.00000000000E+00 0. -1.
</event>
<event>
 8    1  0.2184156E-005  0.8899852E+02  0.7561462E-02  0.1305295E+00
         -3   -1    0    0    0  501 -0.00000000000E+00  0.00000000000E+00  0.34130295443E+03  0.34130295443E+03  0.00000000000E+00 0.  1.
          3   -1    0    0  501    0  0.00000000000E+00 -0.00000000000E+00 -0.39194505519E+02  0.39194505519E+02  0.00000000000E+00 0. -1.
         23    2    1    2    0    0  0.51774660078E+01 -0.25546842276E+02  0.18203804152E+03  0.20515831414E+03  0.90954043319E+02 0.  0.
         23    2    1    2    0    0 -0.51774660078E+01  0.25546842276E+02  0.12007040738E+03  0.17533914580E+03  0.12508983179E+03 0.  0.
          5    1    4    4  502    0  0.88767510800E+01 -0.38969252117E+02  0.97462043531E+02  0.10542163748E+03  0.41800000000E+01 0. -1.
         -5    1    4    4    0  502 -0.14054217088E+02  0.64516094392E+02  0.22608363853E+02  0.69917508320E+02  0.41800000000E+01 0. -1.
        -11    1    3    3    0    0  0.28412343472E+02  0.91876932123E+01  0.14878836428E+03  0.15175523817E+03  0.00000000000E+00 0.  1.
         11    1    3    3    0    0 -0.23234877464E+02 -0.34734535488E+02  0.33249677245E+02  0.53403075971E+02  0.00000000000E+00 0. -1.
</event>
<event>
 8    1  0.2184156E-005  0.9884784E+02  0.7561462E-02  0.1282738E+00
          2   -1    0    0  501    0  0.00000000000E+00  0.00000000000E+00  0.17664563061E+03  0.17664563061E+03  0.00000000000E+00 0. -1.
         -2   -1    0    0    0  501 -0.00000000000E+00 -0.00000000000E+00 -0.83856848187E+02  0.83856848187E+02  0.00000000000E+00 0.  1.
         23    2    1    2    0    0 -0.11771129266E+02 -0.29078381951E+02 -0.13179784558E+02  0.93587350446E+02  0.87182416010E+02 0.  0.
         23    2    1    2    0    0  0.11771129266E+02  0.29078381951E+02  0.10596856698E+03  0.16691512835E+03  0.12508881286E+03 0.  0.
          5    1    4    4  502    0 -0.27737921539E+02  0.66035107399E+02  0.77604527115E+02  0.10568804440E+03  0.41800000000E+01 0.  1.
         -5    1    4    4    0  502  0.39509050805E+02 -0.36956725448E+02  0.28364039863E+02  0.61227083947E+02  0.41800000000E+01 0.  1.
        -11    1    3    3    0    0  0.15494322004E+02 -0.39553738995E+02  0.22019153580E+02  0.47847835972E+02  0.00000000000E+00 0. -1.
         11    1    3    3    0    0 -0.27265451271E+02  0.10475357044E+02 -0.35198938139E+02  0.45739514474E+02  0.00000000000E+00 0.  1.
</event>
<event>
 8    1  0.2184156E-005  0.9592154E+02  0.7561462E-02  0.1289114E+00
          2   -1    0    0  501    0  0.00000000000E+00  0.00000000000E+00  0.91369801437E+03  0.91369801437E+03  0.00000000000E+00 0. -1.
         -2   -1    0    0    0  501 -0.00000000000E+00 -0.00000000000E+00 -0.15930629656E+02  0.15930629656E+02  0.00000000000E+00 0.  1.
         23    2    1    2    0    0 -0.13411111354E+02  0.26764680238E+02  0.22317867451E+03  0.24288733509E+03  0.91045761969E+02 0.  0.
         23    2    1    2    0    0  0.13411111354E+02 -0.26764680238E+02  0.67458871020E+03  0.68674130894E+03  0.12508993347E+03 0.  0.
          5    1    4    4  502    0  0.54248772930E+02 -0.52305758644E+02  0.31493001746E+03  0.32384751049E+03  0.41800000000E+01 0.  1.
         -5    1    4    4    0  502 -0.40837661576E+02  0.25541078406E+02  0.35965869274E+03  0.36289379845E+03  0.41800000000E+01 0.  1.
        -11    1    3    3    0    0  0.24327014602E+02  0.14595481929E+02  0.17307159015E+02  0.33232055088E+02  0.00000000000E+00 0.  1.
         11    1    3    3    0    0 -0.37738125957E+02  0.12169198309E+02  0.20587151550E+03  0.20965528000E+03  0.00000000000E+00 0. -1.
</event>
<event>
 8    1  0.2184156E-005  0.9904744E+02  0.7561462E-02  0.1282312E+00
         -1   -1    0    0    0  501 -0.00000000000E+00  0.00000000000E+00  0.26989930104E+02  0.26989930104E+02  0.00000000000E+00 0.  1.
          1   -1    0    0  501    0  0.00000000000E+00 -0.00000000000E+00 -0.55264799741E+03  0.55264799741E+03  0.00000000000E+00 0. -1.
         23    2    1    2    0    0 -0.41643747318E+02  0.45661779682E+01 -0.14354086202E+03  0.17538976520E+03  0.91665364205E+02 0.  0.
         23    2    1    2    0    0  0.41643747318E+02 -0.45661779682E+01 -0.38211720529E+03  0.40424816232E+03  0.12509183222E+03 0.  0.
          5    1    4    4  502    0  0.59804767129E+02  0.44076342780E+02 -0.27857319688E+03  0.28833978668E+03  0.41800000000E+01 0.  1.
         -5    1    4    4    0  502 -0.18161019811E+02 -0.48642520748E+02 -0.10354400842E+03  0.11590837564E+03  0.41800000000E+01 0.  1.
        -11    1    3    3    0    0 -0.36791347198E+02  0.28898298557E+02 -0.22648463388E+02  0.51977569989E+02  0.00000000000E+00 0.  1.
         11    1    3    3    0    0 -0.48524001202E+01 -0.24332120589E+02 -0.12089239863E+03  0.12341219521E+03  0.00000000000E+00 0. -1.
</event>
<event>
 8    1  0.2184156E-005  0.1903925E+03  0.7561462E-02  0.1158108E+00
         -4   -1    0    0    0  501 -0.00000000000E+00  0.00000000000E+00  0.17782652216E+03  0.17782652216E+03  0.00000000000E+00 0.  1.
          4   -1    0    0  501    0  0.00000000000E+00 -0.00000000000E+00 -0.28711911401E+03  0.28711911401E+03  0.00000000000E+00 0. -1.
         23    2    1    2    0    0 -0.15945803103E+03  0.41307502201E+02  0.60158224231E+02  0.19756168144E+03  0.90985892503E+02 0.  0.
         23    2    1    2    0    0  0.15945803103E+03 -0.41307502201E+02 -0.16945081608E+03  0.26738395473E+03  0.12508967495E+03 0.  0.
          5    1    4    4  502    0  0.12259200941E+03 -0.83546559644E+02 -0.10467188434E+03  0.18161085918E+03  0.41800000000E+01 0.  1.
         -5    1    4    4    0  502  0.36866021620E+02  0.42239057443E+02 -0.64778931733E+02  0.85773095550E+02  0.41800000000E+01 0.  1.
        -11    1    3    3    0    0 -0.96189725191E+02  0.55858082653E+02  0.70688565335E+02  0.13179325438E+03  0.00000000000E+00 0.  1.
         11    1    3    3    0    0 -0.63268305837E+02 -0.14550580453E+02 -0.10530341104E+02  0.65768427066E+02  0.00000000000E+00 0. -1.
</event>
<event>
 8    1  0.2184156E-005  0.1158599E+03  0.7561462E-02  0.1250087E+00
          2   -1    0    0  501    0  0.00000000000E+00  0.00000000000E+00  0.18749033858E+03  0.18749033858E+03  0.00000000000E+00 0. -1.
         -2   -1    0    0    0  501 -0.00000000000E+00 -0.00000000000E+00 -0.13666192619E+03  0.13666192619E+03  0.00000000000E+00 0.  1.
         23    2    1    2    0    0 -0.68222052825E+02 -0.88446396370E+02 -0.72139005036E+01  0.14668916023E+03  0.94808522008E+02 0.  0.
         23    2    1    2    0    0  0.68222052825E+02  0.88446396370E+02  0.58042312895E+02  0.17746310454E+03  0.12508888785E+03 0.  0.
          5    1    4    4  502    0  0.49802372546E+02  0.44426152742E+02  0.95549948892E+02  0.11662428774E+03  0.41800000000E+01 0.  1.
         -5    1    4    4    0  502  0.18419680279E+02  0.44020243628E+02 -0.37507635997E+02  0.60838816793E+02  0.41800000000E+01 0.  1.
        -11    1    3    3    0    0 -0.32371315701E+02 -0.68879097117E+02 -0.47180639156E+02  0.89544652610E+02  0.00000000000E+00 0. -1.
         11    1    3    3    0    0 -0.35850737124E+02 -0.19567299252E+02  0.39966738652E+02  0.57144507618E+02  0.00000000000E+00 0.  1.
</event>
<event>
 8    1  0.2184156E-005  0.7905632E+02  0.7561462E-02  0.1331751E+00
          2   -1    0    0  501    0  0.00000000000E+00  0.00000000000E+00  0.10103243637E+03  0.10103243637E+03  0.00000000000E+00 0. -1.
         -2   -1    0    0    0  501 -0.00000000000E+00 -0.00000000000E+00 -0.15940196069E+03  0.15940196069E+03  0.00000000000E+00 0.  1.
         23    2    1    2    0    0 -0.42598337506E+02 -0.50387563407E+02 -0.30375871648E+02  0.11626829691E+03  0.90786003238E+02 0.  0.
         23    2    1    2    0    0  0.42598337506E+02  0.50387563407E+02 -0.27993652672E+02  0.14416610014E+03  0.12508674964E+03 0.  0.
          5    1    4    4  502    0  0.35365331935E+02  0.45154600343E+02 -0.75917116628E+02  0.95239307180E+02  0.41800000000E+01 0.  1.
         -5    1    4    4    0  502  0.72330055712E+01  0.52329630639E+01  0.47923463955E+02  0.48926792961E+02  0.41800000000E+01 0.  1.
        -11    1    3    3    0    0 -0.13589984251E+02 -0.58954465924E+02 -0.51437273060E+02  0.79411018027E+02  0.00000000000E+00 0.  1.
         11    1    3    3    0    0 -0.29008353255E+02  0.85669025167E+01  0.21061401412E+02  0.36857278884E+02  0.00000000000E+00 0. -1.
</event>
<event>
 7    1  0.2184156E-005  0.1156072E+03  0.7561462E-02  0.1250525E+00
         -1   -1    0    0    0  501 -0.00000000000E+00  0.00000000000E+00  0.16107452502E+03  0.16107452502E+03  0.00000000000E+00 0.  1.
          1   -1    0    0  501    0  0.00000000000E+00 -0.00000000000E+00 -0.13537395015E+03  0.13537395015E+03  0.00000000000E+00 0. -1.
         23    2    1    2    0    0  0.20117073486E+02  0.59681689862E+02  0.86570895749E+02  0.14020311437E+03  0.90530616577E+02 0.  0.
          5    1    1    2  502    0 -0.56040693546E+02 -0.57630190086E+01  0.12929500850E+02  0.57951843055E+02  0.41800000000E+01 0. -1.
         -5    1    1    2    0  502  0.35923620060E+02 -0.53918670853E+02 -0.73799821721E+02  0.98293517746E+02  0.41800000000E+01 0.  1.
        -11    1    3    3    0    0  0.34032460278E+02 -0.12524413457E+02  0.22542846100E+02  0.42699522190E+02  0.00000000000E+00 0.  1.
         11    1    3    3    0    0 -0.13915386792E+02  0.72206103318E+02  0.64028049649E+02  0.97503592179E+02  0.00000000000E+00 0. -1.
</event>
<event>
 7    1  0.2184156E-005  0.1147557E+03  0.7561462E-02  0.1252008E+00
          1   -1    0    0  501    0  0.00000000000E+00  0.00000000000E+00  0.35728138483E+03  0.35728138483E+03  0.00000000000E+00 0. -1.
         -1   -1    0    0    0  501 -0.00000000000E+00 -0.00000000000E+00 -0.67510875364E+02  0.67510875364E+02  0.00000000000E+00 0.  1.
         23    2    1    2    0    0 -0.54785856662E+00  0.19938619546E+02  0.11397437844E+02  0.92770623818E+02  0.89881245851E+02 0.  0.
          5    1    1    2  502    0  0.17526586258E+02 -0.77397681934E+02  0.25579931262E+03  0.26785881193E+03  0.41800000000E+01 0. -1.
         -5    1    1    2    0  502 -0.16978727691E+02  0.57459062388E+02  0.22573758999E+02  0.64162824438E+02  0.41800000000E+01 0.  1.
        -11    1    3    3    0    0  0.17150381319E+02 -0.31345890185E+02  0.14192013145E+02  0.38446243614E+02  0.00000000000E+00 0. -1.
         11    1    3    3    0    0 -0.17698239886E+02  0.51284509731E+02 -0.27945753010E+01  0.54324380204E+02  0.00000000000E+00 0.  1.
</event>
<event>
 8    1  0.2184156E-005  0.9535057E+02  0.7561462E-02  0.1290388E+00
          3   -1    0    0  501    0  0.00000000000E+00  0.00000000000E+00  0.45773660299E+02  0.45773660299E+02  0.00000000000E+00 0. -1.
         -3   -1    0    0    0  501 -0.00000000000E+00 -0.00000000000E+00 -0.30267082225E+03  0.30267082225E+03  0.00000000000E+00 0.  1.
         23    2    1    2    0    0 -0.32184657021E+02 -0.96437484017E+01 -0.15255819169E+03  0.18212279535E+03  0.93626153950E+02 0.  0.
         23    2    1    2    0    0  0.32184657021E+02  0.96437484017E+01 -0.10433897027E+03  0.16632168720E+03  0.12508968338E+03 0.  0.
          5    1    4    4  502    0  0.54226807985E+02 -0.19890778269E+02 -0.25286588933E+01  0.57965992445E+02  0.41800000000E+01 0.  1.
         -5    1    4    4    0  502 -0.22042150964E+02  0.29534526670E+02 -0.10181031137E+03  0.10835569476E+03  0.41800000000E+01 0.  1.
        -11    1    3    3    0    0  0.26837070262E+01  0.37204407226E+02 -0.84983840136E+02  0.92809607718E+02  0.00000000000E+00 0.  1.
         11    1    3    3    0    0 -0.34868364047E+02 -0.46848155627E+02 -0.67574351551E+02  0.89313187630E+02  0.00000000000E+00 0. -1.
</event>
<event>
 7    1  0.2184156E-005  0.7537662E+02  0.7561462E-02  0.1342709E+00
         -2   -1    0    0    0  501 -0.00000000000E+00  0.00000000000E+00  0.22083706531E+02  0.22083706531E+02  0.00000000000E+00 0. -1.
          2   -1    0    0  501    0  0.00000000000E+00 -0.00000000000E+00 -0.11283802321E+04  0.11283802321E+04  0.00000000000E+00 0.  1.
         23    2    1    2    0    0 -0.44509164499E+02  0.33277253843E+02 -0.17163863991E+03  0.20298728794E+03  0.93035342790E+02 0.  0.
          5    1    1    2  502    0  0.27125378831E+02 -0.15026076660E+02 -0.33068984270E+02  0.45525808913E+02  0.41800000000E+01 0. -1.
         -5    1    1    2    0  502  0.17383785667E+02 -0.18251177183E+02 -0.90158890139E+03  0.90195084178E+03  0.41800000000E+01 0.  1.
        -11    1    3    3    0    0 -0.62366735866E+02  0.78733241247E+01 -0.59235907667E+02  0.86374138100E+02  0.00000000000E+00 0. -1.
         11    1    3    3    0    0  0.17857571368E+02  0.25403929718E+02 -0.11240273224E+03  0.11661314984E+03  0.00000000000E+00 0.  1.
</event>
<event>
 8    1  0.2184156E-005  0.1658651E+03  0.7561462E-02  0.1182230E+00
          2   -1    0    0  501    0  0.00000000000E+00  0.00000000000E+00  0.78594057888E+03  0.78594057888E+03  0.00000000000E+00 0.  1.
         -2   -1    0    0    0  501 -0.00000000000E+00 -0.00000000000E+00 -0.48670699724E+02  0.48670699724E+02  0.00000000000E+00 0. -1.
         23    2    1    2    0    0  0.15526322931E+03  0.17291799372E+02  0.26217079453E+03  0.31908080894E+03  0.93130877962E+02 0.  0.
         23    2    1    2    0    0 -0.15526322931E+03 -0.17291799372E+02  0.47509908463E+03  0.51553046966E+03  0.12508736243E+03 0.  0.
          5    1    4    4  502    0 -0.51148630556E+02  0.29334525572E+02  0.56960677416E+02  0.82089511936E+02  0.41800000000E+01 0.  1.
         -5    1    4    4    0  502 -0.10411459875E+03 -0.46626324944E+02  0.41813840721E+03  0.43344095773E+03  0.41800000000E+01 0.  1.
        -11    1    3    3    0    0  0.95529713206E+02 -0.24246819272E+01  0.22862265961E+03  0.24779048746E+03  0.00000000000E+00 0.  1.
         11    1    3    3    0    0  0.59733516100E+02  0.19716481299E+02  0.33548134921E+02  0.71290321483E+02  0.00000000000E+00 0. -1.
</event>
<event>
 8    1  0.2184156E-005  0.1095937E+03  0.7561462E-02  0.1261324E+00
          1   -1    0    0  501    0  0.00000000000E+00  0.00000000000E+00  0.20907463376E+04  0.20907463376E+04  0.00000000000E+00 0. -1.
         -1   -1    0    0    0  501 -0.00000000000E+00 -0.00000000000E+00 -0.87175690667E+01  0.87175690667E+01  0.00000000000E+00 0.  1.
         23    2    1    2    0    0  0.37777133985E+02  0.18259584587E+02  0.40528300004E+03  0.41753501873E+03  0.91217637870E+02 0.  0.
         23    2    1    2    0    0 -0.37777133985E+02 -0.18259584587E+02  0.16767457685E+04  0.16819288880E+04  0.12509151711E+03 0.  0.
          5    1    4    4  502    0  0.20890051386E+02  0.36579838057E+02  0.31794416261E+03  0.32074981175E+03  0.41800000000E+01 0.  1.
         -5    1    4    4    0  502 -0.58667185370E+02 -0.54839422644E+02  0.13588016059E+04  0.13611790762E+04  0.41800000000E+01 0.  1.
        -11    1    3    3    0    0 -0.53378166589E+01 -0.30724285330E+02  0.81952418686E+02  0.87685078116E+02  0.00000000000E+00 0.  1.
         11    1    3    3    0    0  0.43114950643E+02  0.48983869916E+02  0.32333058136E+03  0.32984994061E+03  0.00000000000E+00 0. -1.
</event>
<event>
 8    1  0.2184156E-005  0.1364436E+03  0.7561462E-02  0.1218196E+00
         -1   -1    0    0    0  501 -0.00000000000E+00  0.00000000000E+00  0.46129186544E+02  0.46129186544E+02  0.00000000000E+00 0.  1.
          1   -1    0    0  501    0  0.00000000000E+00 -0.00000000000E+00 -0.68441097037E+03  0.68441097037E+03  0.00000000000E+00 0. -1.
         23    2    1    2    0    0 -0.26557514712E+02 -0.10435606810E+03 -0.11483494390E+03  0.18168715301E+03  0.90706486479E+02 0.  0.
         23    2    1    2    0    0  0.26557514712E+02  0.10435606810E+03 -0.52344683992E+03  0.54885300391E+03  0.12509010806E+03 0.  0.
          5    1    4    4  502    0  0.13750662695E+02  0.12312128166E+03 -0.30557162770E+03  0.32975661142E+03  0.41800000000E+01 0.  1.
         -5    1    4    4    0  502  0.12806852016E+02 -0.18765213557E+02 -0.21787521222E+03  0.21909639249E+03  0.41800000000E+01 0.  1.
        -11    1    3    3    0    0  0.20927489695E+02 -0.46427162139E+02 -0.85172418771E+01  0.51633173624E+02  0.00000000000E+00 0.  1.
         11    1    3    3    0    0 -0.47485004407E+02 -0.57928905962E+02 -0.10631770202E+03  0.13005397938E+03  0.00000000000E+00 0. -1.
</event>
<event>
 8    1  0.2184156E-005  0.1463546E+03  0.7561462E-02  0.1205025E+00
          2   -1    0    0  501    0  0.00000000000E+00  0.00000000000E+00  0.11975675074E+03  0.11975675074E+03  0.00000000000E+00 0. -1.
         -2   -1    0    0    0  501 -0.00000000000E+00 -0.00000000000E+00 -0.23466247915E+03  0.23466247915E+03  0.00000000000E+00 0.  1.
         23    2    1    2    0    0 -0.11644880905E+03 -0.46668024972E+02 -0.80749696034E+02  0.17400192580E+03  0.89542878493E+02 0.  0.
         23    2    1    2    0    0  0.11644880905E+03  0.46668024972E+02 -0.34156032376E+02  0.18041730408E+03  0.12508213054E+03 0.  0.
          5    1    4    4  502    0  0.81578600404E+02  0.59953721316E+02 -0.74149567150E+02  0.12555933837E+03  0.41800000000E+01 0. -1.
         -5    1    4    4    0  502  0.34870208645E+02 -0.13285696344E+02  0.39993534773E+02  0.54857965711E+02  0.41800000000E+01 0. -1.
        -11    1    3    3    0    0 -0.10406011923E+03  0.15280833897E+01 -0.49529220054E+02  0.11525618028E+03  0.00000000000E+00 0.  1.
         11    1    3    3    0    0 -0.12388689820E+02 -0.48196108362E+02 -0.31220475981E+02  0.58745745524E+02  0.00000000000E+00 0. -1.
</event>
<event>
 7    1  0.2184156E-005  0.1504388E+03  0.7561462E-02  0.1199935E+00
         -1   -1    0    0    0  501 -0.00000000000E+00  0.00000000000E+00  0.15407895648E+03  0.15407895648E+03  0.00000000000E+00 0.  1.
          1   -1    0    0  501    0  0.00000000000E+00 -0.00000000000E+00 -0.27693063154E+03  0.27693063154E+03  0.00000000000E+00 0. -1.
         23    2    1    2    0    0 -0.35126245893E+02 -0.22930147803E+01  0.87283713626E+02  0.13361860284E+03  0.94849213460E+02 0.  0.
          5    1    1    2  502    0 -0.21088337562E+02 -0.94999301345E+02 -0.10872164498E+03  0.14597072900E+03  0.41800000000E+01 0. -1.
         -5    1    1    2    0  502  0.56214583455E+02  0.97292316126E+02 -0.10141374371E+03  0.15142025618E+03  0.41800000000E+01 0.  1.
        -11    1    3    3    0    0  0.21751894050E+02  0.20375570371E+02  0.59151580041E+02  0.66236079172E+02  0.00000000000E+00 0. -1.
         11    1    3    3    0    0 -0.56878139943E+02 -0.22668585152E+02  0.28132133585E+02  0.67382523670E+02  0.00000000000E+00 0.  1.
</event>
<event>
 8    1  0.2184156E-005  0.8907269E+02  0.7561462E-02  0.1305113E+00
         -1   -1    0    0    0  501 -0.00000000000E+00  0.00000000000E+00  0.79161735507E+02  0.79161735507E+02  0.00000000000E+00 0.  1.
          1   -1    0    0  501    0  0.00000000000E+00 -0.00000000000E+00 -0.15911603988E+03  0.15911603988E+03  0.00000000000E+00 0. -1.
         23    2    1    2    0    0 -0.46470596181E+01 -0.18986471205E+02 -0.54398987520E+01  0.91365006793E+02  0.89083616429E+02 0.  0.
         23    2    1    2    0    0  0.46470596181E+01  0.18986471205E+02 -0.74514405616E+02  0.14691276859E+03  0.12509549823E+03 0.  0.
          5    1    4    4  502    0 -0.48299071131E+02 -0.82768884165E+01 -0.71956855085E+02  0.87158295921E+02  0.41800000000E+01 0.  1.
         -5    1    4    4    0  502  0.52946130749E+02  0.27263359622E+02 -0.25575505305E+01  0.59754472669E+02  0.41800000000E+01 0.  1.
        -11    1    3    3    0    0 -0.12331751341E+02 -0.42643462199E+02  0.25868729902E+02  0.51378284773E+02  0.00000000000E+00 0.  1.
         11    1    3    3    0    0  0.76846917226E+01  0.23656990994E+02 -0.31308628654E+02  0.39986722021E+02  0.00000000000E+00 0. -1.
</event>
<event>
 8    1  0.2184156E-005  0.9021709E+02  0.7561462E-02  0.1302327E+00
         -2   -1    0    0    0  501 -0.00000000000E+00  0.00000000000E+00  0.31550914296E+02  0.31550914296E+02  0.00000000000E+00 0. -1.
          2   -1    0    0  501    0  0.00000000000E+00 -0.00000000000E+00 -0.49113335427E+03  0.49113335427E+03  0.00000000000E+00 0.  1.
         23    2    1    2    0    0 -0.12974618335E+02  0.14043719883E+02 -0.75633884893E+02  0.11841068739E+03  0.89078838982E+02 0.  0.
         23    2    1    2    0    0  0.12974618335E+02 -0.14043719883E+02 -0.38394855508E+03  0.40427358118E+03  0.12512021700E+03 0.  0.
          5    1    4    4  502    0  0.44252625177E+02  0.34818977665E+02 -0.27533996132E+03  0.28106978269E+03  0.41800000000E+01 0. -1.
         -5    1    4    4    0  502 -0.31278006842E+02 -0.48862697548E+02 -0.10860859376E+03  0.12320379849E+03  0.41800000000E+01 0. -1.
        -11    1    3    3    0    0 -0.18869183587E+02 -0.22170559829E+02 -0.76350540047E+02  0.81712818932E+02  0.00000000000E+00 0.  1.
         11    1    3    3    0    0  0.58945652517E+01  0.36214279712E+02  0.71665515420E+00  0.36697868455E+02  0.00000000000E+00 0. -1.
</event>
<event>
 8    1  0.2184156E-005  0.1080458E+03  0.7561462E-02  0.1264232E+00
         -2   -1    0    0    0  501 -0.00000000000E+00  0.00000000000E+00  0.16601978278E+02  0.16601978278E+02  0.00000000000E+00 0.  1.
          2   -1    0    0  501    0  0.00000000000E+00 -0.00000000000E+00 -0.86806869244E+03  0.86806869244E+03  0.00000000000E+00 0. -1.
         23    2    1    2    0    0 -0.67762746158E+01 -0.50049664217E+02 -0.36617439338E+03  0.38097795561E+03  0.92247653119E+02 0.  0.
         23    2    1    2    0    0  0.67762746158E+01  0.50049664217E+02 -0.48529232078E+03  0.50369271511E+03  0.12508728097E+03 0.  0.
          5    1    4    4  502    0 -0.47141211131E+02  0.31499662449E+02 -0.37673727428E+03  0.38100258366E+03  0.41800000000E+01 0.  1.
         -5    1    4    4    0  502  0.53917485747E+02  0.18550001768E+02 -0.10855504650E+03  0.12269013145E+03  0.41800000000E+01 0.  1.
        -11    1    3    3    0    0 -0.14324733941E+02 -0.74817297062E+02 -0.22772150359E+03  0.24012477827E+03  0.00000000000E+00 0.  1.
         11    1    3    3    0    0  0.75484593254E+01  0.24767632844E+02 -0.13845288979E+03  0.14085317734E+03  0.00000000000E+00 0. -1.
</event>
<event>
 8    1  0.2184156E-005  0.1484453E+03  0.7561462E-02  0.1202397E+00
         -1   -1    0    0    0  501 -0.00000000000E+00  0.00000000000E+00  0.13261189106E+02  0.13261189106E+02  0.00000000000E+00 0.  1.
          1   -1    0    0  501    0  0.00000000000E+00 -0.00000000000E+00 -0.22049353591E+04  0.22049353591E+04  0.00000000000E+00 0. -1.
         23    2    1    2    0    0 -0.17679825536E+02  0.11461827905E+03 -0.63148896095E+03  0.64871358951E+03  0.92742047034E+02 0.  0.
         23    2    1    2    0    0  0.17679825536E+02 -0.11461827905E+03 -0.15601852090E+04  0.15694829587E+04  0.12509574333E+03 0.  0.
          5    1    4    4  502    0  0.47804369915E+02 -0.25728951739E+02 -0.99944022446E+03  0.10009223104E+04  0.41800000000E+01 0.  1.
         -5    1    4    4    0  502 -0.30124544378E+02 -0.88889327311E+02 -0.56074498459E+03  0.56856064832E+03  0.41800000000E+01 0.  1.
        -11    1    3    3    0    0  0.22458247562E+02 -0.44032563529E+01 -0.98748737400E+02  0.10136604307E+03  0.00000000000E+00 0.  1.
         11    1    3    3    0    0 -0.40138073098E+02  0.11902153540E+03 -0.53274022355E+03  0.54734754643E+03  0.00000000000E+00 0. -1.
</event>
<event>
 8    1  0.2184156E-005  0.9483089E+02  0.7561462E-02  0.1291557E+00
         -2   -1    0    0    0  501 -0.00000000000E+00  0.00000000000E+00  0.22362991375E+03  0.22362991375E+03  0.00000000000E+00 0.  1.
          2   -1    0    0  501    0  0.00000000000E+00 -0.00000000000E+00 -0.64049777368E+02  0.64049777368E+02  0.00000000000E+00 0. -1.
         23    2    1    2    0    0 -0.29840249162E+02  0.52776029973E+01  0.11936797827E+03  0.15283622616E+03  0.90509138915E+02 0.  0.
         23    2    1    2    0    0  0.29840249162E+02 -0.52776029973E+01  0.40212158113E+02  0.13484346496E+03  0.12508976304E+03 0.  0.
          5    1    4    4  502    0 -0.22942945138E+01  0.57381850254E+02  0.11699814552E+02  0.58756264232E+02  0.41800000000E+01 0.  1.
         -5    1    4    4    0  502  0.32134543676E+02 -0.62659453252E+02  0.28512343561E+02  0.76087200726E+02  0.41800000000E+01 0.  1.
        -11    1    3    3    0    0 -0.15727812740E+02 -0.24197560514E+02  0.11651106641E+03  0.12003213997E+03  0.00000000000E+00 0.  1.
         11    1    3    3    0    0 -0.14112436422E+02  0.29475163511E+02  0.28569118602E+01  0.32804086196E+02  0.00000000000E+00 0. -1.
</event>
<event>
 8    1  0.2184156E-005  0.1050549E+03  0.7561462E-02  0.1270012E+00
          2   -1    0    0  501    0  0.00000000000E+00  0.00000000000E+00  0.89640521612E+02  0.89640521612E+02  0.00000000000E+00 0. -1.
         -2   -1    0    0    0  501 -0.00000000000E+00 -0.00000000000E+00 -0.19195613794E+03  0.19195613794E+03  0.00000000000E+00 0.  1.
         23    2    1    2    0    0 -0.15757197654E+02  0.74086859552E+02 -0.45862238967E+02  0.12484518587E+03  0.88010359817E+02 0.  0.
         23    2    1    2    0    0  0.15757197654E+02 -0.74086859552E+02 -0.56453377362E+02  0.15675147368E+03  0.12508752396E+03 0.  0.
          5    1    4    4  502    0  0.58923986302E+02 -0.37734416069E+02  0.84948449775E+01  0.70608477600E+02  0.41800000000E+01 0.  1.
         -5    1    4    4    0  502 -0.43166788648E+02 -0.36352443482E+02 -0.64948222339E+02  0.86142996084E+02  0.41800000000E+01 0.  1.
        -11    1    3    3    0    0 -0.26679309311E+02  0.44479999837E+02  0.16936920368E+02  0.54562947156E+02  0.00000000000E+00 0. -1.
         11    1    3    3    0    0  0.10922111657E+02  0.29606859715E+02 -0.62799159335E+02  0.70282238712E+02  0.00000000000E+00 0.  1.
</event>
<event>
 8    1  0.2184156E-005  0.8158700E+02  0.7561462E-02  0.1324607E+00
         -1   -1    0    0    0  501 -0.00000000000E+00  0.00000000000E+00  0.14726366277E+02  0.14726366277E+02  0.00000000000E+00 0.  1.
          1   -1    0    0  501    0  0.00000000000E+00 -0.00000000000E+00 -0.97033000880E+03  0.97033000880E+03  0.00000000000E+00 0. -1.
         23    2    1    2    0    0 -0.37845318571E+02  0.20266196845E+02 -0.30312333999E+03  0.31930741474E+03  0.90721987336E+02 0.  0.
         23    2    1    2    0    0  0.37845318571E+02 -0.20266196845E+02 -0.65248030253E+03  0.66574896034E+03  0.12509255026E+03 0.  0.
          5    1    4    4  502    0  0.37270682897E+02 -0.35909435274E+02 -0.64633985884E+03  0.64842214403E+03  0.41800000000E+01 0.  1.
         -5    1    4    4    0  502  0.57463567452E+00  0.15643238429E+02 -0.61404436930E+01  0.17326816310E+02  0.41800000000E+01 0.  1.
        -11    1    3    3    0    0 -0.34129195320E+01 -0.32151875064E+02 -0.15698796074E+03  0.16028290897E+03  0.00000000000E+00 0. -1.
         11    1    3    3    0    0 -0.34432399039E+02  0.52418071908E+02 -0.14613537925E+03  0.15902450577E+03  0.00000000000E+00 0.  1.
</event>
<event>
 8    1  0.2184156E-005  0.1253250E+03  0.7561462E-02  0.1234562E+00
          2   -1    0    0  501    0  0.00000000000E+00  0.00000000000E+00  0.11778246844E+04  0.11778246844E+04  0.00000000000E+00 0.  1.
         -2   -1    0    0    0  501 -0.00000000000E+00 -0.00000000000E+00 -0.22696399826E+02  0.22696399826E+02  0.00000000000E+00 0. -1.
         23    2    1    2    0    0 -0.39683140361E+02 -0.65340857396E+02  0.18956986152E+03  0.22389690225E+03  0.91372376381E+02 0.  0.
         23    2    1    2    0    0  0.39683140361E+02  0.65340857396E+02  0.96555842304E+03  0.97662418197E+03  0.12509014837E+03 0.  0.
          5    1    4    4  502    0  0.13074924334E+02  0.92391213643E+02  0.84548542248E+03  0.85062927414E+03  0.41800000000E+01 0.  1.
         -5    1    4    4    0  502  0.26608216026E+02 -0.27050356247E+02  0.12007300056E+03  0.12599490782E+03  0.41800000000E+01 0.  1.
        -11    1    3    3    0    0 -0.40239570196E+02 -0.87812292453E+02  0.15657828453E+03  0.18397548995E+03  0.00000000000E+00 0.  1.
         11    1    3    3    0    0  0.55642983565E+00  0.22471435058E+02  0.32991576997E+02  0.39921412305E+02  0.00000000000E+00 0. -1.
</event>
<event>
 8    1  0.2184156E-005  0.1156602E+03  0.7561462E-02  0.1250433E+00
         -3   -1    0    0    0  501 -0.00000000000E+00  0.00000000000E+00  0.19882223723E+02  0.19882223723E+02  0.00000000000E+00 0.  1.
          3   -1    0    0  501    0  0.00000000000E+00 -0.00000000000E+00 -0.80452449512E+03  0.80452449512E+03  0.00000000000E+00 0. -1.
         23    2    1    2    0    0  0.35732722792E+02 -0.21620037250E+02 -0.18298293200E+03  0.20846377859E+03  0.90720119561E+02 0.  0.
         23    2    1    2    0    0 -0.35732722792E+02  0.21620037250E+02 -0.60165933941E+03  0.61594294026E+03  0.12508993353E+03 0.  0.
          5    1    4    4  502    0 -0.82585580396E+02  0.11992740678E+02 -0.36148269832E+03  0.37101403950E+03  0.41800000000E+01 0. -1.
         -5    1    4    4    0  502  0.46852857604E+02  0.96272965710E+01 -0.24017664108E+03  0.24492890076E+03  0.41800000000E+01 0. -1.
        -11    1    3    3    0    0 -0.29777909093E+02 -0.16489735727E+02 -0.67395575596E+02  0.75503634775E+02  0.00000000000E+00 0.  1.
         11    1    3    3    0    0  0.65510631885E+02 -0.51303015225E+01 -0.11558735640E+03  0.13296014381E+03  0.00000000000E+00 0. -1.
</event>
<event>
 8    1  0.2332564E-005  0.8776455E+02  0.7561462E-02  0.1308357E+00
          4   -1    0    0  501    0  0.00000000000E+00  0.00000000000E+00  0.50012592645E+02  0.50012592645E+02  0.00000000000E+00 0. -1.
         -4   -1    0    0    0  501 -0.00000000000E+00 -0.00000000000E+00 -0.25694474858E+03  0.25694474858E+03  0.00000000000E+00 0.  1.
         23    2    1    2    0    0  0.19903939537E+02  0.53105107935E+01 -0.10616686967E+03  0.14501503309E+03  0.96610492560E+02 0.  0.
         23    2    1    2    0    0 -0.19903939537E+02 -0.53105107935E+01 -0.10076528626E+03  0.16194230813E+03  0.12508916785E+03 0.  0.
          5    1    4    4  502    0 -0.43436174765E+02 -0.39564228472E+02 -0.10455255490E+03  0.12000307741E+03  0.41800000000E+01 0.  1.
         -5    1    4    4    0  502  0.23532235228E+02  0.34253717678E+02  0.37872686352E+01  0.41939230719E+02  0.41800000000E+01 0.  1.
        -11    1    3    3    0    0  0.13468130127E+02  0.38636699223E+02 -0.10311471687E+03  0.11093615232E+03  0.00000000000E+00 0.  1.
         11    1    3    3    0    0  0.64358094100E+01 -0.33326188429E+02 -0.30521528000E+01  0.34078880772E+02  0.00000000000E+00 0. -1.
</event>
<event>
 8    1  0.2184156E-005  0.1041662E+03  0.7561462E-02  0.1271771E+00
         -1   -1    0    0    0  501 -0.00000000000E+00  0.00000000000E+00  0.11259910356E+02  0.11259910356E+02  0.00000000000E+00 0.  1.
          1   -1    0    0  501    0  0.00000000000E+00 -0.00000000000E+00 -0.11161542133E+04  0.11161542133E+04  0.00000000000E+00 0. -1.
         23    2    1    2    0    0  0.11684801585E+02  0.21695797746E+02 -0.36255403684E+03  0.37420488717E+03  0.89311957366E+02 0.  0.
         23    2    1    2    0    0 -0.11684801585E+02 -0.21695797746E+02 -0.74234026611E+03  0.75320923649E+03  0.12509133069E+03 0.  0.
          5    1    4    4  502    0  0.51693314426E+02  0.19766759610E+01 -0.19897198007E+03  0.20562934435E+03  0.41800000000E+01 0. -1.
         -5    1    4    4    0  502 -0.63378116011E+02 -0.23672473708E+02 -0.54336828604E+03  0.54757989213E+03  0.41800000000E+01 0. -1.
        -11    1    3    3    0    0  0.16090642127E+01 -0.32996772049E+02 -0.19175581958E+03  0.19458075547E+03  0.00000000000E+00 0. -1.
         11    1    3    3    0    0  0.10075737372E+02  0.54692569795E+02 -0.17079821726E+03  0.17962413171E+03  0.00000000000E+00 0.  1.
</event>
<event>
 8    1  0.2184156E-005  0.9985635E+02  0.7561462E-02  0.1280598E+00
         -1   -1    0    0    0  501 -0.00000000000E+00  0.00000000000E+00  0.20883250324E+03  0.20883250324E+03  0.00000000000E+00 0.  1.
          1   -1    0    0  501    0  0.00000000000E+00 -0.00000000000E+00 -0.87352475173E+02  0.87352475173E+02  0.00000000000E+00 0. -1.
         23    2    1    2    0    0 -0.69864153211E+01 -0.22678073353E+02  0.12478190489E+03  0.16881879687E+03  0.11120322557E+03 0.  0.
         23    2    1    2    0    0  0.69864153211E+01  0.22678073353E+02 -0.33018768277E+01  0.12736618154E+03  0.12509251296E+03 0.  0.
          5    1    4    4  502    0  0.90219306840E+01 -0.49993509638E+02  0.13296238438E+02  0.52678350352E+02  0.41800000000E+01 0.  1.
         -5    1    4    4    0  502 -0.20355153629E+01  0.72671582991E+02 -0.16598115266E+02  0.74687831188E+02  0.41800000000E+01 0.  1.
        -11    1    3    3    0    0 -0.22363314819E+02  0.20343963484E+02  0.11898417602E+03  0.12276493328E+03  0.00000000000E+00 0.  1.
         11    1    3    3    0    0  0.15376899498E+02 -0.43022036837E+02  0.57977288757E+01  0.46053863594E+02  0.00000000000E+00 0. -1.
</event>
<event>
 8    1  0.2184156E-005  0.1183626E+03  0.7561462E-02  0.1245823E+00
          2   -1    0    0  501    0  0.00000000000E+00  0.00000000000E+00  0.14500128939E+04  0.14500128939E+04  0.00000000000E+00 0. -1.
         -2   -1    0    0    0  501 -0.00000000000E+00 -0.00000000000E+00 -0.13226137255E+02  0.13226137255E+02  0.00000000000E+00 0.  1.
         23    2    1    2    0    0 -0.20352831079E+02 -0.45801940840E+02  0.27646967499E+03  0.29512281066E+03  0.90276999668E+02 0.  0.
         23    2    1    2    0    0  0.20352831079E+02  0.45801940840E+02  0.11603170817E+04  0.11681162205E+04  0.12509084327E+03 0.  0.
          5    1    4    4  502    0  0.71379588192E+02  0.42704937702E+02  0.74725719398E+03  0.75188399615E+03  0.41800000000E+01 0. -1.
         -5    1    4    4    0  502 -0.51026757114E+02  0.30970031382E+01  0.41305988768E+03  0.41623222434E+03  0.41800000000E+01 0. -1.
        -11    1    3    3    0    0 -0.55753975938E+02 -0.25136357850E+02  0.18607829766E+03  0.19587106775E+03  0.00000000000E+00 0.  1.
         11    1    3    3    0    0  0.35401144859E+02 -0.20665582990E+02  0.90391377322E+02  0.99251742916E+02  0.00000000000E+00 0. -1.
</event>
<event>
 8    1  0.2184156E-005  0.9745065E+02  0.7561462E-02  0.1285750E+00
          2   -1    0    0  501    0  0.00000000000E+00  0.00000000000E+00  0.32978055929E+03  0.32978055929E+03  0.00000000000E+00 0. -1.
         -2   -1    0    0    0  501 -0.00000000000E+00 -0.00000000000E+00 -0.58592301869E+02  0.58592301869E+02  0.00000000000E+00 0.  1.
         23    2    1    2    0    0 -0.69655672019E+02 -0.10913166122E+02  0.53365703925E+02  0.12747920344E+03  0.91826135249E+02 0.  0.
         23    2    1    2    0    0  0.69655672019E+02  0.10913166122E+02  0.21782255349E+03  0.26089365771E+03  0.12509127063E+03 0.  0.
          5    1    4    4  502    0  0.79789962507E+02  0.33394902656E+02  0.71076401888E+02  0.11203117845E+03  0.41800000000E+01 0.  1.
         -5    1    4    4    0  502 -0.10134290488E+02 -0.22481736534E+02  0.14674615160E+03  0.14886247926E+03  0.41800000000E+01 0.  1.
        -11    1    3    3    0    0 -0.99332829636E+01  0.15161211827E+02 -0.21568163173E+02  0.28173003339E+02  0.00000000000E+00 0.  1.
         11    1    3    3    0    0 -0.59722389056E+02 -0.26074377949E+02  0.74933867099E+02  0.99306200100E+02  0.00000000000E+00 0. -1.
</event>
<event>
 8    1  0.2184156E-005  0.2295602E+03  0.7561462E-02  0.1126950E+00
         -2   -1    0    0    0  501 -0.00000000000E+00  0.00000000000E+00  0.50988491937E+02  0.50988491937E+02  0.00000000000E+00 0.  1.
          2   -1    0    0  501    0  0.00000000000E+00 -0.00000000000E+00 -0.13226807190E+04  0.13226807190E+04  0.00000000000E+00 0. -1.
         23    2    1    2    0    0 -0.17215165575E+03  0.11453645888E+03 -0.31866082436E+03  0.39047412516E+03  0.90390975485E+02 0.  0.
         23    2    1    2    0    0  0.17215165575E+03 -0.11453645888E+03 -0.95303140274E+03  0.98319508581E+03  0.12509568004E+03 0.  0.
          5    1    4    4  502    0  0.55487175545E+02 -0.11131899463E+03 -0.46219868092E+03  0.47866046239E+03  0.41800000000E+01 0. -1.
         -5    1    4    4    0  502  0.11666448021E+03 -0.32174642491E+01 -0.49083272182E+03  0.50453462342E+03  0.41800000000E+01 0. -1.
        -11    1    3    3    0    0 -0.15746864394E+03  0.72498002803E+02 -0.28888274000E+03  0.33690587960E+03  0.00000000000E+00 0. -1.
         11    1    3    3    0    0 -0.14683011807E+02  0.42038456073E+02 -0.29778084356E+02  0.53568245563E+02  0.00000000000E+00 0.  1.
</event>
<event>
 8    1  0.2184156E-005  0.1123367E+03  0.7561462E-02  0.1256303E+00
         -1   -1    0    0    0  501 -0.00000000000E+00  0.00000000000E+00  0.24472288371E+03  0.24472288371E+03  0.00000000000E+00 0.  1.
          1   -1    0    0  501    0  0.00000000000E+00 -0.00000000000E+00 -0.58898366945E+02  0.58898366945E+02  0.00000000000E+00 0. -1.
         23    2    1    2    0    0  0.15352747568E+02  0.37574621825E+02  0.10654849674E+03  0.15006064542E+03  0.97560525227E+02 0.  0.
         23    2    1    2    0    0 -0.15352747568E+02 -0.37574621825E+02  0.79276020025E+02  0.15356060524E+03  0.12509441661E+03 0.  0.
          5    1    4    4  502    0  0.20697692502E+02  0.40171094387E+02  0.32684220701E+02  0.55927113120E+02  0.41800000000E+01 0.  1.
         -5    1    4    4    0  502 -0.36050440070E+02 -0.77745716212E+02  0.46591799325E+02  0.97633492117E+02  0.41800000000E+01 0.  1.
        -11    1    3    3    0    0  0.35222825631E+02  0.56155130442E+02  0.10319475824E+03  0.12265074092E+03  0.00000000000E+00 0.  1.
         11    1    3    3    0    0 -0.19870078063E+02 -0.18580508617E+02  0.33537385036E+01  0.27409904499E+02  0.00000000000E+00 0. -1.
</event>
<event>
 8    1  0.2184156E-005  0.1988564E+03  0.7561462E-02  0.1150707E+00
          2   -1    0    0  501    0  0.00000000000E+00  0.00000000000E+00  0.38740099710E+03  0.38740099710E+03  0.00000000000E+00 0. -1.
         -2   -1    0    0    0  501 -0.00000000000E+00 -0.00000000000E+00 -0.11875460822E+03  0.11875460822E+03  0.00000000000E+00 0.  1.
         23    2    1    2    0    0  0.16330662485E+03  0.79445561593E+02  0.87710855742E+02  0.22090786403E+03  0.90146764765E+02 0.  0.
         23    2    1    2    0    0 -0.16330662485E+03 -0.79445561593E+02  0.18093553314E+03  0.28524774129E+03  0.12509178943E+03 0.  0.
          5    1    4    4  502    0 -0.98024335982E+02  0.99168800345E+01  0.13046850836E+03  0.16354393608E+03  0.41800000000E+01 0.  1.
         -5    1    4    4    0  502 -0.65282288867E+02 -0.89362441627E+02  0.50467024779E+02  0.12170380521E+03  0.41800000000E+01 0.  1.
        -11    1    3    3    0    0  0.15961343933E+03  0.63163498488E+02  0.10135493543E+03  0.19934618253E+03  0.00000000000E+00 0.  1.
         11    1    3    3    0    0  0.36931855230E+01  0.16282063105E+02 -0.13644079689E+02  0.21561681493E+02  0.00000000000E+00 0. -1.
</event>
<event>
 8    1  0.2184156E-005  0.1111155E+03  0.7561462E-02  0.1258518E+00
          1   -1    0    0  501    0  0.00000000000E+00  0.00000000000E+00  0.50945222387E+02  0.50945222387E+02  0.00000000000E+00 0.  1.
         -1   -1    0    0    0  501 -0.00000000000E+00 -0.00000000000E+00 -0.37263840125E+03  0.37263840125E+03  0.00000000000E+00 0. -1.
         23    2    1    2    0    0  0.54928029527E+02  0.44671387035E+01 -0.24374270399E+03  0.26622490093E+03  0.91804947404E+02 0.  0.
         23    2    1    2    0    0 -0.54928029527E+02 -0.44671387035E+01 -0.77950474872E+02  0.15735872271E+03  0.12509375414E+03 0.  0.
          5    1    4    4  502    0 -0.33277132550E+02  0.56051966592E+02 -0.64013437906E+02  0.91457001602E+02  0.41800000000E+01 0.  1.
         -5    1    4    4    0  502 -0.21650896978E+02 -0.60519105296E+02 -0.13937036966E+02  0.65901721109E+02  0.41800000000E+01 0.  1.
        -11    1    3    3    0    0  0.31448222349E+00  0.31542067684E+02 -0.28481238199E+02  0.42499198371E+02  0.00000000000E+00 0. -1.
         11    1    3    3    0    0  0.54613547304E+02 -0.27074928980E+02 -0.21526146579E+03  0.22372570255E+03  0.00000000000E+00 0.  1.
</event>
<event>
 7    1  0.2184156E-005  0.1687560E+03  0.7561462E-02  0.1179151E+00
         -2   -1    0    0    0  501 -0.00000000000E+00  0.00000000000E+00  0.11964223407E+03  0.11964223407E+03  0.00000000000E+00 0.  1.
          2   -1    0    0  501    0  0.00000000000E+00 -0.00000000000E+00 -0.45008530641E+03  0.45008530641E+03  0.00000000000E+00 0. -1.
         23    2    1    2    0    0  0.54996018834E+02 -0.23194400097E+02  0.15422784968E+02  0.10923378903E+03  0.90175473863E+02 0.  0.
          5    1    1    2  502    0 -0.46440306288E+01 -0.98817178387E+02 -0.30739036406E+03  0.32294381877E+03  0.41800000000E+01 0. -1.
         -5    1    1    2    0  502 -0.50351988206E+02  0.12201157848E+03 -0.38475493247E+02  0.13754993268E+03  0.41800000000E+01 0.  1.
        -11    1    3    3    0    0 -0.13797070863E+01 -0.45711311459E+02 -0.28965306482E+01  0.45823765415E+02  0.00000000000E+00 0.  1.
         11    1    3    3    0    0  0.56375725921E+02  0.22516911363E+02  0.18319315616E+02  0.63410023617E+02  0.00000000000E+00 0. -1.
</event>
<event>
 8    1  0.2184156E-005  0.1338259E+03  0.7561462E-02  0.1221887E+00
          1   -1    0    0  501    0  0.00000000000E+00  0.00000000000E+00  0.83589350737E+02  0.83589350737E+02  0.00000000000E+00 0. -1.
         -1   -1    0    0    0  501 -0.00000000000E+00 -0.00000000000E+00 -0.28284538935E+03  0.28284538935E+03  0.00000000000E+00 0.  1.
         23    2    1    2    0    0  0.94597182089E+02 -0.31221014052E+02 -0.10585637796E+03  0.18128245429E+03  0.10832532900E+03 0.  0.
         23    2    1    2    0    0 -0.94597182089E+02  0.31221014052E+02 -0.93399660653E+02  0.18515228579E+03  0.12503796922E+03 0.  0.
          5    1    4    4  502    0  0.19574530506E+02  0.38418044625E+02 -0.39494579313E+02  0.58620837528E+02  0.41800000000E+01 0.  1.
         -5    1    4    4    0  502 -0.11417171259E+03 -0.71970305736E+01 -0.53905081339E+02  0.12653144827E+03  0.41800000000E+01 0.  1.
        -11    1    3    3    0    0  0.26844598005E+02 -0.32423713116E+02 -0.10542469415E+03  0.11351782129E+03  0.00000000000E+00 0.  1.
         11    1    3    3    0    0  0.67752584083E+02  0.12026990637E+01 -0.43168381199E+00  0.67764633002E+02  0.00000000000E+00 0. -1.
</event>
<event>
 8    1  0.2184156E-005  0.1068401E+03  0.7561462E-02  0.1266536E+00
          1   -1    0    0  501    0  0.00000000000E+00  0.00000000000E+00  0.34350883047E+03  0.34350883047E+03  0.00000000000E+00 0. -1.
         -1   -1    0    0    0  501 -0.00000000000E+00 -0.00000000000E+00 -0.50753002134E+02  0.50753002134E+02  0.00000000000E+00 0.  1.
         23    2    1    2    0    0  0.36225115903E+00  0.27572863815E+02  0.36497763627E+02  0.10777244058E+03  0.97582878385E+02 0.  0.
         23    2    1    2    0    0 -0.36225115903E+00 -0.27572863815E+02  0.25625806471E+03  0.28648939202E+03  0.12509029526E+03 0.  0.
          5    1    4    4  502    0  0.11407062595E+02 -0.68459338913E+02  0.84185354077E+02  0.10918538548E+03  0.41800000000E+01 0.  1.
         -5    1    4    4    0  502 -0.11769313754E+02  0.40886475098E+02  0.17207271063E+03  0.17730400654E+03  0.41800000000E+01 0.  1.
        -11    1    3    3    0    0  0.99039836123E+01  0.63479274114E+02  0.22642184787E+02  0.68120302886E+02  0.00000000000E+00 0. -1.
         11    1    3    3    0    0 -0.95417324533E+01 -0.35906410298E+02  0.13855578840E+02  0.39652137694E+02  0.00000000000E+00 0.  1.
</event>
<event>
 8    1  0.2184156E-005  0.1206415E+03  0.7561462E-02  0.1242042E+00
         -1   -1    0    0    0  501 -0.00000000000E+00  0.00000000000E+00  0.10122042928E+03  0.10122042928E+03  0.00000000000E+00 0.  1.
          1   -1    0    0  501    0  0.00000000000E+00 -0.00000000000E+00 -0.23908119460E+03  0.23908119460E+03  0.00000000000E+00 0. -1.
         23    2    1    2    0    0  0.56657887929E+02  0.64271381556E+02  0.14698028659E+02  0.12521556752E+03  0.90122025897E+02 0.  0.
         23    2    1    2    0    0 -0.56657887929E+02 -0.64271381556E+02 -0.15255879397E+03  0.21508605636E+03  0.12508756641E+03 0.  0.
          5    1    4    4  502    0  0.11374233517E+02  0.10300734656E+02 -0.99898235031E+02  0.10115635464E+03  0.41800000000E+01 0.  1.
         -5    1    4    4    0  502 -0.68032121447E+02 -0.74572116211E+02 -0.52660558941E+02  0.11392970171E+03  0.41800000000E+01 0.  1.
        -11    1    3    3    0    0  0.69101229419E+02  0.11401867033E+02  0.81543786488E+01  0.70508697124E+02  0.00000000000E+00 0.  1.
         11    1    3    3    0    0 -0.12443341489E+02  0.52869514523E+02  0.65436500103E+01  0.54706870398E+02  0.00000000000E+00 0. -1.
</event>
<event>
 8    1  0.2184156E-005  0.1226047E+03  0.7561462E-02  0.1238861E+00
         -1   -1    0    0    0  501 -0.00000000000E+00  0.00000000000E+00  0.48773567363E+03  0.48773567363E+03  0.00000000000E+00 0.  1.
          1   -1    0    0  501    0  0.00000000000E+00 -0.00000000000E+00 -0.43500284651E+02  0.43500284651E+02  0.00000000000E+00 0. -1.
         23    2    1    2    0    0  0.54830391595E+02  0.22872832725E+02  0.34182490254E+03  0.35900452650E+03  0.92252087940E+02 0.  0.
         23    2    1    2    0    0 -0.54830391595E+02 -0.22872832725E+02  0.10241048644E+03  0.17223143179E+03  0.12508485137E+03 0.  0.
          5    1    4    4  502    0 -0.41381188812E+02  0.49468976075E+02  0.43904405492E+02  0.78132269921E+02  0.41800000000E+01 0. -1.
         -5    1    4    4    0  502 -0.13449202784E+02 -0.72341808800E+02  0.58506080948E+02  0.94099161866E+02  0.41800000000E+01 0. -1.
        -11    1    3    3    0    0 -0.11554121099E+02  0.37211395314E+02  0.16617627568E+03  0.17068315750E+03  0.00000000000E+00 0.  1.
         11    1    3    3    0    0  0.66384512694E+02 -0.14338562588E+02  0.17564862686E+03  0.18832136899E+03  0.00000000000E+00 0. -1.
</event>
<event>
 8    1  0.2184156E-005  0.8118943E+02  0.7561462E-02  0.1325709E+00
         -2   -1    0    0    0  501 -0.00000000000E+00  0.00000000000E+00  0.70932378757E+02  0.70932378757E+02  0.00000000000E+00 0.  1.
          2   -1    0    0  501    0  0.00000000000E+00 -0.00000000000E+00 -0.14745768761E+03  0.14745768761E+03  0.00000000000E+00 0. -1.
         23    2    1    2    0    0  0.40081448578E+02 -0.20322403710E+02 -0.22361214721E+02  0.74858749833E+02  0.55536347468E+02 0.  0.
         23    2    1    2    0    0 -0.40081448578E+02  0.20322403710E+02 -0.54164094131E+02  0.14353131653E+03  0.12509183474E+03 0.  0.
          5    1    4    4  502    0  0.33173183451E+02  0.97005152699E+01  0.18752898062E+02  0.39543693334E+02  0.41800000000E+01 0. -1.
         -5    1    4    4    0  502 -0.73254632030E+02  0.10621888441E+02 -0.72916992193E+02  0.10398762320E+03  0.41800000000E+01 0. -1.
        -11    1    3    3    0    0  0.27336453879E+02  0.23286806003E+01  0.13494025145E+02  0.30574387625E+02  0.00000000000E+00 0.  1.
         11    1    3    3    0    0  0.12744994699E+02 -0.22651084311E+02 -0.35855239866E+02  0.44284362208E+02  0.00000000000E+00 0. -1.
</event>
<event>
 8    1  0.2184156E-005  0.7366251E+02  0.7561462E-02  0.1348064E+00
         -1   -1    0    0    0  501 -0.00000000000E+00  0.00000000000E+00  0.43246237036E+02  0.43246237036E+02  0.00000000000E+00 0.  1.
          1   -1    0    0  501    0  0.00000000000E+00 -0.00000000000E+00 -0.33815413939E+03  0.33815413939E+03  0.00000000000E+00 0. -1.
         23    2    1    2    0    0  0.43133808019E+02  0.19897406030E+02 -0.79901150467E+02  0.12815544410E+03  0.88222399910E+02 0.  0.
         23    2    1    2    0    0 -0.43133808019E+02 -0.19897406030E+02 -0.21500675189E+03  0.25324493232E+03  0.12509460512E+03 0.  0.
          5    1    4    4  502    0 -0.67889992330E+02 -0.19595857262E+02 -0.21680930299E+03  0.22807190740E+03  0.41800000000E+01 0. -1.
         -5    1    4    4    0  502  0.24756184311E+02 -0.30154876768E+00  0.18025511073E+01  0.25173024923E+02  0.41800000000E+01 0. -1.
        -11    1    3    3    0    0  0.34143146637E+02  0.56835533107E+01  0.10525570070E+02  0.36177961051E+02  0.00000000000E+00 0.  1.
         11    1    3    3    0    0  0.89906613822E+01  0.14213852719E+02 -0.90426720537E+02  0.91977483050E+02  0.00000000000E+00 0. -1.
</event>
<event>
 8    1  0.2184156E-005  0.1097946E+03  0.7561462E-02  0.1260951E+00
         -1   -1    0    0    0  501 -0.00000000000E+00  0.00000000000E+00  0.29689277449E+02  0.29689277449E+02  0.00000000000E+00 0.  1.
          1   -1    0    0  501    0  0.00000000000E+00 -0.00000000000E+00 -0.59797606196E+03  0.59797606196E+03  0.00000000000E+00 0. -1.
         23    2    1    2    0    0  0.10332864104E+02 -0.69427055686E+02 -0.17043186512E+03  0.20474322393E+03  0.89139682281E+02 0.  0.
         23    2    1    2    0    0 -0.10332864104E+02  0.69427055686E+02 -0.39785491939E+03  0.42292211548E+03  0.12509074599E+03 0.  0.
          5    1    4    4  502    0  0.49391849662E+02  0.21361765034E+02 -0.84261807734E+02  0.10006699986E+03  0.41800000000E+01 0.  1.
         -5    1    4    4    0  502 -0.59724713766E+02  0.48065290652E+02 -0.31359311166E+03  0.32285511562E+03  0.41800000000E+01 0.  1.
        -11    1    3    3    0    0 -0.12923807971E+02 -0.63546781650E+02 -0.16865104793E+03  0.18068866660E+03  0.00000000000E+00 0. -1.
         11    1    3    3    0    0  0.23256672074E+02 -0.58802740357E+01 -0.17808171925E+01  0.24054557335E+02  0.00000000000E+00 0.  1.
</event>
<event>
 7    1  0.2184156E-005  0.1118239E+03  0.7561462E-02  0.1257229E+00
          2   -1    0    0  501    0  0.00000000000E+00  0.00000000000E+00  0.74549077314E+03  0.74549077314E+03  0.00000000000E+00 0. -1.
         -2   -1    0    0    0  501 -0.00000000000E+00 -0.00000000000E+00 -0.50952601369E+02  0.50952601369E+02  0.00000000000E+00 0.  1.
         23    2    1    2    0    0 -0.77072782096E+01  0.75538893983E+02  0.59663378354E+03  0.61431694935E+03  0.12509163022E+03 0.  0.
          5    1    3    3  502    0  0.10885651581E+02  0.64047783982E+02  0.11483421572E+03  0.13200373307E+03  0.41800000000E+01 0. -1.
         -5    1    3    3    0  502 -0.18592929791E+02  0.11491110001E+02  0.48179956782E+03  0.48231321628E+03  0.41800000000E+01 0. -1.
        -11    1    1    2    0    0 -0.18416839390E+02 -0.99291899323E+02  0.29597199375E+02  0.10523333814E+03  0.00000000000E+00 0.  1.
         11    1    1    2    0    0  0.26124117599E+02  0.23753005340E+02  0.68307188856E+02  0.76893087026E+02  0.00000000000E+00 0. -1.
</event>
<event>
 8    1  0.2184156E-005  0.1234104E+03  0.7561462E-02  0.1237575E+00
          1   -1    0    0  501    0  0.00000000000E+00  0.00000000000E+00  0.98698408723E+02  0.98698408723E+02  0.00000000000E+00 0. -1.
         -1   -1    0    0    0  501 -0.00000000000E+00 -0.00000000000E+00 -0.25843957279E+03  0.25843957279E+03  0.00000000000E+00 0.  1.
         23    2    1    2    0    0 -0.75083652183E+02  0.62255596618E+02 -0.14631903089E+03  0.19795007913E+03  0.90893679047E+02 0.  0.
         23    2    1    2    0    0  0.75083652183E+02 -0.62255596618E+02 -0.13422133184E+02  0.15918790239E+03  0.12508925003E+03 0.  0.
          5    1    4    4  502    0  0.88506036583E+02 -0.22718977818E+02  0.32414676913E+02  0.97044598737E+02  0.41800000000E+01 0. -1.
         -5    1    4    4    0  502 -0.13422384399E+02 -0.39536618800E+02 -0.45836810097E+02  0.62143303653E+02  0.41800000000E+01 0. -1.
        -11    1    3    3    0    0 -0.70314290597E+02  0.23200652183E+02 -0.39084845450E+02  0.83725712106E+02  0.00000000000E+00 0. -1.
         11    1    3    3    0    0 -0.47693615867E+01  0.39054944435E+02 -0.10723418544E+03  0.11422436702E+03  0.00000000000E+00 0.  1.
</event>
<event>
 8    1  0.2184156E-005  0.1186561E+03  0.7561462E-02  0.1245331E+00
          2   -1    0    0  501    0  0.00000000000E+00  0.00000000000E+00  0.17750406634E+03  0.17750406634E+03  0.00000000000E+00 0.  1.
         -2   -1    0    0    0  501 -0.00000000000E+00 -0.00000000000E+00 -0.96374827578E+02  0.96374827578E+02  0.00000000000E+00 0. -1.
         23    2    1    2    0    0 -0.53220703004E+02 -0.78578881278E+00 -0.11848178396E+02  0.10918870902E+03  0.94597749199E+02 0.  0.
         23    2    1    2    0    0  0.53220703004E+02  0.78578881278E+00  0.92977417153E+02  0.16469018490E+03  0.12507995926E+03 0.  0.
          5    1    4    4  502    0  0.88836093727E+02 -0.22562947838E+02  0.52100822483E+02  0.10551258819E+03  0.41800000000E+01 0.  1.
         -5    1    4    4    0  502 -0.35615390724E+02  0.23348736651E+02  0.40876594670E+02  0.59177596702E+02  0.41800000000E+01 0.  1.
        -11    1    3    3    0    0 -0.64947855674E+02 -0.29812139147E+02 -0.24322808263E+02  0.75488983295E+02  0.00000000000E+00 0. -1.
         11    1    3    3    0    0  0.11727152671E+02  0.29026350334E+02  0.12474629867E+02  0.33699725723E+02  0.00000000000E+00 0.  1.
</event>
<event>
 8    1  0.2184156E-005  0.1370694E+03  0.7561462E-02  0.1217328E+00
         -1   -1    0    0    0  501 -0.00000000000E+00  0.00000000000E+00  0.46378453703E+02  0.46378453703E+02  0.00000000000E+00 0.  1.
          1   -1    0    0  501    0  0.00000000000E+00 -0.00000000000E+00 -0.65847944670E+03  0.65847944670E+03  0.00000000000E+00 0. -1.
         23    2    1    2    0    0 -0.57072627787E+02 -0.10090683150E+03 -0.14333021182E+03  0.20602599822E+03  0.91998308879E+02 0.  0.
         23    2    1    2    0    0  0.57072627787E+02  0.10090683150E+03 -0.46877078118E+03  0.49883190219E+03  0.12509095837E+03 0.  0.
          5    1    4    4  502    0  0.49294268624E+02  0.15507966715E+02 -0.52442789860E+02  0.73743749288E+02  0.41800000000E+01 0. -1.
         -5    1    4    4    0  502  0.77783591633E+01  0.85398864783E+02 -0.41632799132E+03  0.42508815290E+03  0.41800000000E+01 0. -1.
        -11    1    3    3    0    0 -0.74147976017E+02 -0.75442965087E+02 -0.70815939007E+02  0.12729674209E+03  0.00000000000E+00 0.  1.
         11    1    3    3    0    0  0.17075348229E+02 -0.25463866411E+02 -0.72514272811E+02  0.78729256131E+02  0.00000000000E+00 0. -1.
</event>
<event>
 8    1  0.2184156E-005  0.1131773E+03  0.7561462E-02  0.1254797E+00
          2   -1    0    0  501    0  0.00000000000E+00  0.00000000000E+00  0.12618278102E+03  0.12618278102E+03  0.00000000000E+00 0. -1.
         -2   -1    0    0    0  501 -0.00000000000E+00 -0.00000000000E+00 -0.13948227920E+03  0.13948227920E+03  0.00000000000E+00 0.  1.
         23    2    1    2    0    0 -0.49866612401E+02 -0.52759752826E+02 -0.28404790086E+02  0.12024695148E+03  0.91554501193E+02 0.  0.
         23    2    1    2    0    0  0.49866612401E+02  0.52759752826E+02  0.15105291904E+02  0.14541810874E+03  0.12509191003E+03 0.  0.
          5    1    4    4  502    0  0.21950337273E+02  0.74893156232E+02  0.52068158885E+02  0.93911488789E+02  0.41800000000E+01 0.  1.
         -5    1    4    4    0  502  0.27916275127E+02 -0.22133403406E+02 -0.36962866982E+02  0.51506619951E+02  0.41800000000E+01 0.  1.
        -11    1    3    3    0    0 -0.56749578301E+02 -0.72126401419E+02 -0.35646514090E+02  0.98455098323E+02  0.00000000000E+00 0.  1.
         11    1    3    3    0    0  0.68829659005E+01  0.19366648592E+02  0.72417240040E+01  0.21791853153E+02  0.00000000000E+00 0. -1.
</event>
<event>
 8    1  0.2184156E-005  0.1193633E+03  0.7561462E-02  0.1244151E+00
         -3   -1    0    0    0  501 -0.00000000000E+00  0.00000000000E+00  0.57319433979E+02  0.57319433979E+02  0.00000000000E+00 0.  1.
          3   -1    0    0  501    0  0.00000000000E+00 -0.00000000000E+00 -0.33379702090E+03  0.33379702090E+03  0.00000000000E+00 0. -1.
         23    2    1    2    0    0  0.11970112696E+02  0.84458673440E+02 -0.13381048814E+03  0.18308243976E+03  0.91309265115E+02 0.  0.
         23    2    1    2    0    0 -0.11970112696E+02 -0.84458673440E+02 -0.14266709879E+03  0.20803401512E+03  0.12509076406E+03 0.  0.
          5    1    4    4  502    0 -0.65413947285E+02 -0.69761617456E+02 -0.86623766038E+02  0.12910002716E+03  0.41800000000E+01 0.  1.
         -5    1    4    4    0  502  0.53443834589E+02 -0.14697055984E+02 -0.56043332748E+02  0.78933987963E+02  0.41800000000E+01 0.  1.
        -11    1    3    3    0    0 -0.74227014517E+00  0.58579006640E+02 -0.14157894409E+03  0.15322091369E+03  0.00000000000E+00 0. -1.
         11    1    3    3    0    0  0.12712382841E+02  0.25879666800E+02  0.77684559513E+01  0.29861526067E+02  0.00000000000E+00 0.  1.
</event>
<event>
 8    1  0.2184156E-005  0.1513087E+03  0.7561462E-02  0.1198874E+00
          1   -1    0    0  501    0  0.00000000000E+00  0.00000000000E+00  0.71855089411E+03  0.71855089411E+03  0.00000000000E+00 0. -1.
         -1   -1    0    0    0  501 -0.00000000000E+00 -0.00000000000E+00 -0.45606859231E+02  0.45606859231E+02  0.00000000000E+00 0.  1.
         23    2    1    2    0    0 -0.12684278872E+03 -0.47906513663E+02  0.21569523407E+03  0.27109829160E+03  0.92659174434E+02 0.  0.
         23    2    1    2    0    0  0.12684278872E+03  0.47906513663E+02  0.45724880080E+03  0.49305946174E+03  0.12508812841E+03 0.  0.
          5    1    4    4  502    0  0.58761406806E+02 -0.27225603941E+02  0.29212730504E+03  0.29924901201E+03  0.41800000000E+01 0. -1.
         -5    1    4    4    0  502  0.68081381914E+02  0.75132117604E+02  0.16512149576E+03  0.19381044972E+03  0.41800000000E+01 0. -1.
        -11    1    3    3    0    0 -0.74446718809E+02 -0.35098549789E+02  0.19784563601E+03  0.21428279872E+03  0.00000000000E+00 0. -1.
         11    1    3    3    0    0 -0.52396069910E+02 -0.12807963874E+02  0.17849598063E+02  0.56815492884E+02  0.00000000000E+00 0.  1.
</event>
<event>
 8    1  0.2184156E-005  0.2226349E+03  0.7561462E-02  0.1131934E+00
         -2   -1    0    0    0  501 -0.00000000000E+00  0.00000000000E+00  0.29492339973E+02  0.29492339973E+02  0.00000000000E+00 0.  1.
          2   -1    0    0  501    0  0.00000000000E+00 -0.00000000000E+00 -0.19445477437E+04  0.19445477437E+04  0.00000000000E+00 0. -1.
         23    2    1    2    0    0  0.14082249283E+03 -0.15199227521E+03 -0.71431915669E+03  0.74915347517E+03  0.89701981782E+02 0.  0.
         23    2    1    2    0    0 -0.14082249283E+03  0.15199227521E+03 -0.12007362470E+04  0.12248866085E+04  0.12508813906E+03 0.  0.
          5    1    4    4  502    0 -0.69464724381E+02  0.12721896068E+03 -0.51613950136E+03  0.53612262511E+03  0.41800000000E+01 0. -1.
         -5    1    4    4    0  502 -0.71357768444E+02  0.24773314532E+02 -0.68459674565E+03  0.68876398337E+03  0.41800000000E+01 0. -1.
        -11    1    3    3    0    0  0.41275490117E+02 -0.10829527311E+03 -0.33030190365E+03  0.35004411124E+03  0.00000000000E+00 0.  1.
         11    1    3    3    0    0  0.99547002708E+02 -0.43697002104E+02 -0.38401725304E+03  0.39910936393E+03  0.00000000000E+00 0. -1.
</event>
<event>
 8    1  0.3607325E-005  0.3061203E+03  0.7561462E-02  0.1082221E+00
          1   -1    0    0  501    0  0.00000000000E+00  0.00000000000E+00  0.11352669281E+03  0.11352669281E+03  0.00000000000E+00 0. -1.
         -1   -1    0    0    0  501 -0.00000000000E+00 -0.00000000000E+00 -0.96170609796E+03  0.96170609796E+03  0.00000000000E+00 0.  1.
         23    2    1    2    0    0 -0.24017804673E+03  0.17976592610E+03 -0.55571911316E+03  0.63798997052E+03  0.90588009339E+02 0.  0.
         23    2    1    2    0    0  0.24017804673E+03 -0.17976592610E+03 -0.29246029199E+03  0.43724282024E+03  0.12508788568E+03 0.  0.
          5    1    4    4  502    0  0.38238934730E+02 -0.75928893710E+02 -0.30203554744E+02  0.90316887394E+02  0.41800000000E+01 0.  1.
         -5    1    4    4    0  502  0.20193911200E+03 -0.10383703239E+03 -0.26225673725E+03  0.34692593285E+03  0.41800000000E+01 0.  1.
        -11    1    3    3    0    0 -0.71275660291E+02  0.51853251165E+02 -0.25751735823E+03  0.27218407227E+03  0.00000000000E+00 0.  1.
         11    1    3    3    0    0 -0.16890238644E+03  0.12791267494E+03 -0.29820175493E+03  0.36580589826E+03  0.00000000000E+00 0. -1.
</event>
<event>
 7    1  0.2184156E-005  0.1711832E+03  0.7561462E-02  0.1176620E+00
         -2   -1    0    0    0  501 -0.00000000000E+00  0.00000000000E+00  0.68611814809E+02  0.68611814809E+02  0.00000000000E+00 0.  1.
          2   -1    0    0  501    0  0.00000000000E+00 -0.00000000000E+00 -0.50385917742E+03  0.50385917742E+03  0.00000000000E+00 0. -1.
         23    2    1    2    0    0  0.10741646385E+03  0.35686981027E+02 -0.29539469020E+03  0.33755784917E+03  0.11779397786E+03 0.  0.
          5    1    3    3  502    0  0.35357058123E+02 -0.40690822279E+02 -0.13890539498E+03  0.14905718947E+03  0.41800000000E+01 0. -1.
         -5    1    3    3    0  502  0.72059405731E+02  0.76377803306E+02 -0.15648929522E+03  0.18850065971E+03  0.41800000000E+01 0.  1.
        -11    1    1    2    0    0 -0.16806377514E+02  0.53495490843E+02 -0.18208309267E+02  0.58955613745E+02  0.00000000000E+00 0.  1.
         11    1    1    2    0    0 -0.90610086339E+02 -0.89182471870E+02 -0.12164436314E+03  0.17595752931E+03  0.00000000000E+00 0. -1.
</event>
<event>
 8    1  0.2184156E-005  0.1834135E+03  0.7561462E-02  0.1164540E+00
         -2   -1    0    0    0  501 -0.00000000000E+00  0.00000000000E+00  0.46566458031E+02  0.46566458031E+02  0.00000000000E+00 0. -1.
          2   -1    0    0  501    0  0.00000000000E+00 -0.00000000000E+00 -0.27382915439E+04  0.27382915439E+04  0.00000000000E+00 0.  1.
         23    2    1    2    0    0 -0.92839618381E+01  0.16244820025E+03 -0.16177635557E+03  0.24659778761E+03  0.90350815817E+02 0.  0.
         23    2    1    2    0    0  0.92839618381E+01 -0.16244820025E+03 -0.25299487303E+04  0.25382602143E+04  0.12509487579E+03 0.  0.
          5    1    4    4  502    0  0.41156342678E+02 -0.15763771644E+03 -0.17322928765E+04  0.17399424061E+04  0.41800000000E+01 0. -1.
         -5    1    4    4    0  502 -0.31872380840E+02 -0.48104838099E+01 -0.79765585381E+03  0.79831780823E+03  0.41800000000E+01 0. -1.
        -11    1    3    3    0    0 -0.29516005401E+02  0.59355846958E+02 -0.11245174657E+03  0.13053622658E+03  0.00000000000E+00 0.  1.
         11    1    3    3    0    0  0.20232043563E+02  0.10309235330E+03 -0.49324608992E+02  0.11606156102E+03  0.00000000000E+00 0. -1.
</event>
<event>
 8    1  0.2267996E-005  0.1108533E+03  0.7561462E-02  0.1258998E+00
         -2   -1    0    0    0  501 -0.00000000000E+00  0.00000000000E+00  0.12996009301E+03  0.12996009301E+03  0.00000000000E+00 0.  1.
          2   -1    0    0  501    0  0.00000000000E+00 -0.00000000000E+00 -0.16812255539E+03  0.16812255539E+03  0.00000000000E+00 0. -1.
         23    2    1    2    0    0 -0.57599459418E+01  0.96537634211E+02  0.23320271332E+01  0.13486447600E+03  0.93969658608E+02 0.  0.
         23    2    1    2    0    0  0.57599459418E+01 -0.96537634211E+02 -0.40494489514E+02  0.16321817240E+03  0.12509067241E+03 0.  0.
          5    1    4    4  502    0  0.15657432930E+02 -0.10704737438E+03  0.11705058960E+02  0.10889800904E+03  0.41800000000E+01 0.  1.
         -5    1    4    4    0  502 -0.98974869878E+01  0.10509740164E+02 -0.52199548474E+02  0.54320163364E+02  0.41800000000E+01 0.  1.
        -11    1    3    3    0    0  0.62708831667E+01  0.20863746808E+02 -0.41296045835E+02  0.46690291370E+02  0.00000000000E+00 0. -1.
         11    1    3    3    0    0 -0.12030829108E+02  0.75673887403E+02  0.43628072968E+02  0.88174184627E+02  0.00000000000E+00 0.  1.
</event>
<event>
 8    1  0.2184156E-005  0.9334115E+02  0.7561462E-02  0.1294957E+00
          3   -1    0    0  501    0  0.00000000000E+00  0.00000000000E+00  0.28399247410E+02  0.28399247410E+02  0.00000000000E+00 0. -1.
         -3   -1    0    0    0  501 -0.00000000000E+00 -0.00000000000E+00 -0.52821862888E+03  0.52821862888E+03  0.00000000000E+00 0.  1.
         23    2    1    2    0    0 -0.55213945830E+02 -0.13490244097E+02 -0.23843492765E+03  0.26131864312E+03  0.90585054058E+02 0.  0.
         23    2    1    2    0    0  0.55213945830E+02  0.13490244097E+02 -0.26138445382E+03  0.29529923317E+03  0.12509691408E+03 0.  0.
          5    1    4    4  502    0  0.89838065931E+01 -0.22754225544E+02  0.24807017833E+01  0.24941728937E+02  0.41800000000E+01 0.  1.
         -5    1    4    4    0  502  0.46230139237E+02  0.36244469642E+02 -0.26386515561E+03  0.27035750424E+03  0.41800000000E+01 0.  1.
        -11    1    3    3    0    0  0.71773665684E+01 -0.35950930782E+02 -0.53506855600E+02  0.64861140995E+02  0.00000000000E+00 0.  1.
         11    1    3    3    0    0 -0.62391312398E+02  0.22460686685E+02 -0.18492807205E+03  0.19645750212E+03  0.00000000000E+00 0. -1.
</event>
<event>
 8    1  0.2184156E-005  0.7142882E+02  0.7561462E-02  0.1355301E+00
          1   -1    0    0  501    0  0.00000000000E+00  0.00000000000E+00  0.33648669380E+02  0.33648669380E+02  0.00000000000E+00 0. -1.
         -1   -1    0    0    0  501 -0.00000000000E+00 -0.00000000000E+00 -0.39652082852E+03  0.39652082852E+03  0.00000000000E+00 0.  1.
         23    2    1    2    0    0  0.12454532317E+02 -0.27573023702E+02 -0.26440953511E+03  0.27916658682E+03  0.84298243909E+02 0.  0.
         23    2    1    2    0    0 -0.12454532317E+02  0.27573023702E+02 -0.98462624025E+02  0.15100291108E+03  0.11041559588E+03 0.  0.
          5    1    4    4  502    0 -0.24819958877E+02  0.31628956043E+02  0.10034381337E+02  0.41648318428E+02  0.41800000000E+01 0. -1.
         -5    1    4    4    0  502  0.12365426561E+02 -0.40559323414E+01 -0.10849700536E+03  0.10935459265E+03  0.41800000000E+01 0.  1.
        -11    1    3    3    0    0 -0.29999738109E+01  0.29493447567E+02 -0.10660973134E+03  0.11065486030E+03  0.00000000000E+00 0. -1.
         11    1    3    3    0    0  0.15454506127E+02 -0.57066471269E+02 -0.15779980378E+03  0.16851172652E+03  0.00000000000E+00 0.  1.
</event>
<event>
 8    1  0.2184156E-005  0.1088045E+03  0.7561462E-02  0.1262800E+00
          2   -1    0    0  501    0  0.00000000000E+00  0.00000000000E+00  0.29544478121E+03  0.29544478121E+03  0.00000000000E+00 0. -1.
         -2   -1    0    0    0  501 -0.00000000000E+00 -0.00000000000E+00 -0.52856636083E+02  0.52856636083E+02  0.00000000000E+00 0.  1.
         23    2    1    2    0    0  0.49273195285E+02 -0.24815704524E+01  0.76860089556E+02  0.13488595550E+03  0.99260977526E+02 0.  0.
         23    2    1    2    0    0 -0.49273195285E+02  0.24815704524E+01  0.16572805557E+03  0.21341546179E+03  0.12508543066E+03 0.  0.
          5    1    4    4  502    0 -0.70369544157E+02 -0.22620255783E+02  0.16443786967E+03  0.18033533791E+03  0.41800000000E+01 0.  1.
         -5    1    4    4    0  502  0.21096348873E+02  0.25101826235E+02  0.12901858929E+01  0.33080123877E+02  0.41800000000E+01 0.  1.
        -11    1    3    3    0    0  0.54406868041E+02  0.40126768298E+02  0.51998045727E+02  0.85288109274E+02  0.00000000000E+00 0.  1.
         11    1    3    3    0    0 -0.51336727560E+01 -0.42608338750E+02  0.24862043828E+02  0.49597846227E+02  0.00000000000E+00 0. -1.
</event>
<event>
 8    1  0.2184156E-005  0.1672328E+03  0.7561462E-02  0.1180765E+00
          2   -1    0    0  501    0  0.00000000000E+00  0.00000000000E+00  0.15241319955E+03  0.15241319955E+03  0.00000000000E+00 0. -1.
         -2   -1    0    0    0  501 -0.00000000000E+00 -0.00000000000E+00 -0.22338630148E+03  0.22338630148E+03  0.00000000000E+00 0.  1.
         23    2    1    2    0    0  0.12163818283E+03  0.70533332360E+02 -0.82685371003E+02  0.18723837797E+03  0.91926824759E+02 0.  0.
         23    2    1    2    0    0 -0.12163818283E+03 -0.70533332360E+02  0.11712269072E+02  0.18856112306E+03  0.12508925368E+03 0.  0.
          5    1    4    4  502    0  0.12290193393E+02 -0.35528470209E+02 -0.24933515166E+02  0.45304234102E+02  0.41800000000E+01 0.  1.
         -5    1    4    4    0  502 -0.13392837622E+03 -0.35004862152E+02  0.36645784238E+02  0.14325688896E+03  0.41800000000E+01 0.  1.
        -11    1    3    3    0    0  0.83095434720E+02  0.64209099437E+01 -0.74854521437E+02  0.11202356330E+03  0.00000000000E+00 0.  1.
         11    1    3    3    0    0  0.38542748108E+02  0.64112422417E+02 -0.78308495662E+01  0.75214814663E+02  0.00000000000E+00 0. -1.
</event>
<event>
 8    1  0.2184156E-005  0.1453510E+03  0.7561462E-02  0.1206305E+00
         -1   -1    0    0    0  501 -0.00000000000E+00  0.00000000000E+00  0.21314755717E+02  0.21314755717E+02  0.00000000000E+00 0.  1.
          1   -1    0    0  501    0  0.00000000000E+00 -0.00000000000E+00 -0.10799499253E+04  0.10799499253E+04  0.00000000000E+00 0. -1.
         23    2    1    2    0    0  0.10192457747E+03 -0.28798070538E+02 -0.47831648889E+03  0.49824333726E+03  0.90784421690E+02 0.  0.
         23    2    1    2    0    0 -0.10192457747E+03  0.28798070538E+02 -0.58031868072E+03  0.60302134378E+03  0.12508805500E+03 0.  0.
          5    1    4    4  502    0 -0.70598481843E+02 -0.35830994520E+02 -0.18597110226E+03  0.20216510352E+03  0.41800000000E+01 0.  1.
         -5    1    4    4    0  502 -0.31326095632E+02  0.64629065057E+02 -0.39434757846E+03  0.40085624026E+03  0.41800000000E+01 0.  1.
        -11    1    3    3    0    0 -0.16851425517E+01 -0.35605598868E+02 -0.12592213625E+03  0.13087009885E+03  0.00000000000E+00 0. -1.
         11    1    3    3    0    0  0.10360972003E+03  0.68075283309E+01 -0.35239435264E+03  0.36737323841E+03  0.00000000000E+00 0.  1.
</event>
<event>
 8    1  0.2184156E-005  0.1372696E+03  0.7561462E-02  0.1217051E+00
          2   -1    0    0  501    0  0.00000000000E+00  0.00000000000E+00  0.15493647055E+03  0.15493647055E+03  0.00000000000E+00 0. -1.
         -2   -1    0    0    0  501 -0.00000000000E+00 -0.00000000000E+00 -0.14488233111E+03  0.14488233111E+03  0.00000000000E+00 0.  1.
         23    2    1    2    0    0  0.84887581150E+02 -0.67736161970E+01 -0.51035133632E+02  0.13662723028E+03  0.93864966193E+02 0.  0.
         23    2    1    2    0    0 -0.84887581150E+02  0.67736161970E+01  0.61089273072E+02  0.16319157139E+03  0.12509119225E+03 0.  0.
          5    1    4    4  502    0  0.32458650366E+02  0.28664053513E+01  0.21291887420E+02  0.39148398858E+02  0.41800000000E+01 0.  1.
         -5    1    4    4    0  502 -0.11734623152E+03  0.39072108457E+01  0.39797385652E+02  0.12404317253E+03  0.41800000000E+01 0.  1.
        -11    1    3    3    0    0  0.44634193534E+02 -0.48713594020E+02 -0.40654742687E+02  0.77575985832E+02  0.00000000000E+00 0. -1.
         11    1    3    3    0    0  0.40253387616E+02  0.41939977823E+02 -0.10380390944E+02  0.59051244445E+02  0.00000000000E+00 0.  1.
</event>
<event>
 8    1  0.2184156E-005  0.1033050E+03  0.7561462E-02  0.1273496E+00
          3   -1    0    0  501    0  0.00000000000E+00  0.00000000000E+00  0.16649818129E+03  0.16649818129E+03  0.00000000000E+00 0. -1.
         -3   -1    0    0    0  501 -0.00000000000E+00 -0.00000000000E+00 -0.10826743381E+03  0.10826743381E+03  0.00000000000E+00 0.  1.
         23    2    1    2    0    0  0.63763713751E+02  0.34766681591E+02 -0.37862929430E+01  0.11738290255E+03  0.92140525595E+02 0.  0.
         23    2    1    2    0    0 -0.63763713751E+02 -0.34766681591E+02  0.62017040421E+02  0.15738271255E+03  0.12509465044E+03 0.  0.
          5    1    4    4  502    0  0.27705944200E+00 -0.51646871820E+02 -0.16686214352E+02  0.54436920193E+02  0.41800000000E+01 0.  1.
         -5    1    4    4    0  502 -0.64040773193E+02  0.16880190229E+02  0.78703254773E+02  0.10294579236E+03  0.41800000000E+01 0.  1.
        -11    1    3    3    0    0  0.61929360331E+02  0.89743936653E+01  0.34291015505E+02  0.71355862808E+02  0.00000000000E+00 0. -1.
         11    1    3    3    0    0  0.18343534197E+01  0.25792287925E+02 -0.38077308448E+02  0.46027039743E+02  0.00000000000E+00 0.  1.
</event>
<event>
 7    1  0.2184156E-005  0.9290425E+02  0.7561462E-02  0.1295967E+00
         -2   -1    0    0    0  501 -0.00000000000E+00  0.00000000000E+00  0.55099183457E+02  0.55099183457E+02  0.00000000000E+00 0.  1.
          2   -1    0    0  501    0  0.00000000000E+00 -0.00000000000E+00 -0.64256708770E+03  0.64256708770E+03  0.00000000000E+00 0. -1.
         23    2    1    2    0    0 -0.53790440276E+02  0.12971954556E+02 -0.14780069141E+03  0.18002401024E+03  0.86613606396E+02 0.  0.
          5    1    1    2  502    0  0.17529019397E+02 -0.64231845565E+02 -0.44908533434E+03  0.45401333287E+03  0.41800000000E+01 0. -1.
         -5    1    1    2    0  502  0.36261420879E+02  0.51259891009E+02  0.94181215113E+01  0.63628928038E+02  0.41800000000E+01 0.  1.
        -11    1    3    3    0    0 -0.15301005562E+02 -0.71587055021E+00  0.91510850325E+01  0.17843082668E+02  0.00000000000E+00 0.  1.
         11    1    3    3    0    0 -0.38489434714E+02  0.13687825106E+02 -0.15695177644E+03  0.16218092758E+03  0.00000000000E+00 0. -1.
</event>
<event>
 8    1  0.2184156E-005  0.9603453E+02  0.7561462E-02  0.1288863E+00
          1   -1    0    0  501    0  0.00000000000E+00  0.00000000000E+00  0.34172530659E+02  0.34172530659E+02  0.00000000000E+00 0. -1.
         -1   -1    0    0    0  501 -0.00000000000E+00 -0.00000000000E+00 -0.48140045850E+03  0.48140045850E+03  0.00000000000E+00 0.  1.
         23    2    1    2    0    0  0.10537348296E+01  0.66390400620E+02 -0.17255628355E+03  0.20654122584E+03  0.92058738466E+02 0.  0.
         23    2    1    2    0    0 -0.10537348296E+01 -0.66390400620E+02 -0.27467164429E+03  0.30903176331E+03  0.12508925977E+03 0.  0.
          5    1    4    4  502    0 -0.60607475006E+01  0.58129747864E+01  0.10911975839E+02  0.14389821154E+02  0.41800000000E+01 0. -1.
         -5    1    4    4    0  502  0.50070126710E+01 -0.72203375406E+02 -0.28558362013E+03  0.29464194216E+03  0.41800000000E+01 0. -1.
        -11    1    3    3    0    0 -0.26605702842E+02 -0.10403859321E+02 -0.69029369355E+02  0.74707145214E+02  0.00000000000E+00 0.  1.
         11    1    3    3    0    0  0.27659437672E+02  0.76794259941E+02 -0.10352691420E+03  0.13183408063E+03  0.00000000000E+00 0. -1.
</event>
<event>
 8    1  0.2184156E-005  0.1132553E+03  0.7561462E-02  0.1254658E+00
         -1   -1    0    0    0  501 -0.00000000000E+00  0.00000000000E+00  0.25831943075E+02  0.25831943075E+02  0.00000000000E+00 0.  1.
          1   -1    0    0  501    0  0.00000000000E+00 -0.00000000000E+00 -0.15759598175E+04  0.15759598175E+04  0.00000000000E+00 0. -1.
         23    2    1    2    0    0 -0.71135472444E+02  0.11584621458E+02 -0.12895943701E+03  0.17330909845E+03  0.90614834974E+02 0.  0.
         23    2    1    2    0    0  0.71135472444E+02 -0.11584621458E+02 -0.14211684374E+04  0.14284826621E+04  0.12509408297E+03 0.  0.
          5    1    4    4  502    0  0.97914990591E+02 -0.36006870463E+02 -0.89935095775E+03  0.90539132849E+03  0.41800000000E+01 0.  1.
         -5    1    4    4    0  502 -0.26779518147E+02  0.24422249005E+02 -0.52181747962E+03  0.52309133359E+03  0.41800000000E+01 0.  1.
        -11    1    3    3    0    0 -0.49338602673E+02 -0.14689662599E+02 -0.13943855751E+02  0.53333994920E+02  0.00000000000E+00 0.  1.
         11    1    3    3    0    0 -0.21796869772E+02  0.26274284057E+02 -0.11501558126E+03  0.11997510353E+03  0.00000000000E+00 0. -1.
</event>
<event>
 8    1  0.2184156E-005  0.3740508E+02  0.7561462E-02  0.1528224E+00
          1   -1    0    0  501    0  0.00000000000E+00  0.00000000000E+00  0.26801048426E+03  0.26801048426E+03  0.00000000000E+00 0. -1.
         -1   -1    0    0    0  501 -0.00000000000E+00 -0.00000000000E+00 -0.47320738590E+02  0.47320738590E+02  0.00000000000E+00 0.  1.
         23    2    1    2    0    0 -0.37064926851E-01  0.24398976786E+02  0.66222758068E+02  0.11507323096E+03  0.90890502010E+02 0.  0.
         23    2    1    2    0    0  0.37064926851E-01 -0.24398976786E+02  0.15446698760E+03  0.20025799189E+03  0.12509157292E+03 0.  0.
          5    1    4    4  502    0 -0.57583571137E+01  0.20551963875E+01  0.16905325014E+03  0.16921541387E+03  0.41800000000E+01 0.  1.
         -5    1    4    4    0  502  0.57954220406E+01 -0.26454173173E+02 -0.14586262541E+02  0.31042578015E+02  0.41800000000E+01 0.  1.
        -11    1    3    3    0    0 -0.14659019213E+02  0.19874009019E+02  0.86335925510E+02  0.89798413752E+02  0.00000000000E+00 0. -1.
         11    1    3    3    0    0  0.14621954286E+02  0.45249677664E+01 -0.20113167441E+02  0.25274817209E+02  0.00000000000E+00 0.  1.
</event>
<event>
 8    1  0.2184156E-005  0.8904291E+02  0.7561462E-02  0.1305186E+00
          2   -1    0    0  501    0  0.00000000000E+00  0.00000000000E+00  0.25552589582E+03  0.25552589582E+03  0.00000000000E+00 0.  1.
         -2   -1    0    0    0  501 -0.00000000000E+00 -0.00000000000E+00 -0.47230097146E+02  0.47230097146E+02  0.00000000000E+00 0. -1.
         23    2    1    2    0    0  0.17041547047E+02  0.97982518494E+01  0.79031633685E+02  0.12180513682E+03  0.90576333377E+02 0.  0.
         23    2    1    2    0    0 -0.17041547047E+02 -0.97982518494E+01  0.12926416499E+03  0.18095085614E+03  0.12509023912E+03 0.  0.
          5    1    4    4  502    0  0.33009977879E+01  0.35434843001E+02  0.12608362763E+03  0.13107661211E+03  0.41800000000E+01 0. -1.
         -5    1    4    4    0  502 -0.20342544835E+02 -0.45233094850E+02  0.31805373531E+01  0.49874244034E+02  0.41800000000E+01 0. -1.
        -11    1    3    3    0    0 -0.12244695664E+02 -0.36052170094E+02  0.28586439949E+02  0.47611722184E+02  0.00000000000E+00 0.  1.
         11    1    3    3    0    0  0.29286242711E+02  0.45850421943E+02  0.50445193737E+02  0.74193414638E+02  0.00000000000E+00 0. -1.
</event>
<event>
 7    1  0.2184156E-005  0.1046037E+03  0.7561462E-02  0.1270902E+00
          2   -1    0    0  501    0  0.00000000000E+00  0.00000000000E+00  0.27496986665E+03  0.27496986665E+03  0.00000000000E+00 0. -1.
         -2   -1    0    0    0  501 -0.00000000000E+00 -0.00000000000E+00 -0.72749118519E+02  0.72749118519E+02  0.00000000000E+00 0.  1.
         23    2    1    2    0    0  0.87270515726E+01  0.52544317114E+02  0.69825798501E+01  0.10667278065E+03  0.92158879222E+02 0.  0.
          5    1    1    2  502    0  0.33343646082E+02 -0.52924384958E+02  0.18796690177E+03  0.19814595080E+03  0.41800000000E+01 0. -1.
         -5    1    1    2    0  502 -0.42070697654E+02  0.38006784325E+00  0.72712665099E+01  0.42900253721E+02  0.41800000000E+01 0.  1.
        -11    1    3    3    0    0  0.48809052978E+02  0.36989012129E+02  0.14724608909E+02  0.62986703187E+02  0.00000000000E+00 0.  1.
         11    1    3    3    0    0 -0.40082001405E+02  0.15555304985E+02 -0.77420290591E+01  0.43686077459E+02  0.00000000000E+00 0. -1.
</event>
<event>
 8    1  0.2184156E-005  0.9284762E+02  0.7561462E-02  0.1296099E+00
         -2   -1    0    0    0  501 -0.00000000000E+00  0.00000000000E+00  0.22383753892E+02  0.22383753892E+02  0.00000000000E+00 0.  1.
          2   -1    0    0  501    0  0.00000000000E+00 -0.00000000000E+00 -0.60654879877E+03  0.60654879877E+03  0.00000000000E+00 0. -1.
         23    2    1    2    0    0 -0.22992169801E+02  0.10836457838E+02 -0.19660236225E+03  0.22089351126E+03  0.97444270134E+02 0.  0.
         23    2    1    2    0    0  0.22992169801E+02 -0.10836457838E+02 -0.38756268262E+03  0.40803904140E+03  0.12507980515E+03 0.  0.
          5    1    4    4  502    0 -0.16674176829E+02  0.43388866740E+02 -0.25638404747E+03  0.26059714911E+03  0.41800000000E+01 0.  1.
         -5    1    4    4    0  502  0.39666346630E+02 -0.54225324578E+02 -0.13117863516E+03  0.14744189229E+03  0.41800000000E+01 0.  1.
        -11    1    3    3    0    0 -0.44487356396E+02 -0.53423018175E+01 -0.34437157842E+02  0.56511794415E+02  0.00000000000E+00 0.  1.
         11    1    3    3    0    0  0.21495186595E+02  0.16178759655E+02 -0.16216520441E+03  0.16438171684E+03  0.00000000000E+00 0. -1.
</event>
<event>
 8    1  0.2184156E-005  0.1159170E+03  0.7561462E-02  0.1249989E+00
         -2   -1    0    0    0  501 -0.00000000000E+00  0.00000000000E+00  0.11452747690E+03  0.11452747690E+03  0.00000000000E+00 0.  1.
          2   -1    0    0  501    0  0.00000000000E+00 -0.00000000000E+00 -0.31162518119E+03  0.31162518119E+03  0.00000000000E+00 0. -1.
         23    2    1    2    0    0 -0.11523937150E+02  0.10094184540E+03  0.37737222838E+02  0.14134296145E+03  0.90728592430E+02 0.  0.
         23    2    1    2    0    0  0.11523937150E+02 -0.10094184540E+03 -0.23483492713E+03  0.28480969663E+03  0.12508822092E+03 0.  0.
          5    1    4    4  502    0  0.15263246044E+01 -0.40690039599E+02 -0.21731101505E+03  0.22113244595E+03  0.41800000000E+01 0.  1.
         -5    1    4    4    0  502  0.99976125458E+01 -0.60251805803E+02 -0.17523912075E+02  0.63677250675E+02  0.41800000000E+01 0.  1.
        -11    1    3    3    0    0 -0.46452266267E+02  0.59475261199E+02  0.31773741016E+00  0.75466685982E+02  0.00000000000E+00 0.  1.
         11    1    3    3    0    0  0.34928329116E+02  0.41466584203E+02  0.37419485428E+02  0.65876275472E+02  0.00000000000E+00 0. -1.
</event>
<event>
 7    1  0.2184156E-005  0.8850403E+02  0.7561462E-02  0.1306515E+00
          2   -1    0    0  501    0  0.00000000000E+00  0.00000000000E+00  0.13673200619E+04  0.13673200619E+04  0.00000000000E+00 0. -1.
         -2   -1    0    0    0  501 -0.00000000000E+00 -0.00000000000E+00 -0.29626510167E+02  0.29626510167E+02  0.00000000000E+00 0.  1.
         23    2    1    2    0    0  0.55782153012E+02 -0.26923810255E+02  0.10419616535E+03  0.15081561166E+03  0.89732757088E+02 0.  0.
          5    1    1    2  502    0 -0.60730023949E+02  0.34114869248E+02  0.12344366558E+04  0.12364074125E+04  0.41800000000E+01 0. -1.
         -5    1    1    2    0  502  0.49478709374E+01 -0.71910589927E+01 -0.93926943794E+00  0.97235478775E+01  0.41800000000E+01 0.  1.
        -11    1    3    3    0    0 -0.14190612696E+02  0.11004527816E+02 -0.20388496806E+01  0.18072908708E+02  0.00000000000E+00 0. -1.
         11    1    3    3    0    0  0.69972765707E+02 -0.37928338071E+02  0.10623501503E+03  0.13274270296E+03  0.00000000000E+00 0.  1.
</event>
<event>
 8    1  0.2184156E-005  0.1556389E+03  0.7561462E-02  0.1193710E+00
          1   -1    0    0  501    0  0.00000000000E+00  0.00000000000E+00  0.19869646459E+02  0.19869646459E+02  0.00000000000E+00 0. -1.
         -1   -1    0    0    0  501 -0.00000000000E+00 -0.00000000000E+00 -0.12780247306E+04  0.12780247306E+04  0.00000000000E+00 0.  1.
         23    2    1    2    0    0 -0.74904069947E+02  0.91118704588E+02 -0.62597030549E+03  0.64274627857E+03  0.85852881416E+02 0.  0.
         23    2    1    2    0    0  0.74904069947E+02 -0.91118704588E+02 -0.63218477861E+03  0.65514809844E+03  0.12509275985E+03 0.  0.
          5    1    4    4  502    0  0.10723347060E+03 -0.88581701402E+02 -0.51982115130E+03  0.53812381176E+03  0.41800000000E+01 0.  1.
         -5    1    4    4    0  502 -0.32329400657E+02 -0.25370031860E+01 -0.11236362731E+03  0.11702428669E+03  0.41800000000E+01 0.  1.
        -11    1    3    3    0    0 -0.13334525018E+02  0.74461434557E+02 -0.24303993776E+03  0.25454022499E+03  0.00000000000E+00 0. -1.
         11    1    3    3    0    0 -0.61569544929E+02  0.16657270031E+02 -0.38293036773E+03  0.38820605358E+03  0.00000000000E+00 0.  1.
</event>
<event>
 8    1  0.2184156E-005  0.1062937E+03  0.7561462E-02  0.1267592E+00
         -1   -1    0    0    0  501 -0.00000000000E+00  0.00000000000E+00  0.30498507565E+02  0.30498507565E+02  0.00000000000E+00 0.  1.
          1   -1    0    0  501    0  0.00000000000E+00 -0.00000000000E+00 -0.64431053357E+03  0.64431053357E+03  0.00000000000E+00 0. -1.
         23    2    1    2    0    0  0.18302986045E+02 -0.24510933418E+02 -0.77469373343E+02  0.12644702979E+03  0.95139699293E+02 0.  0.
         23    2    1    2    0    0 -0.18302986045E+02  0.24510933418E+02 -0.53634265266E+03  0.54836201134E+03  0.11000758731E+03 0.  0.
          5    1    4    4  502    0  0.25618987417E+02  0.54377799728E+02 -0.25537076982E+03  0.26238326947E+03  0.41800000000E+01 0. -1.
         -5    1    4    4    0  502 -0.43921973462E+02 -0.29866866309E+02 -0.28097188284E+03  0.28597874187E+03  0.41800000000E+01 0.  1.
        -11    1    3    3    0    0 -0.29460612412E+02 -0.39241182917E+02 -0.46773735625E+02  0.67790710756E+02  0.00000000000E+00 0.  1.
         11    1    3    3    0    0  0.47763598456E+02  0.14730249499E+02 -0.30695637718E+02  0.58656319035E+02  0.00000000000E+00 0. -1.
</event>
<event>
 8    1  0.2184156E-005  0.8065744E+02  0.7561462E-02  0.1327196E+00
         -1   -1    0    0    0  501 -0.00000000000E+00  0.00000000000E+00  0.40054203753E+03  0.40054203753E+03  0.00000000000E+00 0.  1.
          1   -1    0    0  501    0  0.00000000000E+00 -0.00000000000E+00 -0.35986177966E+02  0.35986177966E+02  0.00000000000E+00 0. -1.
         23    2    1    2    0    0 -0.40557899405E+02  0.24026179691E+02  0.12434332655E+03  0.16162595370E+03  0.91866672615E+02 0.  0.
         23    2    1    2    0    0  0.40557899405E+02 -0.24026179691E+02  0.24021253301E+03  0.27490226180E+03  0.12508793711E+03 0.  0.
          5    1    4    4  502    0  0.72656977469E+02 -0.29096028966E+02  0.82393470582E+02  0.11371794788E+03  0.41800000000E+01 0. -1.
         -5    1    4    4    0  502 -0.32099078065E+02  0.50698492754E+01  0.15781906243E+03  0.16118431391E+03  0.41800000000E+01 0. -1.
        -11    1    3    3    0    0 -0.24189096111E+02  0.43491933271E+01  0.13250177304E+03  0.13476181845E+03  0.00000000000E+00 0.  1.
         11    1    3    3    0    0 -0.16368803294E+02  0.19676986364E+02 -0.81584464891E+01  0.26864135250E+02  0.00000000000E+00 0. -1.
</event>
<event>
 7    1  0.2184156E-005  0.1820504E+03  0.7561462E-02  0.1165833E+00
         -2   -1    0    0    0  501 -0.00000000000E+00  0.00000000000E+00  0.33364922728E+02  0.33364922728E+02  0.00000000000E+00 0.  1.
          2   -1    0    0  501    0  0.00000000000E+00 -0.00000000000E+00 -0.22842949375E+04  0.22842949375E+04  0.00000000000E+00 0. -1.
         23    2    1    2    0    0  0.86368682509E+01 -0.78081793841E+02 -0.20064928691E+03  0.23420868527E+03  0.91772598828E+02 0.  0.
          5    1    1    2  502    0  0.92134113542E+02  0.11344201854E+03 -0.18557010664E+04  0.18614515053E+04  0.41800000000E+01 0. -1.
         -5    1    1    2    0  502 -0.10077098179E+03 -0.35360224703E+02 -0.19457966148E+03  0.22199966965E+03  0.41800000000E+01 0.  1.
        -11    1    3    3    0    0 -0.20477877385E+02  0.65672882243E+01 -0.86569593021E+02  0.89200712848E+02  0.00000000000E+00 0. -1.
         11    1    3    3    0    0  0.29114745636E+02 -0.84649082066E+02 -0.11407969389E+03  0.14500797243E+03  0.00000000000E+00 0.  1.
</event>
<event>
 8    1  0.2184156E-005  0.9027325E+02  0.7561462E-02  0.1302191E+00
         -1   -1    0    0    0  501 -0.00000000000E+00  0.00000000000E+00  0.15909923456E+03  0.15909923456E+03  0.00000000000E+00 0.  1.
          1   -1    0    0  501    0  0.00000000000E+00 -0.00000000000E+00 -0.88686422779E+02  0.88686422779E+02  0.00000000000E+00 0. -1.
         23    2    1    2    0    0  0.31089383359E+02  0.88149156053E+01  0.68066097895E+02  0.11856471064E+03  0.91544221183E+02 0.  0.
         23    2    1    2    0    0 -0.31089383359E+02 -0.88149156053E+01  0.23467138837E+01  0.12922094670E+03  0.12509313932E+03 0.  0.
          5    1    4    4  502    0 -0.56155347453E+02 -0.20679996136E+02  0.47193492596E+02  0.76326819868E+02  0.41800000000E+01 0.  1.
         -5    1    4    4    0  502  0.25065964094E+02  0.11865080531E+02 -0.44846778712E+02  0.52894126827E+02  0.41800000000E+01 0.  1.
        -11    1    3    3    0    0  0.36212844007E+02 -0.33832937689E+02  0.18311128185E+02  0.52833087731E+02  0.00000000000E+00 0. -1.
         11    1    3    3    0    0 -0.51234606471E+01  0.42647853295E+02  0.49754969710E+02  0.65731622911E+02  0.00000000000E+00 0.  1.
</event>
<event>
 8    1  0.2184156E-005  0.1178952E+03  0.7561462E-02  0.1246610E+00
         -1   -1    0    0    0  501 -0.00000000000E+00  0.00000000000E+00  0.29377641223E+03  0.29377641223E+03  0.00000000000E+00 0.  1.
          1   -1    0    0  501    0  0.00000000000E+00 -0.00000000000E+00 -0.61539870922E+02  0.61539870922E+02  0.00000000000E+00 0. -1.
         23    2    1    2    0    0 -0.24877756234E+02  0.70932528617E+02  0.13880782481E+03  0.18207201847E+03  0.90731920019E+02 0.  0.
         23    2    1    2    0    0  0.24877756234E+02 -0.70932528617E+02  0.93428716503E+02  0.17324426469E+03  0.12503728967E+03 0.  0.
          5    1    4    4  502    0  0.10644469415E+02  0.28059856395E+02 -0.73742834968E+01  0.31185136317E+02  0.41800000000E+01 0. -1.
         -5    1    4    4    0  502  0.14233286819E+02 -0.98992385011E+02  0.10080300000E+03  0.14205912837E+03  0.41800000000E+01 0. -1.
        -11    1    3    3    0    0  0.26099455363E+02  0.16823008495E+02  0.84450976588E+02  0.89978678762E+02  0.00000000000E+00 0.  1.
         11    1    3    3    0    0 -0.50977211597E+02  0.54109520121E+02  0.54356848217E+02  0.92093339705E+02  0.00000000000E+00 0. -1.
</event>
<event>
 8    1  0.2184156E-005  0.7687245E+02  0.7561462E-02  0.1338169E+00
          1   -1    0    0  501    0  0.00000000000E+00  0.00000000000E+00  0.49144854244E+03  0.49144854244E+03  0.00000000000E+00 0. -1.
         -1   -1    0    0    0  501 -0.00000000000E+00 -0.00000000000E+00 -0.61918935143E+02  0.61918935143E+02  0.00000000000E+00 0.  1.
         23    2    1    2    0    0  0.12837573292E+02 -0.38557015562E+01 -0.12210494314E+02  0.93094804817E+02  0.91311975063E+02 0.  0.
         23    2    1    2    0    0 -0.12837573292E+02  0.38557015562E+01  0.44174010162E+03  0.46027267277E+03  0.12859605827E+03 0.  0.
          5    1    4    4  502    0 -0.53394327131E+02 -0.41055184369E+02  0.26304220156E+03  0.27156059091E+03  0.41800000000E+01 0. -1.
         -5    1    4    4    0  502  0.40556753839E+02  0.44910885925E+02  0.17869790006E+03  0.18871208186E+03  0.41800000000E+01 0.  1.
        -11    1    3    3    0    0  0.16903729159E+01 -0.11797285667E+02  0.38639166904E+02  0.40435362355E+02  0.00000000000E+00 0. -1.
         11    1    3    3    0    0  0.11147200376E+02  0.79415841109E+01 -0.50849661218E+02  0.52659442462E+02  0.00000000000E+00 0.  1.
</event>
<event>
 8    1  0.2184156E-005  0.9025762E+02  0.7561462E-02  0.1302229E+00
         -1   -1    0    0    0  501 -0.00000000000E+00  0.00000000000E+00  0.24457816222E+02  0.24457816222E+02  0.00000000000E+00 0. -1.
          1   -1    0    0  501    0  0.00000000000E+00 -0.00000000000E+00 -0.75728120404E+03  0.75728120404E+03  0.00000000000E+00 0.  1.
         23    2    1    2    0    0  0.70144165048E+02  0.39572013454E+01 -0.22617749544E+03  0.25517106255E+03  0.94974461739E+02 0.  0.
         23    2    1    2    0    0 -0.70144165048E+02 -0.39572013454E+01 -0.50664589237E+03  0.52656795772E+03  0.12509152850E+03 0.  0.
          5    1    4    4  502    0  0.87611650172E+01 -0.12513523244E+02 -0.35503402374E+03  0.35538708008E+03  0.41800000000E+01 0. -1.
         -5    1    4    4    0  502 -0.78905330065E+02  0.85563218985E+01 -0.15161186864E+03  0.17118087764E+03  0.41800000000E+01 0. -1.
        -11    1    3    3    0    0 -0.23880497740E+01  0.11989014486E+02  0.46527987182E+01  0.13080052981E+02  0.00000000000E+00 0. -1.
         11    1    3    3    0    0  0.72532214822E+02 -0.80318131403E+01 -0.23083029416E+03  0.24209100956E+03  0.00000000000E+00 0.  1.
</event>
<event>
 8    1  0.2184156E-005  0.1048331E+03  0.7561462E-02  0.1270449E+00
          2   -1    0    0  501    0  0.00000000000E+00  0.00000000000E+00  0.20719688781E+03  0.20719688781E+03  0.00000000000E+00 0.  1.
         -2   -1    0    0    0  501 -0.00000000000E+00 -0.00000000000E+00 -0.91141243750E+02  0.91141243750E+02  0.00000000000E+00 0. -1.
         23    2    1    2    0    0 -0.87460160313E+01 -0.56348881927E+02 -0.15999027754E+02  0.10771404888E+03  0.89970318136E+02 0.  0.
         23    2    1    2    0    0  0.87460160313E+01  0.56348881927E+02  0.13205467182E+03  0.19062408268E+03  0.12508962891E+03 0.  0.
          5    1    4    4  502    0  0.49704398567E+02  0.32983206979E+02  0.11213351417E+02  0.60841029163E+02  0.41800000000E+01 0.  1.
         -5    1    4    4    0  502 -0.40958382536E+02  0.23365674947E+02  0.12084132040E+03  0.12978305352E+03  0.41800000000E+01 0.  1.
        -11    1    3    3    0    0 -0.46114658301E+01  0.22804827710E+02 -0.16375715094E+02  0.28451534736E+02  0.00000000000E+00 0.  1.
         11    1    3    3    0    0 -0.41345502013E+01 -0.79153709637E+02  0.37668733981E+00  0.79262514141E+02  0.00000000000E+00 0. -1.
</event>
<event>
 8    1  0.2184156E-005  0.8984720E+02  0.7561462E-02  0.1303222E+00
          2   -1    0    0  501    0  0.00000000000E+00  0.00000000000E+00  0.65971779322E+02  0.65971779322E+02  0.00000000000E+00 0. -1.
         -2   -1    0    0    0  501 -0.00000000000E+00 -0.00000000000E+00 -0.21000407024E+03  0.21000407024E+03  0.00000000000E+00 0.  1.
         23    2    1    2    0    0  0.44824775481E+02 -0.10714271144E+02 -0.72694387045E+02  0.12478133003E+03  0.90342959397E+02 0.  0.
         23    2    1    2    0    0 -0.44824775481E+02  0.10714271144E+02 -0.71337903869E+02  0.15119451953E+03  0.12508649050E+03 0.  0.
          5    1    4    4  502    0 -0.48970962009E+02  0.30358371955E+02 -0.10027633620E+03  0.11572640956E+03  0.41800000000E+01 0.  1.
         -5    1    4    4    0  502  0.41461865274E+01 -0.19644100811E+02  0.28938432329E+02  0.35468109973E+02  0.41800000000E+01 0.  1.
        -11    1    3    3    0    0 -0.24205630295E+01 -0.43719085520E+02 -0.31051090652E+02  0.53678559917E+02  0.00000000000E+00 0. -1.
         11    1    3    3    0    0  0.47245338511E+02  0.33004814376E+02 -0.41643296393E+02  0.71102770111E+02  0.00000000000E+00 0.  1.
</event>
<event>
 8    1  0.2184156E-005  0.1760484E+03  0.7561462E-02  0.1171683E+00
         -2   -1    0    0    0  501 -0.00000000000E+00  0.00000000000E+00  0.12261527620E+03  0.12261527620E+03  0.00000000000E+00 0.  1.
          2   -1    0    0  501    0  0.00000000000E+00 -0.00000000000E+00 -0.33856579437E+03  0.33856579437E+03  0.00000000000E+00 0. -1.
         23    2    1    2    0    0 -0.12663487389E+03  0.10667903666E+03 -0.45494457454E+02  0.19391694348E+03  0.90095655622E+02 0.  0.
         23    2    1    2    0    0  0.12663487389E+03 -0.10667903666E+03 -0.17045606072E+03  0.26726412709E+03  0.12230305329E+03 0.  0.
          5    1    4    4  502    0  0.10608285961E+03 -0.62644620268E+02 -0.17940806972E+03  0.21767556003E+03  0.41800000000E+01 0. -1.
         -5    1    4    4    0  502  0.20552014282E+02 -0.44034416392E+02  0.89520090002E+01  0.49588567061E+02  0.41800000000E+01 0.  1.
        -11    1    3    3    0    0 -0.13574309741E+03  0.97562806997E+02 -0.24035258793E+02  0.16888571127E+03  0.00000000000E+00 0.  1.
         11    1    3    3    0    0  0.91082235236E+01  0.91162296633E+01 -0.21459198661E+02  0.25031232215E+02  0.00000000000E+00 0. -1.
</event>
<event>
 8    1  0.2184156E-005  0.2802195E+03  0.7561462E-02  0.1095569E+00
         -1   -1    0    0    0  501 -0.00000000000E+00  0.00000000000E+00  0.10865796313E+03  0.10865796313E+03  0.00000000000E+00 0. -1.
          1   -1    0    0  501    0  0.00000000000E+00 -0.00000000000E+00 -0.87120237420E+03  0.87120237420E+03  0.00000000000E+00 0.  1.
         23    2    1    2    0    0  0.81366105747E+02 -0.25562433610E+03 -0.20574276146E+03  0.34927558669E+03  0.87744556486E+02 0.  0.
         23    2    1    2    0    0 -0.81366105747E+02  0.25562433610E+03 -0.55680164960E+03  0.63058475064E+03  0.12507920038E+03 0.  0.
          5    1    4    4  502    0 -0.84081260865E+02  0.25929238759E+03 -0.46833272289E+03  0.54189963316E+03  0.41800000000E+01 0. -1.
         -5    1    4    4    0  502  0.27151551184E+01 -0.36680514835E+01 -0.88468926716E+02  0.88685117485E+02  0.41800000000E+01 0. -1.
        -11    1    3    3    0    0  0.33761806090E+02 -0.21895858878E+03 -0.17102579121E+03  0.27987951767E+03  0.00000000000E+00 0. -1.
         11    1    3    3    0    0  0.47604299657E+02 -0.36665747322E+02 -0.34716970254E+02  0.69396069025E+02  0.00000000000E+00 0.  1.
</event>
<event>
 8    1  0.2184156E-005  0.1093611E+03  0.7561462E-02  0.1261758E+00
          1   -1    0    0  501    0  0.00000000000E+00  0.00000000000E+00  0.27840991439E+02  0.27840991439E+02  0.00000000000E+00 0. -1.
         -1   -1    0    0    0  501 -0.00000000000E+00 -0.00000000000E+00 -0.77764334352E+03  0.77764334352E+03  0.00000000000E+00 0.  1.
         23    2    1    2    0    0 -0.69043503895E+02 -0.30943321211E+02 -0.51693314642E+03  0.53052757339E+03  0.92277482072E+02 0.  0.
         23    2    1    2    0    0  0.69043503895E+02  0.30943321211E+02 -0.23286920566E+03  0.27495676157E+03  0.12509460113E+03 0.  0.
          5    1    4    4  502    0  0.76552747218E+02  0.10418753095E+02 -0.53157136885E+02  0.93872398097E+02  0.41800000000E+01 0.  1.
         -5    1    4    4    0  502 -0.75092433225E+01  0.20524568116E+02 -0.17971206877E+03  0.18108436347E+03  0.41800000000E+01 0.  1.
        -11    1    3    3    0    0  0.20950245690E+02  0.60387150225E+01 -0.10802986015E+03  0.11020811929E+03  0.00000000000E+00 0.  1.
         11    1    3    3    0    0 -0.89993749585E+02 -0.36982036233E+02 -0.40890328627E+03  0.42031945410E+03  0.00000000000E+00 0. -1.
</event>
<event>
 8    1  0.2184156E-005  0.2062039E+03  0.7561462E-02  0.1144608E+00
         -2   -1    0    0    0  501 -0.00000000000E+00  0.00000000000E+00  0.74677983696E+02  0.74677983696E+02  0.00000000000E+00 0.  1.
          2   -1    0    0  501    0  0.00000000000E+00 -0.00000000000E+00 -0.86426109992E+03  0.86426109992E+03  0.00000000000E+00 0. -1.
         23    2    1    2    0    0  0.17870651748E+03 -0.22746936261E+02 -0.12164486321E+03  0.23591502056E+03  0.91678687163E+02 0.  0.
         23    2    1    2    0    0 -0.17870651748E+03  0.22746936261E+02 -0.66793825301E+03  0.70302406306E+03  0.12509149015E+03 0.  0.
          5    1    4    4  502    0  0.10967061825E+02 -0.20432718957E+02 -0.52125203396E+02  0.57203860693E+02  0.41800000000E+01 0. -1.
         -5    1    4    4    0  502 -0.18967357930E+03  0.43179655218E+02 -0.61581304961E+03  0.64582020237E+03  0.41800000000E+01 0. -1.
        -11    1    3    3    0    0  0.31045971035E+02 -0.34174206233E+02 -0.59476463428E+02  0.75293946577E+02  0.00000000000E+00 0. -1.
         11    1    3    3    0    0  0.14766054644E+03  0.11427269971E+02 -0.62168399785E+02  0.16062107398E+03  0.00000000000E+00 0.  1.
</event>
<event>
 7    1  0.2184156E-005  0.1200458E+03  0.7561462E-02  0.1243021E+00
         -1   -1    0    0    0  501 -0.00000000000E+00  0.00000000000E+00  0.44173102431E+02  0.44173102431E+02  0.00000000000E+00 0.  1.
          1   -1    0    0  501    0  0.00000000000E+00 -0.00000000000E+00 -0.36575905144E+03  0.36575905144E+03  0.00000000000E+00 0. -1.
         23    2    1    2    0    0 -0.47899235323E+02 -0.14798151856E+01 -0.96846703202E+02  0.14169224563E+03  0.91656325227E+02 0.  0.
          5    1    1    2  502    0 -0.44429251984E+02  0.16824706653E+02 -0.11148009994E+03  0.12125310004E+03  0.41800000000E+01 0. -1.
         -5    1    1    2    0  502  0.92328487307E+02 -0.15344891468E+02 -0.11325914586E+03  0.14698680820E+03  0.41800000000E+01 0.  1.
        -11    1    3    3    0    0 -0.72930067134E+02 -0.63697414504E+01 -0.50972636344E+02  0.89205257436E+02  0.00000000000E+00 0. -1.
         11    1    3    3    0    0  0.25030831810E+02  0.48899262648E+01 -0.45874066858E+02  0.52486988198E+02  0.00000000000E+00 0.  1.
</event>
<event>
 8    1  0.2184156E-005  0.1111745E+03  0.7561462E-02  0.1258410E+00
          1   -1    0    0  501    0  0.00000000000E+00  0.00000000000E+00  0.82323282951E+03  0.82323282951E+03  0.00000000000E+00 0. -1.
         -1   -1    0    0    0  501 -0.00000000000E+00 -0.00000000000E+00 -0.48164378523E+02  0.48164378523E+02  0.00000000000E+00 0.  1.
         23    2    1    2    0    0 -0.37048238606E+02 -0.22051996203E+02  0.14377447532E+02  0.99285010362E+02  0.88271964772E+02 0.  0.
         23    2    1    2    0    0  0.37048238606E+02  0.22051996203E+02  0.76069100345E+03  0.77211219767E+03  0.12509028952E+03 0.  0.
          5    1    4    4  502    0  0.53460569162E+02 -0.40336890385E+02  0.35177204217E+03  0.35811470123E+03  0.41800000000E+01 0.  1.
         -5    1    4    4    0  502 -0.16412330556E+02  0.62388886588E+02  0.40891896128E+03  0.41399749644E+03  0.41800000000E+01 0.  1.
        -11    1    3    3    0    0 -0.40826143590E+02  0.22007414461E+02 -0.11851735328E+02  0.47870282242E+02  0.00000000000E+00 0.  1.
         11    1    3    3    0    0  0.37779049835E+01 -0.44059410665E+02  0.26229182859E+02  0.51414728120E+02  0.00000000000E+00 0. -1.
</event>
<event>
 8    1  0.2184156E-005  0.1315942E+03  0.7561462E-02  0.1225109E+00
          2   -1    0    0  501    0  0.00000000000E+00  0.00000000000E+00  0.46705948348E+03  0.46705948348E+03  0.00000000000E+00 0. -1.
         -2   -1    0    0    0  501 -0.00000000000E+00 -0.00000000000E+00 -0.52162294749E+02  0.52162294749E+02  0.00000000000E+00 0.  1.
         23    2    1    2    0    0 -0.46415765712E+02 -0.76312343289E+02  0.84170330679E+02  0.15452226548E+03  0.93885509618E+02 0.  0.
         23    2    1    2    0    0  0.46415765712E+02  0.76312343289E+02  0.33072685805E+03  0.36469951276E+03  0.12508989936E+03 0.  0.
          5    1    4    4  502    0  0.77634557685E+02  0.61187166260E+02  0.14387938534E+03  0.17461312605E+03  0.41800000000E+01 0.  1.
         -5    1    4    4    0  502 -0.31218791973E+02  0.15125177029E+02  0.18684747271E+03  0.19008638671E+03  0.41800000000E+01 0.  1.
        -11    1    3    3    0    0 -0.26678750339E+02  0.18500398253E+02  0.25586175049E+02  0.41336095713E+02  0.00000000000E+00 0. -1.
         11    1    3    3    0    0 -0.19737015373E+02 -0.94812741542E+02  0.58584155630E+02  0.11318616976E+03  0.00000000000E+00 0.  1.
</event>
<event>
 8    1  0.2184156E-005  0.6549339E+02  0.7561462E-02  0.1376125E+00
          1   -1    0    0  501    0  0.00000000000E+00  0.00000000000E+00  0.59160320076E+03  0.59160320076E+03  0.00000000000E+00 0. -1.
         -1   -1    0    0    0  501 -0.00000000000E+00 -0.00000000000E+00 -0.43974018922E+02  0.43974018922E+02  0.00000000000E+00 0.  1.
         23    2    1    2    0    0  0.28963775095E+02  0.52104735701E+02  0.50172586542E+02  0.11918034582E+03  0.90182385419E+02 0.  0.
         23    2    1    2    0    0 -0.28963775095E+02 -0.52104735701E+02  0.49745659530E+03  0.51639687386E+03  0.12509541709E+03 0.  0.
          5    1    4    4  502    0 -0.89061492031E+01 -0.23249368536E+02  0.47230712486E+03  0.47298133708E+03  0.41800000000E+01 0.  1.
         -5    1    4    4    0  502 -0.20057625892E+02 -0.28855367165E+02  0.25149470433E+02  0.43415536778E+02  0.41800000000E+01 0.  1.
        -11    1    3    3    0    0  0.34973305873E+02  0.26038477144E+02 -0.17060711821E+02  0.46820960087E+02  0.00000000000E+00 0.  1.
         11    1    3    3    0    0 -0.60095307772E+01  0.26066258556E+02  0.67233298363E+02  0.72359385736E+02  0.00000000000E+00 0. -1.
</event>
<event>
 8    1  0.2184156E-005  0.1594894E+03  0.7561462E-02  0.1189274E+00
          1   -1    0    0  501    0  0.00000000000E+00  0.00000000000E+00  0.24941540153E+03  0.24941540153E+03  0.00000000000E+00 0. -1.
         -1   -1    0    0    0  501 -0.00000000000E+00 -0.00000000000E+00 -0.17599219588E+03  0.17599219588E+03  0.00000000000E+00 0.  1.
         23    2    1    2    0    0  0.10320970004E+03  0.11596210163E+03 -0.54955272950E+02  0.18828317117E+03  0.91274417691E+02 0.  0.
         23    2    1    2    0    0 -0.10320970004E+03 -0.11596210163E+03  0.12837847860E+03  0.23712442624E+03  0.12509000182E+03 0.  0.
          5    1    4    4  502    0  0.28330583938E+01 -0.14222327304E+02  0.81397411167E+02  0.82784731434E+02  0.41800000000E+01 0. -1.
         -5    1    4    4    0  502 -0.10604275843E+03 -0.10173977432E+03  0.46981067430E+02  0.15433969480E+03  0.41800000000E+01 0. -1.
        -11    1    3    3    0    0  0.21856724170E+02  0.39924918388E+02  0.24306509916E+02  0.51599631046E+02  0.00000000000E+00 0. -1.
         11    1    3    3    0    0  0.81352975870E+02  0.76037183237E+02 -0.79261782867E+02  0.13668354012E+03  0.00000000000E+00 0.  1.
</event>
<event>
 8    1  0.2184156E-005  0.1449645E+03  0.7561462E-02  0.1206801E+00
          2   -1    0    0  501    0  0.00000000000E+00  0.00000000000E+00  0.21230325293E+03  0.21230325293E+03  0.00000000000E+00 0. -1.
         -2   -1    0    0    0  501 -0.00000000000E+00 -0.00000000000E+00 -0.11589941668E+03  0.11589941668E+03  0.00000000000E+00 0.  1.
         23    2    1    2    0    0 -0.76955078149E+02  0.66787071613E+02 -0.87242246424E+01  0.13560152485E+03  0.89045294413E+02 0.  0.
         23    2    1    2    0    0  0.76955078149E+02 -0.66787071613E+02  0.10512806089E+03  0.19260114476E+03  0.12514269771E+03 0.  0.
          5    1    4    4  502    0  0.59455145172E+02  0.27074138761E+02  0.48973284101E+02  0.81754377453E+02  0.41800000000E+01 0. -1.
         -5    1    4    4    0  502  0.17499932978E+02 -0.93861210374E+02  0.56154776784E+02  0.11084676731E+03  0.41800000000E+01 0. -1.
        -11    1    3    3    0    0 -0.19784222110E+02  0.68901909280E+02 -0.25331168552E+02  0.76029972031E+02  0.00000000000E+00 0.  1.
         11    1    3    3    0    0 -0.57170856039E+02 -0.21148376669E+01  0.16606943910E+02  0.59571552814E+02  0.00000000000E+00 0. -1.
</event>
<event>
 8    1  0.2184156E-005  0.4802829E+02  0.7561462E-02  0.1456276E+00
          2   -1    0    0  501    0  0.00000000000E+00  0.00000000000E+00  0.14764205312E+03  0.14764205312E+03  0.00000000000E+00 0. -1.
         -2   -1    0    0    0  501 -0.00000000000E+00 -0.00000000000E+00 -0.98487827299E+02  0.98487827299E+02  0.00000000000E+00 0.  1.
         23    2    1    2    0    0  0.18943196178E+02 -0.29983956651E+02 -0.20492687341E+02  0.98642211147E+02  0.89735462598E+02 0.  0.
         23    2    1    2    0    0 -0.18943196178E+02  0.29983956651E+02  0.69646913157E+02  0.14748766927E+03  0.12507612776E+03 0.  0.
          5    1    4    4  502    0 -0.23407296166E+02  0.10136565218E+02  0.10409895084E+03  0.10726003652E+03  0.41800000000E+01 0. -1.
         -5    1    4    4    0  502  0.44640999880E+01  0.19847391433E+02 -0.34452037687E+02  0.40227632744E+02  0.41800000000E+01 0. -1.
        -11    1    3    3    0    0 -0.11413132056E+01 -0.29322654603E+02 -0.52909298389E+02  0.60502186116E+02  0.00000000000E+00 0.  1.
         11    1    3    3    0    0  0.20084509384E+02 -0.66130204812E+00  0.32416611048E+02  0.38140025032E+02  0.00000000000E+00 0. -1.
</event>
<event>
 8    1  0.2184156E-005  0.1978689E+03  0.7561462E-02  0.1151550E+00
         -2   -1    0    0    0  501 -0.00000000000E+00  0.00000000000E+00  0.29673571535E+02  0.29673571535E+02  0.00000000000E+00 0.  1.
          2   -1    0    0  501    0  0.00000000000E+00 -0.00000000000E+00 -0.15481948485E+04  0.15481948485E+04  0.00000000000E+00 0. -1.
         23    2    1    2    0    0 -0.78123482809E+02  0.16339217313E+03 -0.59864782476E+03  0.63202794857E+03  0.90993565020E+02 0.  0.
         23    2    1    2    0    0  0.78123482809E+02 -0.16339217313E+03 -0.91987345220E+03  0.94584047146E+03  0.12508696410E+03 0.  0.
          5    1    4    4  502    0 -0.10944849187E+02 -0.37005731565E+02 -0.55438715275E+02  0.67676712713E+02  0.41800000000E+01 0. -1.
         -5    1    4    4    0  502  0.89068331997E+02 -0.12638644156E+03 -0.86443473693E+03  0.87816375875E+03  0.41800000000E+01 0. -1.
        -11    1    3    3    0    0  0.43947359586E+01  0.94915220426E+02 -0.30198164028E+03  0.31657720044E+03  0.00000000000E+00 0.  1.
         11    1    3    3    0    0 -0.82518218768E+02  0.68476952703E+02 -0.29666618448E+03  0.31545074813E+03  0.00000000000E+00 0. -1.
</event>
<event>
 8    1  0.2184156E-005  0.1147820E+03  0.7561462E-02  0.1251962E+00
          3   -1    0    0  501    0  0.00000000000E+00  0.00000000000E+00  0.72073980495E+02  0.72073980495E+02  0.00000000000E+00 0. -1.
         -3   -1    0    0    0  501 -0.00000000000E+00 -0.00000000000E+00 -0.25314951476E+03  0.25314951476E+03  0.00000000000E+00 0.  1.
         23    2    1    2    0    0  0.33154405868E+02 -0.32533039290E+02 -0.16044316175E+03  0.19020103573E+03  0.90976989215E+02 0.  0.
         23    2    1    2    0    0 -0.33154405868E+02  0.32533039290E+02 -0.20632372516E+02  0.13502245952E+03  0.12509099291E+03 0.  0.
          5    1    4    4  502    0  0.41548874315E+02  0.35492387677E+02  0.69121854988E+01  0.55238295124E+02  0.41800000000E+01 0.  1.
         -5    1    4    4    0  502 -0.74703280183E+02 -0.29593483870E+01 -0.27544558015E+02  0.79784164401E+02  0.41800000000E+01 0.  1.
        -11    1    3    3    0    0 -0.20288244727E+02  0.17410231157E+02 -0.62333739105E+02  0.67824951558E+02  0.00000000000E+00 0.  1.
         11    1    3    3    0    0  0.53442650595E+02 -0.49943270447E+02 -0.98109422643E+02  0.12237608417E+03  0.00000000000E+00 0. -1.
</event>
<event>
 8    1  0.2184156E-005  0.1197893E+03  0.7561462E-02  0.1243445E+00
          3   -1    0    0  501    0  0.00000000000E+00  0.00000000000E+00  0.12527063177E+03  0.12527063177E+03  0.00000000000E+00 0. -1.
         -3   -1    0    0    0  501 -0.00000000000E+00 -0.00000000000E+00 -0.12015882498E+03  0.12015882498E+03  0.00000000000E+00 0.  1.
         23    2    1    2    0    0 -0.38154751811E+01  0.57377175670E+02  0.46940098524E+01  0.10775017697E+03  0.91002026186E+02 0.  0.
         23    2    1    2    0    0  0.38154751811E+01 -0.57377175670E+02  0.41779694068E+00  0.13767927978E+03  0.12509480960E+03 0.  0.
          5    1    4    4  502    0  0.23982874708E+02  0.32438147770E+02 -0.16868568516E+02  0.43925308352E+02  0.41800000000E+01 0. -1.
         -5    1    4    4    0  502 -0.20167399527E+02 -0.89815323440E+02  0.17286365457E+02  0.93753971431E+02  0.41800000000E+01 0. -1.
        -11    1    3    3    0    0  0.41848879930E+01 -0.24375222778E+02  0.65563586386E+01  0.25586141006E+02  0.00000000000E+00 0.  1.
         11    1    3    3    0    0 -0.80003631741E+01  0.81752398448E+02 -0.18623487861E+01  0.82164035964E+02  0.00000000000E+00 0. -1.
</event>
<event>
 8    1  0.2184156E-005  0.9048490E+02  0.7561462E-02  0.1301682E+00
          2   -1    0    0  501    0  0.00000000000E+00  0.00000000000E+00  0.62575760399E+02  0.62575760399E+02  0.00000000000E+00 0. -1.
         -2   -1    0    0    0  501 -0.00000000000E+00 -0.00000000000E+00 -0.20185483367E+03  0.20185483367E+03  0.00000000000E+00 0.  1.
         23    2    1    2    0    0  0.36657491517E+02  0.93233674569E+01 -0.72335489634E+02  0.12222372858E+03  0.90969884590E+02 0.  0.
         23    2    1    2    0    0 -0.36657491517E+02 -0.93233674569E+01 -0.66943583632E+02  0.14220686548E+03  0.11962713879E+03 0.  0.
          5    1    4    4  502    0  0.24338435881E+02  0.72872372417E+01  0.21409827283E+02  0.33486062654E+02  0.41800000000E+01 0. -1.
         -5    1    4    4    0  502 -0.60995927398E+02 -0.16610604699E+02 -0.88353410915E+02  0.10872080283E+03  0.41800000000E+01 0.  1.
        -11    1    3    3    0    0  0.35795950460E+01  0.43882904922E+02 -0.12803542761E+02  0.45852519586E+02  0.00000000000E+00 0.  1.
         11    1    3    3    0    0  0.33077896471E+02 -0.34559537466E+02 -0.59531946873E+02  0.76371208995E+02  0.00000000000E+00 0. -1.
</event>
<event>
 7    1  0.2184156E-005  0.3625347E+03  0.7561462E-02  0.1057585E+00
         -1   -1    0    0    0  501 -0.00000000000E+00  0.00000000000E+00  0.83012755218E+03  0.83012755218E+03  0.00000000000E+00 0.  1.
          1   -1    0    0  501    0  0.00000000000E+00 -0.00000000000E+00 -0.17190758798E+03  0.17190758798E+03  0.00000000000E+00 0. -1.
         23    2    1    2    0    0  0.14287387209E+03 -0.31729471968E+03  0.40215994893E+03  0.54632375904E+03  0.12509253658E+03 0.  0.
          5    1    3    3  502    0  0.12719361431E+03 -0.13683915982E+03  0.23051132692E+03  0.29674250693E+03  0.41800000000E+01 0.  1.
         -5    1    3    3    0  502  0.15680257789E+02 -0.18045555986E+03  0.17164862200E+03  0.24958125211E+03  0.41800000000E+01 0.  1.
        -11    1    1    2    0    0 -0.65222790156E+02  0.23493808746E+03  0.23866627284E+03  0.34119130570E+03  0.00000000000E+00 0.  1.
         11    1    1    2    0    0 -0.77651081938E+02  0.82356632225E+02  0.17393742435E+02  0.11452007542E+03  0.00000000000E+00 0. -1.
</event>
<event>
 7    1  0.2184156E-005  0.1164970E+03  0.7561462E-02  0.1248990E+00
         -1   -1    0    0    0  501 -0.00000000000E+00  0.00000000000E+00  0.52827961426E+03  0.52827961426E+03  0.00000000000E+00 0.  1.
          1   -1    0    0  501    0  0.00000000000E+00 -0.00000000000E+00 -0.41172077111E+02  0.41172077111E+02  0.00000000000E+00 0. -1.
         23    2    1    2    0    0 -0.86099409816E+01  0.32867401999E+02  0.33082602546E+03  0.34531025154E+03  0.92945755672E+02 0.  0.
          5    1    1    2  502    0 -0.44549448047E+02 -0.59587667570E+02  0.22778449641E+02  0.77920944654E+02  0.41800000000E+01 0. -1.
         -5    1    1    2    0  502  0.53159389028E+02  0.26720265571E+02  0.13350306205E+03  0.14622049518E+03  0.41800000000E+01 0.  1.
        -11    1    3    3    0    0 -0.50367175931E+02  0.10452945972E+02  0.18094020960E+03  0.18811027601E+03  0.00000000000E+00 0.  1.
         11    1    3    3    0    0  0.41757234950E+02  0.22414456027E+02  0.14988581586E+03  0.15719997553E+03  0.00000000000E+00 0. -1.
</event>
<event>
 8    1  0.2184156E-005  0.2177785E+03  0.7561462E-02  0.1135550E+00
          1   -1    0    0  501    0  0.00000000000E+00  0.00000000000E+00  0.18481577444E+04  0.18481577444E+04  0.00000000000E+00 0. -1.
         -1   -1    0    0    0  501 -0.00000000000E+00 -0.00000000000E+00 -0.30997353140E+02  0.30997353140E+02  0.00000000000E+00 0.  1.
         23    2    1    2    0    0  0.33425716860E+02 -0.19523835867E+03  0.58520005483E+03  0.62511453471E+03  0.95256401846E+02 0.  0.
         23    2    1    2    0    0 -0.33425716860E+02  0.19523835867E+03  0.12319603365E+04  0.12540405629E+04  0.12512460764E+03 0.  0.
          5    1    4    4  502    0  0.44841018953E+02  0.96236465398E+02  0.64028023347E+03  0.64903653520E+03  0.41800000000E+01 0.  1.
         -5    1    4    4    0  502 -0.78266735813E+02  0.99001893272E+02  0.59168010301E+03  0.60500402768E+03  0.41800000000E+01 0.  1.
        -11    1    3    3    0    0  0.16897770070E+02 -0.16791826887E+02  0.16848072275E+02  0.29178033226E+02  0.00000000000E+00 0.  1.
         11    1    3    3    0    0  0.16527946790E+02 -0.17844653178E+03  0.56835198255E+03  0.59593650149E+03  0.00000000000E+00 0. -1.
</event>
<event>
 8    1  0.2184156E-005  0.1204614E+03  0.7561462E-02  0.1242338E+00
          1   -1    0    0  501    0  0.00000000000E+00  0.00000000000E+00  0.13690046770E+03  0.13690046770E+03  0.00000000000E+00 0. -1.
         -1   -1    0    0    0  501 -0.00000000000E+00 -0.00000000000E+00 -0.14307041569E+03  0.14307041569E+03  0.00000000000E+00 0.  1.
         23    2    1    2    0    0  0.36021063582E+02 -0.60568216575E+02 -0.60762547685E+02  0.12643820042E+03  0.85606690417E+02 0.  0.
         23    2    1    2    0    0 -0.36021063582E+02  0.60568216575E+02  0.54592599689E+02  0.15353268296E+03  0.12500362761E+03 0.  0.
          5    1    4    4  502    0 -0.50569632574E+02  0.90070257432E+02  0.19408992442E+02  0.10518612266E+03  0.41800000000E+01 0. -1.
         -5    1    4    4    0  502  0.14548568992E+02 -0.29502040857E+02  0.35183607247E+02  0.48346560305E+02  0.41800000000E+01 0. -1.
        -11    1    3    3    0    0  0.46673456200E+02 -0.73847233391E+02 -0.32041419182E+02  0.93050942695E+02  0.00000000000E+00 0. -1.
         11    1    3    3    0    0 -0.10652392618E+02  0.13279016816E+02 -0.28721128502E+02  0.33387257727E+02  0.00000000000E+00 0.  1.
</event>
<event>
 8    1  0.2184156E-005  0.1027571E+03  0.7561462E-02  0.1274603E+00
         -1   -1    0    0    0  501 -0.00000000000E+00  0.00000000000E+00  0.19433436060E+03  0.19433436060E+03  0.00000000000E+00 0.  1.
          1   -1    0    0  501    0  0.00000000000E+00 -0.00000000000E+00 -0.79021720660E+02  0.79021720660E+02  0.00000000000E+00 0. -1.
         23    2    1    2    0    0  0.37890107451E+02 -0.38400178875E+02  0.83057855127E+02  0.13336204930E+03  0.89311784854E+02 0.  0.
         23    2    1    2    0    0 -0.37890107451E+02  0.38400178875E+02  0.32254784813E+02  0.13999403196E+03  0.12509086242E+03 0.  0.
          5    1    4    4  502    0  0.38774201574E+02 -0.50130094656E+01 -0.12271615942E+02  0.41190216429E+02  0.41800000000E+01 0.  1.
         -5    1    4    4    0  502 -0.76664309025E+02  0.43413188340E+02  0.44526400755E+02  0.98803815536E+02  0.41800000000E+01 0.  1.
        -11    1    3    3    0    0  0.45408648304E+02 -0.72942809726E+01  0.89585801051E+02  0.10070137847E+03  0.00000000000E+00 0.  1.
         11    1    3    3    0    0 -0.75185408526E+01 -0.31105897902E+02 -0.65279459243E+01  0.32660670827E+02  0.00000000000E+00 0. -1.
</event>
<event>
 8    1  0.2184156E-005  0.1544758E+03  0.7561462E-02  0.1195079E+00
          2   -1    0    0  501    0  0.00000000000E+00  0.00000000000E+00  0.91785459658E+03  0.91785459658E+03  0.00000000000E+00 0. -1.
         -2   -1    0    0    0  501 -0.00000000000E+00 -0.00000000000E+00 -0.32249452903E+02  0.32249452903E+02  0.00000000000E+00 0.  1.
         23    2    1    2    0    0 -0.84670747254E+02 -0.90344240423E+02  0.27764005956E+03  0.31717355601E+03  0.90464604913E+02 0.  0.
         23    2    1    2    0    0  0.84670747254E+02  0.90344240423E+02  0.60796508412E+03  0.63293049347E+03  0.12509296081E+03 0.  0.
          5    1    4    4  502    0  0.84485483862E+02  0.36536724055E+01  0.37190071993E+03  0.38141678541E+03  0.41800000000E+01 0. -1.
         -5    1    4    4    0  502  0.18526339194E+00  0.86690568018E+02  0.23606436418E+03  0.25151370806E+03  0.41800000000E+01 0. -1.
        -11    1    3    3    0    0 -0.32061490543E+02 -0.76716823927E+02  0.23117181977E+03  0.24567014573E+03  0.00000000000E+00 0. -1.
         11    1    3    3    0    0 -0.52609256711E+02 -0.13627416496E+02  0.46468239790E+02  0.71503410277E+02  0.00000000000E+00 0.  1.
</event>
<event>
 7    1  0.2184156E-005  0.1080297E+03  0.7561462E-02  0.1264263E+00
          1   -1    0    0  501    0  0.00000000000E+00  0.00000000000E+00  0.59429003030E+03  0.59429003030E+03  0.00000000000E+00 0. -1.
         -1   -1    0    0    0  501 -0.00000000000E+00 -0.00000000000E+00 -0.21090359443E+02  0.21090359443E+02  0.00000000000E+00 0.  1.
         23    2    1    2    0    0  0.12516722391E+02  0.41917964496E+01  0.19794503462E+03  0.21840457138E+03  0.91345939015E+02 0.  0.
          5    1    1    2  502    0  0.39579971417E+02  0.39354245983E+02  0.11385281840E+03  0.12686712526E+03  0.41800000000E+01 0. -1.
         -5    1    1    2    0  502 -0.52096693808E+02 -0.43546042432E+02  0.26140181784E+03  0.27010869310E+03  0.41800000000E+01 0.  1.
        -11    1    3    3    0    0  0.48390690379E+02  0.20623116114E+02  0.12073659049E+03  0.13169774530E+03  0.00000000000E+00 0. -1.
         11    1    3    3    0    0 -0.35873967988E+02 -0.16431319664E+02  0.77208444124E+02  0.86706826082E+02  0.00000000000E+00 0.  1.
</event>
<event>
 8    1  0.2184156E-005  0.9213902E+02  0.7561462E-02  0.1297753E+00
          1   -1    0    0  501    0  0.00000000000E+00  0.00000000000E+00  0.63056962269E+03  0.63056962269E+03  0.00000000000E+00 0. -1.
         -1   -1    0    0    0  501 -0.00000000000E+00 -0.00000000000E+00 -0.57516026885E+02  0.57516026885E+02  0.00000000000E+00 0.  1.
         23    2    1    2    0    0  0.67194183242E+01 -0.45769716854E+00 -0.96865720208E+01  0.92031368895E+02  0.91272028102E+02 0.  0.
         23    2    1    2    0    0 -0.67194183242E+01  0.45769716854E+00  0.58274016783E+03  0.59605428068E+03  0.12509693142E+03 0.  0.
          5    1    4    4  502    0 -0.34802924328E+02  0.43455206830E+02  0.14643633472E+03  0.15671844521E+03  0.41800000000E+01 0.  1.
         -5    1    4    4    0  502  0.28083506004E+02 -0.42997509661E+02  0.43630383311E+03  0.43933583547E+03  0.41800000000E+01 0.  1.
        -11    1    3    3    0    0 -0.33682058044E+02 -0.10517770398E+02 -0.29433844916E+02  0.45950579482E+02  0.00000000000E+00 0.  1.
         11    1    3    3    0    0  0.40401476368E+02  0.10060073229E+02  0.19747272895E+02  0.46080789413E+02  0.00000000000E+00 0. -1.
</event>
<event>
 8    1  0.2184156E-005  0.1455843E+03  0.7561462E-02  0.1206006E+00
         -1   -1    0    0    0  501 -0.00000000000E+00  0.00000000000E+00  0.58071220945E+02  0.58071220945E+02  0.00000000000E+00 0.  1.
          1   -1    0    0  501    0  0.00000000000E+00 -0.00000000000E+00 -0.46089176611E+03  0.46089176611E+03  0.00000000000E+00 0. -1.
         23    2    1    2    0    0  0.65324260347E+02  0.97624262913E+02 -0.13886933341E+03  0.20413626146E+03  0.92677752348E+02 0.  0.
         23    2    1    2    0    0 -0.65324260347E+02 -0.97624262913E+02 -0.26395121175E+03  0.31482672560E+03  0.12509144361E+03 0.  0.
          5    1    4    4  502    0  0.21112492655E+02 -0.80104911055E+02 -0.11771149447E+03  0.14400000852E+03  0.41800000000E+01 0.  1.
         -5    1    4    4    0  502 -0.86436753002E+02 -0.17519351858E+02 -0.14623971728E+03  0.17082671708E+03  0.41800000000E+01 0.  1.
        -11    1    3    3    0    0  0.30522843292E+02  0.66787271064E+02 -0.13948607977E+03  0.15763422848E+03  0.00000000000E+00 0.  1.
         11    1    3    3    0    0  0.34801417056E+02  0.30836991849E+02  0.61674635327E+00  0.46502032982E+02  0.00000000000E+00 0. -1.
</event>
<event>
 8    1  0.2184156E-005  0.1150136E+03  0.7561462E-02  0.1251557E+00
          1   -1    0    0  501    0  0.00000000000E+00  0.00000000000E+00  0.14369541437E+04  0.14369541437E+04  0.00000000000E+00 0. -1.
         -1   -1    0    0    0  501 -0.00000000000E+00 -0.00000000000E+00 -0.10346399949E+02  0.10346399949E+02  0.00000000000E+00 0.  1.
         23    2    1    2    0    0  0.38355490811E+01 -0.34533792045E+02  0.44655883756E+03  0.45868973290E+03  0.98864459930E+02 0.  0.
         23    2    1    2    0    0 -0.38355490811E+01  0.34533792045E+02  0.98004890618E+03  0.98861081073E+03  0.12509269510E+03 0.  0.
          5    1    4    4  502    0 -0.55557858676E+01 -0.45658676579E+02  0.47170983999E+03  0.47396542811E+03  0.41800000000E+01 0.  1.
         -5    1    4    4    0  502  0.17202367865E+01  0.80192468624E+02  0.50833906619E+03  0.51464538262E+03  0.41800000000E+01 0.  1.
        -11    1    3    3    0    0  0.38822370132E+02 -0.51617548308E+02  0.31178947748E+03  0.31840889746E+03  0.00000000000E+00 0. -1.
         11    1    3    3    0    0 -0.34986821051E+02  0.17083756263E+02  0.13476936007E+03  0.14028083543E+03  0.00000000000E+00 0.  1.
</event>
<event>
 8    1  0.2184156E-005  0.1100973E+03  0.7561462E-02  0.1260390E+00
          1   -1    0    0  501    0  0.00000000000E+00  0.00000000000E+00  0.38068719791E+03  0.38068719791E+03  0.00000000000E+00 0. -1.
         -1   -1    0    0    0  501 -0.00000000000E+00 -0.00000000000E+00 -0.43382546090E+02  0.43382546090E+02  0.00000000000E+00 0.  1.
         23    2    1    2    0    0  0.19206308181E+02 -0.65745752649E+02  0.14006421863E+03  0.18067187818E+03  0.91285025937E+02 0.  0.
         23    2    1    2    0    0 -0.19206308181E+02  0.65745752649E+02  0.19724043319E+03  0.24339786582E+03  0.12508935340E+03 0.  0.
          5    1    4    4  502    0  0.11121366854E+01 -0.34068912900E+02  0.22387170415E+02  0.40994944486E+02  0.41800000000E+01 0. -1.
         -5    1    4    4    0  502 -0.20318444866E+02  0.99814665549E+02  0.17485326278E+03  0.20240292133E+03  0.41800000000E+01 0. -1.
        -11    1    3    3    0    0 -0.76865235301E+01 -0.54024567446E+02  0.14113418469E+03  0.15131620740E+03  0.00000000000E+00 0. -1.
         11    1    3    3    0    0  0.26892831711E+02 -0.11721185203E+02 -0.10699660623E+01  0.29355670787E+02  0.00000000000E+00 0.  1.
</event>
<event>
 7    1  0.2184156E-005  0.1110906E+03  0.7561462E-02  0.1258563E+00
         -1   -1    0    0    0  501 -0.00000000000E+00  0.00000000000E+00  0.74348610345E+02  0.74348610345E+02  0.00000000000E+00 0.  1.
          1   -1    0    0  501    0  0.00000000000E+00 -0.00000000000E+00 -0.17231613741E+03  0.17231613741E+03  0.00000000000E+00 0. -1.
         23    2    1    2    0    0  0.14763605251E+02  0.11865694472E+02 -0.30631709892E+02  0.98324312464E+02  0.91491037951E+02 0.  0.
          5    1    1    2  502    0 -0.66318472488E+02 -0.33713861454E+02 -0.49379693168E+02  0.89390104288E+02  0.41800000000E+01 0. -1.
         -5    1    1    2    0  502  0.51554867237E+02  0.21848166982E+02 -0.17956124008E+02  0.58950331005E+02  0.41800000000E+01 0.  1.
        -11    1    3    3    0    0 -0.24138153454E+02  0.37739263363E+02 -0.51136850248E+01  0.45089380411E+02  0.00000000000E+00 0. -1.
         11    1    3    3    0    0  0.38901758705E+02 -0.25873568891E+02 -0.25518024867E+02  0.53234932053E+02  0.00000000000E+00 0.  1.
</event>
<event>
 8    1  0.2184156E-005  0.1511708E+03  0.7561462E-02  0.1199042E+00
         -1   -1    0    0    0  501 -0.00000000000E+00  0.00000000000E+00  0.10346465910E+03  0.10346465910E+03  0.00000000000E+00 0.  1.
          1   -1    0    0  501    0  0.00000000000E+00 -0.00000000000E+00 -0.29047403347E+03  0.29047403347E+03  0.00000000000E+00 0. -1.
         23    2    1    2    0    0  0.10993282697E+03 -0.43987166039E+02 -0.12916279879E+02  0.14903585544E+03  0.89581017514E+02 0.  0.
         23    2    1    2    0    0 -0.10993282697E+03  0.43987166039E+02 -0.17409309449E+03  0.24490283713E+03  0.12509555093E+03 0.  0.
          5    1    4    4  502    0 -0.90431447894E+02 -0.14889048583E+02 -0.15456975239E+03  0.17974651955E+03  0.41800000000E+01 0. -1.
         -5    1    4    4    0  502 -0.19501379077E+02  0.58876214621E+02 -0.19523342106E+02  0.65156317584E+02  0.41800000000E+01 0. -1.
        -11    1    3    3    0    0  0.98513260000E+02 -0.69447062976E+02 -0.91288324849E+01  0.12087635225E+03  0.00000000000E+00 0. -1.
         11    1    3    3    0    0  0.11419566971E+02  0.25459896937E+02 -0.37874473937E+01  0.28159503185E+02  0.00000000000E+00 0.  1.
</event>
<event>
 8    1  0.2184156E-005  0.2086060E+03  0.7561462E-02  0.1142675E+00
         -1   -1    0    0    0  501 -0.00000000000E+00  0.00000000000E+00  0.70643306073E+02  0.70643306073E+02  0.00000000000E+00 0.  1.
          1   -1    0    0  501    0  0.00000000000E+00 -0.00000000000E+00 -0.76855928575E+03  0.76855928575E+03  0.00000000000E+00 0. -1.
         23    2    1    2    0    0  0.16165484141E+03  0.97656914623E+02 -0.17585813666E+03  0.27011427688E+03  0.79790210046E+02 0.  0.
         23    2    1    2    0    0 -0.16165484141E+03 -0.97656914623E+02 -0.52205784301E+03  0.56908831494E+03  0.12509179839E+03 0.  0.
          5    1    4    4  502    0 -0.17480332256E+02  0.28018403711E+02 -0.10712548273E+03  0.11217813696E+03  0.41800000000E+01 0. -1.
         -5    1    4    4    0  502 -0.14417450916E+03 -0.12567531833E+03 -0.41493236028E+03  0.45691017797E+03  0.41800000000E+01 0. -1.
        -11    1    3    3    0    0  0.91446397895E+02  0.76685697209E+02 -0.15157871928E+03  0.19292290684E+03  0.00000000000E+00 0.  1.
         11    1    3    3    0    0  0.70208443519E+02  0.20971217414E+02 -0.24279417387E+02  0.77191370048E+02  0.00000000000E+00 0. -1.
</event>
<event>
 8    1  0.2184156E-005  0.1265367E+03  0.7561462E-02  0.1232687E+00
         -3   -1    0    0    0  501 -0.00000000000E+00  0.00000000000E+00  0.80448578835E+02  0.80448578835E+02  0.00000000000E+00 0.  1.
          3   -1    0    0  501    0  0.00000000000E+00 -0.00000000000E+00 -0.29174903364E+03  0.29174903364E+03  0.00000000000E+00 0. -1.
         23    2    1    2    0    0  0.73453743463E+02  0.12898416567E+02 -0.72465384249E+01  0.12150376000E+03  0.95649515402E+02 0.  0.
         23    2    1    2    0    0 -0.73453743463E+02 -0.12898416567E+02 -0.20405391638E+03  0.25069385247E+03  0.12509030858E+03 0.  0.
          5    1    4    4  502    0 -0.67496996827E+02 -0.59124523255E+02 -0.88839168512E+02  0.12633852972E+03  0.41800000000E+01 0. -1.
         -5    1    4    4    0  502 -0.59567466360E+01  0.46226106688E+02 -0.11521474787E+03  0.12435532275E+03  0.41800000000E+01 0. -1.
        -11    1    3    3    0    0  0.63943943074E+02  0.48081776196E+02 -0.20725480382E+02  0.82645209147E+02  0.00000000000E+00 0.  1.
         11    1    3    3    0    0  0.95098003898E+01 -0.35183359628E+02  0.13478941957E+02  0.38858550854E+02  0.00000000000E+00 0. -1.
</event>
<event>
 8    1  0.2184156E-005  0.1713246E+03  0.7561462E-02  0.1176473E+00
          2   -1    0    0  501    0  0.00000000000E+00  0.00000000000E+00  0.68571816483E+03  0.68571816483E+03  0.00000000000E+00 0. -1.
         -2   -1    0    0    0  501 -0.00000000000E+00 -0.00000000000E+00 -0.54998488856E+02  0.54998488856E+02  0.00000000000E+00 0.  1.
         23    2    1    2    0    0 -0.33956396660E+02  0.13372229685E+03  0.13714627930E+03  0.21343932751E+03  0.87821153786E+02 0.  0.
         23    2    1    2    0    0  0.33956396660E+02 -0.13372229685E+03  0.49357339667E+03  0.52727732618E+03  0.12398383464E+03 0.  0.
          5    1    4    4  502    0  0.26590885542E+02  0.18528416048E+02  0.99601302406E+02  0.10482494568E+03  0.41800000000E+01 0. -1.
         -5    1    4    4    0  502  0.73655111173E+01 -0.15225071289E+03  0.39397209426E+03  0.42245238050E+03  0.41800000000E+01 0.  1.
        -11    1    3    3    0    0 -0.57845721224E+02  0.10704597856E+03  0.12773855946E+03  0.17641459283E+03  0.00000000000E+00 0. -1.
         11    1    3    3    0    0  0.23889324564E+02  0.26676318286E+02  0.94077198420E+01  0.37024734679E+02  0.00000000000E+00 0.  1.
</event>
<event>
 7    1  0.2184156E-005  0.1356843E+03  0.7561462E-02  0.1219257E+00
          1   -1    0    0  501    0  0.00000000000E+00  0.00000000000E+00  0.40250877463E+03  0.40250877463E+03  0.00000000000E+00 0. -1.
         -1   -1    0    0    0  501 -0.00000000000E+00 -0.00000000000E+00 -0.23452480330E+03  0.23452480330E+03  0.00000000000E+00 0.  1.
         23    2    1    2    0    0  0.11449273231E+01  0.68384955976E+02 -0.19999170481E+03  0.22992492404E+03  0.90504008979E+02 0.  0.
          5    1    1    2  502    0  0.35491285696E+02  0.36790870182E+02  0.19262000845E+03  0.19933173240E+03  0.41800000000E+01 0. -1.
         -5    1    1    2    0  502 -0.36636213019E+02 -0.10517582616E+03  0.17535566769E+03  0.20777692149E+03  0.41800000000E+01 0.  1.
        -11    1    3    3    0    0  0.39797161427E+01  0.88360702446E+02 -0.13116124634E+03  0.15819837047E+03  0.00000000000E+00 0.  1.
         11    1    3    3    0    0 -0.28347888196E+01 -0.19975746470E+02 -0.68830458467E+02  0.71726553573E+02  0.00000000000E+00 0. -1.
</event>
<event>
 7    1  0.2184156E-005  0.1527743E+03  0.7561462E-02  0.1197105E+00
          2   -1    0    0  501    0  0.00000000000E+00  0.00000000000E+00  0.71619975663E+03  0.71619975663E+03  0.00000000000E+00 0. -1.
         -2   -1    0    0    0  501 -0.00000000000E+00 -0.00000000000E+00 -0.39656048168E+02  0.39656048168E+02  0.00000000000E+00 0.  1.
         23    2    1    2    0    0 -0.30034863180E+02 -0.10659937798E+03  0.21277559674E+03  0.25184786617E+03  0.76735733098E+02 0.  0.
          5    1    1    2  502    0 -0.20165379686E+02  0.11794534027E+03  0.41866034260E+03  0.43544425670E+03  0.41800000000E+01 0. -1.
         -5    1    1    2    0  502  0.50200242866E+02 -0.11345962285E+02  0.45107769122E+02  0.68563681925E+02  0.41800000000E+01 0.  1.
        -11    1    3    3    0    0  0.19175812129E+02 -0.28925019578E+01  0.23320135706E+02  0.30329969795E+02  0.00000000000E+00 0. -1.
         11    1    3    3    0    0 -0.49210675309E+02 -0.10370687603E+03  0.18945546104E+03  0.22151789638E+03  0.00000000000E+00 0.  1.
</event>
<event>
 8    1  0.2184156E-005  0.1308653E+03  0.7561462E-02  0.1226177E+00
         -4   -1    0    0    0  501 -0.00000000000E+00  0.00000000000E+00  0.87797399412E+02  0.87797399412E+02  0.00000000000E+00 0.  1.
          4   -1    0    0  501    0  0.00000000000E+00 -0.00000000000E+00 -0.25059122752E+03  0.25059122752E+03  0.00000000000E+00 0. -1.
         23    2    1    2    0    0 -0.25098935165E+02  0.99494102638E+02 -0.82755718722E+02  0.15787994083E+03  0.86882298128E+02 0.  0.
         23    2    1    2    0    0  0.25098935165E+02 -0.99494102638E+02 -0.80038109388E+02  0.18050868611E+03  0.12509298062E+03 0.  0.
          5    1    4    4  502    0  0.50742816327E+02 -0.11691276478E+03 -0.77277243563E+02  0.14910624652E+03  0.41800000000E+01 0. -1.
         -5    1    4    4    0  502 -0.25643881162E+02  0.17418662145E+02 -0.27608658246E+01  0.31402439588E+02  0.41800000000E+01 0. -1.
        -11    1    3    3    0    0 -0.38479808466E+01  0.30419866757E+02 -0.79869546197E+02  0.85553022505E+02  0.00000000000E+00 0. -1.
         11    1    3    3    0    0 -0.21250954319E+02  0.69074235881E+02 -0.28861725250E+01  0.72326918321E+02  0.00000000000E+00 0.  1.
</event>
<event>
 8    1  0.2184156E-005  0.1164779E+03  0.7561462E-02  0.1249023E+00
          3   -1    0    0  501    0  0.00000000000E+00  0.00000000000E+00  0.33097284691E+03  0.33097284691E+03  0.00000000000E+00 0. -1.
         -3   -1    0    0    0  501 -0.00000000000E+00 -0.00000000000E+00 -0.95380396520E+02  0.95380396520E+02  0.00000000000E+00 0.  1.
         23    2    1    2    0    0  0.66000198878E+02  0.72483252634E+02 -0.14215426353E+02  0.13027450006E+03  0.84613940079E+02 0.  0.
         23    2    1    2    0    0 -0.66000198878E+02 -0.72483252634E+02  0.24980787674E+03  0.29607874337E+03  0.12509515909E+03 0.  0.
          5    1    4    4  502    0 -0.30174893504E+02 -0.72982868753E+02  0.51178384882E+02  0.94200439535E+02  0.41800000000E+01 0. -1.
         -5    1    4    4    0  502 -0.35825305374E+02  0.49961611940E+00  0.19862949186E+03  0.20187830383E+03  0.41800000000E+01 0. -1.
        -11    1    3    3    0    0  0.22488233179E+02  0.70765490424E+02  0.17641657825E+02  0.76319744217E+02  0.00000000000E+00 0. -1.
         11    1    3    3    0    0  0.43511965699E+02  0.17177622097E+01 -0.31857084178E+02  0.53954755846E+02  0.00000000000E+00 0.  1.
</event>
<event>
 8    1  0.2184156E-005  0.1719780E+03  0.7561462E-02  0.1175801E+00
          2   -1    0    0  501    0  0.00000000000E+00  0.00000000000E+00  0.79811025823E+02  0.79811025823E+02  0.00000000000E+00 0. -1.
         -2   -1    0    0    0  501 -0.00000000000E+00 -0.00000000000E+00 -0.52845180881E+03  0.52845180881E+03  0.00000000000E+00 0.  1.
         23    2    1    2    0    0  0.53185240493E+02 -0.12651723742E+03 -0.37309508590E+03  0.40778787924E+03  0.90861048619E+02 0.  0.
         23    2    1    2    0    0 -0.53185240493E+02  0.12651723742E+03 -0.75545697084E+02  0.20047495540E+03  0.12509106372E+03 0.  0.
          5    1    4    4  502    0 -0.88200192311E+02  0.67180633238E+02 -0.21985565291E+02  0.11310768713E+03  0.41800000000E+01 0. -1.
         -5    1    4    4    0  502  0.35014951818E+02  0.59336604185E+02 -0.53560131793E+02  0.87367268268E+02  0.41800000000E+01 0. -1.
        -11    1    3    3    0    0  0.78427377470E+02 -0.87424986940E+02 -0.25076718110E+03  0.27690821764E+03  0.00000000000E+00 0.  1.
         11    1    3    3    0    0 -0.25242136977E+02 -0.39092250483E+02 -0.12232790480E+03  0.13087966160E+03  0.00000000000E+00 0. -1.
</event>
<event>
 8    1  0.2184156E-005  0.1588641E+03  0.7561462E-02  0.1189985E+00
         -2   -1    0    0    0  501 -0.00000000000E+00  0.00000000000E+00  0.53872699179E+02  0.53872699179E+02  0.00000000000E+00 0.  1.
          2   -1    0    0  501    0  0.00000000000E+00 -0.00000000000E+00 -0.87326691878E+03  0.87326691878E+03  0.00000000000E+00 0. -1.
         23    2    1    2    0    0  0.50048548962E+02  0.14938245046E+03 -0.17617283279E+03  0.25319625867E+03  0.90837792977E+02 0.  0.
         23    2    1    2    0    0 -0.50048548962E+02 -0.14938245046E+03 -0.64322138682E+03  0.67394335929E+03  0.12508367329E+03 0.  0.
          5    1    4    4  502    0 -0.24611162841E+02 -0.11092678656E+03 -0.21488356996E+03  0.24311084375E+03  0.41800000000E+01 0.  1.
         -5    1    4    4    0  502 -0.25437386121E+02 -0.38455663903E+02 -0.42833781686E+03  0.43083251554E+03  0.41800000000E+01 0.  1.
        -11    1    3    3    0    0  0.26294928178E+02  0.66450785438E+02 -0.19066790200E+02  0.73963995441E+02  0.00000000000E+00 0. -1.
         11    1    3    3    0    0  0.23753620784E+02  0.82931665020E+02 -0.15710604259E+03  0.17923226323E+03  0.00000000000E+00 0.  1.
</event>
<event>
 8    1  0.2184156E-005  0.1053637E+03  0.7561462E-02  0.1269405E+00
         -2   -1    0    0    0  501 -0.00000000000E+00  0.00000000000E+00  0.31023699261E+02  0.31023699261E+02  0.00000000000E+00 0.  1.
          2   -1    0    0  501    0  0.00000000000E+00 -0.00000000000E+00 -0.50466506081E+03  0.50466506081E+03  0.00000000000E+00 0. -1.
         23    2    1    2    0    0  0.11647160650E+02  0.54659289582E+02 -0.14724081676E+03  0.18170028576E+03  0.90619211189E+02 0.  0.
         23    2    1    2    0    0 -0.11647160650E+02 -0.54659289582E+02 -0.32640054480E+03  0.35398847432E+03  0.12508888847E+03 0.  0.
          5    1    4    4  502    0  0.22122633497E+02 -0.67377018354E+02 -0.89244138829E+02  0.11406604328E+03  0.41800000000E+01 0.  1.
         -5    1    4    4    0  502 -0.33769794147E+02  0.12717728771E+02 -0.23715640597E+03  0.23992243104E+03  0.41800000000E+01 0.  1.
        -11    1    3    3    0    0  0.28042938681E+02 -0.14997495423E+02 -0.67133665583E+02  0.74284993999E+02  0.00000000000E+00 0. -1.
         11    1    3    3    0    0 -0.16395778031E+02  0.69656785005E+02 -0.80107151172E+02  0.10741529176E+03  0.00000000000E+00 0.  1.
</event>
<event>
 8    1  0.2184156E-005  0.1076126E+03  0.7561462E-02  0.1265056E+00
         -3   -1    0    0    0  501 -0.00000000000E+00  0.00000000000E+00  0.12916156225E+02  0.12916156225E+02  0.00000000000E+00 0.  1.
          3   -1    0    0  501    0  0.00000000000E+00 -0.00000000000E+00 -0.99204248216E+03  0.99204248216E+03  0.00000000000E+00 0. -1.
         23    2    1    2    0    0  0.21590479316E+02  0.25079856405E+02 -0.33032153245E+03  0.34337702631E+03  0.87751463843E+02 0.  0.
         23    2    1    2    0    0 -0.21590479316E+02 -0.25079856405E+02 -0.64880479349E+03  0.66158161207E+03  0.12508965339E+03 0.  0.
          5    1    4    4  502    0  0.45400262650E+02 -0.29789023442E+02 -0.40562134873E+03  0.40926118887E+03  0.41800000000E+01 0. -1.
         -5    1    4    4    0  502 -0.66990741966E+02  0.47091670371E+01 -0.24318344476E+03  0.25232042321E+03  0.41800000000E+01 0. -1.
        -11    1    3    3    0    0 -0.85657593802E+01 -0.29719269269E+02 -0.96603915897E+02  0.10143433229E+03  0.00000000000E+00 0.  1.
         11    1    3    3    0    0  0.30156238696E+02  0.54799125674E+02 -0.23371761655E+03  0.24194269403E+03  0.00000000000E+00 0. -1.
</event>
<event>
 8    1  0.2184156E-005  0.1262492E+03  0.7561462E-02  0.1233130E+00
         -1   -1    0    0    0  501 -0.00000000000E+00  0.00000000000E+00  0.37021965067E+02  0.37021965067E+02  0.00000000000E+00 0.  1.
          1   -1    0    0  501    0  0.00000000000E+00 -0.00000000000E+00 -0.49213056958E+03  0.49213056958E+03  0.00000000000E+00 0. -1.
         23    2    1    2    0    0  0.64766413996E+02  0.40125030368E+02 -0.15680806971E+03  0.19683511092E+03  0.91381528343E+02 0.  0.
         23    2    1    2    0    0 -0.64766413996E+02 -0.40125030368E+02 -0.29830053480E+03  0.33231742372E+03  0.12508778758E+03 0.  0.
          5    1    4    4  502    0  0.14154298320E+02  0.26612308140E+02 -0.22760223265E+02  0.38000779841E+02  0.41800000000E+01 0. -1.
         -5    1    4    4    0  502 -0.78920712316E+02 -0.66737338509E+02 -0.27554031154E+03  0.29431664388E+03  0.41800000000E+01 0. -1.
        -11    1    3    3    0    0 -0.44169849486E+00  0.52292344944E+02 -0.76651209890E+02  0.92790583654E+02  0.00000000000E+00 0.  1.
         11    1    3    3    0    0  0.65208112491E+02 -0.12167314575E+02 -0.80156859818E+02  0.10404452727E+03  0.00000000000E+00 0. -1.
</event>
<event>
 8    1  0.2184156E-005  0.1191587E+03  0.7561462E-02  0.1244491E+00
          4   -1    0    0  501    0  0.00000000000E+00  0.00000000000E+00  0.18946253410E+03  0.18946253410E+03  0.00000000000E+00 0. -1.
         -4   -1    0    0    0  501 -0.00000000000E+00 -0.00000000000E+00 -0.18576354373E+03  0.18576354373E+03  0.00000000000E+00 0.  1.
         23    2    1    2    0    0  0.85715107047E+02  0.14976730496E+02 -0.12602452599E+03  0.17510583295E+03  0.84902824156E+02 0.  0.
         23    2    1    2    0    0 -0.85715107047E+02 -0.14976730496E+02  0.12972351636E+03  0.20012024488E+03  0.12509412329E+03 0.  0.
          5    1    4    4  502    0  0.31048066041E+02 -0.14346420709E+02  0.40068658096E+02  0.52846683469E+02  0.41800000000E+01 0. -1.
         -5    1    4    4    0  502 -0.11676317309E+03 -0.63030978620E+00  0.89654858259E+02  0.14727356141E+03  0.41800000000E+01 0. -1.
        -11    1    3    3    0    0  0.53142677783E+02  0.98350387326E+01 -0.10615002249E+02  0.55077676617E+02  0.00000000000E+00 0. -1.
         11    1    3    3    0    0  0.32572429264E+02  0.51416917631E+01 -0.11540952374E+03  0.12002815633E+03  0.00000000000E+00 0.  1.
</event>
<event>
 8    1  0.2184156E-005  0.9604283E+02  0.7561462E-02  0.1288844E+00
          3   -1    0    0  501    0  0.00000000000E+00  0.00000000000E+00  0.86871698465E+03  0.86871698465E+03  0.00000000000E+00 0. -1.
         -3   -1    0    0    0  501 -0.00000000000E+00 -0.00000000000E+00 -0.16176774193E+02  0.16176774193E+02  0.00000000000E+00 0.  1.
         23    2    1    2    0    0 -0.18341880251E+02  0.37128287334E+02  0.28561172295E+03  0.30285368193E+03  0.91822448675E+02 0.  0.
         23    2    1    2    0    0  0.18341880251E+02 -0.37128287334E+02  0.56692848751E+03  0.58204007691E+03  0.12509119431E+03 0.  0.
          5    1    4    4  502    0  0.65966029345E+02 -0.44933829527E+02  0.41324873866E+03  0.42090682872E+03  0.41800000000E+01 0. -1.
         -5    1    4    4    0  502 -0.47624149095E+02  0.78055421933E+01  0.15367974885E+03  0.16113324819E+03  0.41800000000E+01 0. -1.
        -11    1    3    3    0    0 -0.18043444703E+02  0.48808145704E+02  0.28645176241E+03  0.29113985157E+03  0.00000000000E+00 0. -1.
         11    1    3    3    0    0 -0.29843554757E+00 -0.11679858370E+02 -0.84003946500E+00  0.11713830356E+02  0.00000000000E+00 0.  1.
</event>
<event>
 8    1  0.2184156E-005  0.1607745E+03  0.7561462E-02  0.1187825E+00
         -1   -1    0    0    0  501 -0.00000000000E+00  0.00000000000E+00  0.79596927538E+02  0.79596927538E+02  0.00000000000E+00 0.  1.
          1   -1    0    0  501    0  0.00000000000E+00 -0.00000000000E+00 -0.40393728557E+03  0.40393728557E+03  0.00000000000E+00 0. -1.
         23    2    1    2    0    0  0.12319728055E+03  0.63467494101E+02 -0.10644018431E+03  0.19659663849E+03  0.90083476218E+02 0.  0.
         23    2    1    2    0    0 -0.12319728055E+03 -0.63467494101E+02 -0.21790017373E+03  0.28693757462E+03  0.12508794218E+03 0.  0.
          5    1    4    4  502    0 -0.47093495223E+02  0.25647108936E+02 -0.12906472415E+03  0.13982398546E+03  0.41800000000E+01 0. -1.
         -5    1    4    4    0  502 -0.76103785325E+02 -0.89114603036E+02 -0.88835449573E+02  0.14711358916E+03  0.41800000000E+01 0. -1.
        -11    1    3    3    0    0  0.25236226685E+02  0.43848984823E+02 -0.77556041562E+02  0.92598813114E+02  0.00000000000E+00 0. -1.
         11    1    3    3    0    0  0.97961053863E+02  0.19618509277E+02 -0.28884142743E+02  0.10399782537E+03  0.00000000000E+00 0.  1.
</event>
<event>
 8    1  0.2184156E-005  0.1683195E+03  0.7561462E-02  0.1179612E+00
         -1   -1    0    0    0  501 -0.00000000000E+00  0.00000000000E+00  0.33200614947E+02  0.33200614947E+02  0.00000000000E+00 0.  1.
          1   -1    0    0  501    0  0.00000000000E+00 -0.00000000000E+00 -0.11710051863E+04  0.11710051863E+04  0.00000000000E+00 0. -1.
         23    2    1    2    0    0  0.15457907879E+03  0.27887045847E+02 -0.37564214866E+03  0.41603693755E+03  0.85482925989E+02 0.  0.
         23    2    1    2    0    0 -0.15457907879E+03 -0.27887045847E+02 -0.76216242267E+03  0.78816886367E+03  0.12508485200E+03 0.  0.
          5    1    4    4  502    0 -0.16466348028E+03 -0.31140589491E+02 -0.53336565260E+03  0.55908871374E+03  0.41800000000E+01 0. -1.
         -5    1    4    4    0  502  0.10084401486E+02  0.32535436440E+01 -0.22879677007E+03  0.22908014993E+03  0.41800000000E+01 0. -1.
        -11    1    3    3    0    0  0.90323820284E+02  0.22802875567E+02 -0.11738939962E+03  0.14986205253E+03  0.00000000000E+00 0.  1.
         11    1    3    3    0    0  0.64255258506E+02  0.50841702802E+01 -0.25825274904E+03  0.26617488502E+03  0.00000000000E+00 0. -1.
</event>
<event>
 8    1  0.2184156E-005  0.6680097E+02  0.7561462E-02  0.1371322E+00
         -2   -1    0    0    0  501 -0.00000000000E+00  0.00000000000E+00  0.25273771446E+02  0.25273771446E+02  0.00000000000E+00 0.  1.
          2   -1    0    0  501    0  0.00000000000E+00 -0.00000000000E+00 -0.59870099652E+03  0.59870099652E+03  0.00000000000E+00 0. -1.
         23    2    1    2    0    0  0.17505018511E+02  0.54782780894E+02 -0.19023293568E+03  0.21679864033E+03  0.86634299656E+02 0.  0.
         23    2    1    2    0    0 -0.17505018511E+02 -0.54782780894E+02 -0.38319428939E+03  0.40717612764E+03  0.12508779611E+03 0.  0.
          5    1    4    4  502    0 -0.20568084520E+02 -0.21246955037E+02 -0.86433426288E+01  0.31091139750E+02  0.41800000000E+01 0. -1.
         -5    1    4    4    0  502  0.30630660090E+01 -0.33535825857E+02 -0.37455094677E+03  0.37608498788E+03  0.41800000000E+01 0. -1.
        -11    1    3    3    0    0  0.24847071549E+02  0.14318321269E+02 -0.16724272597E+03  0.16968358989E+03  0.00000000000E+00 0. -1.
         11    1    3    3    0    0 -0.73420530378E+01  0.40464459624E+02 -0.22990209710E+02  0.47115050440E+02  0.00000000000E+00 0.  1.
</event>
<event>
 8    1  0.2184156E-005  0.1819663E+03  0.7561462E-02  0.1165913E+00
         -1   -1    0    0    0  501 -0.00000000000E+00  0.00000000000E+00  0.45328554657E+02  0.45328554657E+02  0.00000000000E+00 0. -1.
          1   -1    0    0  501    0  0.00000000000E+00 -0.00000000000E+00 -0.83393262847E+03  0.83393262847E+03  0.00000000000E+00 0.  1.
         23    2    1    2    0    0 -0.15750342305E+03  0.30904689205E+02 -0.35190345250E+03  0.39747622398E+03  0.91590832858E+02 0.  0.
         23    2    1    2    0    0  0.15750342305E+03 -0.30904689205E+02 -0.43670062132E+03  0.48178495915E+03  0.12508751383E+03 0.  0.
          5    1    4    4  502    0 -0.37609280466E+01 -0.20372572352E+02 -0.63436972210E+01  0.22065837361E+02  0.41800000000E+01 0. -1.
         -5    1    4    4    0  502  0.16126435109E+03 -0.10532116852E+02 -0.43035692410E+03  0.45971912179E+03  0.41800000000E+01 0. -1.
        -11    1    3    3    0    0 -0.81432116132E+02  0.58443428462E+02 -0.15482833132E+03  0.18444141630E+03  0.00000000000E+00 0.  1.
         11    1    3    3    0    0 -0.76071306915E+02 -0.27538739257E+02 -0.19707512117E+03  0.21303480768E+03  0.00000000000E+00 0. -1.
</event>
<event>
 8    1  0.2184156E-005  0.1049573E+03  0.7561462E-02  0.1270204E+00
         -4   -1    0    0    0  501 -0.00000000000E+00  0.00000000000E+00  0.18940625898E+02  0.18940625898E+02  0.00000000000E+00 0.  1.
          4   -1    0    0  501    0  0.00000000000E+00 -0.00000000000E+00 -0.94037435939E+03  0.94037435939E+03  0.00000000000E+00 0. -1.
         23    2    1    2    0    0 -0.43628007416E+02  0.56451666688E+02 -0.35679873224E+03  0.37660553464E+03  0.97140103388E+02 0.  0.
         23    2    1    2    0    0  0.43628007416E+02 -0.56451666688E+02 -0.56463500125E+03  0.58270945065E+03  0.12508966999E+03 0.  0.
          5    1    4    4  502    0  0.58708593612E+02 -0.52588900905E+02 -0.56055196422E+03  0.56608150336E+03  0.41800000000E+01 0.  1.
         -5    1    4    4    0  502 -0.15080586196E+02 -0.38627657827E+01 -0.40830370296E+01  0.16627947285E+02  0.41800000000E+01 0.  1.
        -11    1    3    3    0    0  0.12066246482E+02  0.57909844034E+02 -0.24024929949E+03  0.24742447382E+03  0.00000000000E+00 0.  1.
         11    1    3    3    0    0 -0.55694253898E+02 -0.14581773465E+01 -0.11654943275E+03  0.12918106081E+03  0.00000000000E+00 0. -1.
</event>
<event>
 8    1  0.2184156E-005  0.1346246E+03  0.7561462E-02  0.1220751E+00
          1   -1    0    0  501    0  0.00000000000E+00  0.00000000000E+00  0.12160574868E+03  0.12160574868E+03  0.00000000000E+00 0. -1.
         -1   -1    0    0    0  501 -0.00000000000E+00 -0.00000000000E+00 -0.15076254157E+03  0.15076254157E+03  0.00000000000E+00 0.  1.
         23    2    1    2    0    0  0.41478407882E+02 -0.69231644836E+02 -0.25009286858E+02  0.12344437406E+03  0.89997611588E+02 0.  0.
         23    2    1    2    0    0 -0.41478407882E+02  0.69231644836E+02 -0.41475060390E+01  0.14892391619E+03  0.12509057534E+03 0.  0.
          5    1    4    4  502    0 -0.20721227872E+02 -0.35607407154E+02 -0.66440027454E+01  0.41938906772E+02  0.41800000000E+01 0.  1.
         -5    1    4    4    0  502 -0.20757180010E+02  0.10483905199E+03  0.24964967064E+01  0.10698500942E+03  0.41800000000E+01 0.  1.
        -11    1    3    3    0    0  0.50597417730E+02 -0.87153199319E+02 -0.20732053582E+02  0.10288632989E+03  0.00000000000E+00 0. -1.
         11    1    3    3    0    0 -0.91190098484E+01  0.17921554483E+02 -0.42772332756E+01  0.20558044173E+02  0.00000000000E+00 0.  1.
</event>
<event>
 8    1  0.2184156E-005  0.1448926E+03  0.7561462E-02  0.1206893E+00
          2   -1    0    0  501    0  0.00000000000E+00  0.00000000000E+00  0.94306808254E+03  0.94306808254E+03  0.00000000000E+00 0. -1.
         -2   -1    0    0    0  501 -0.00000000000E+00 -0.00000000000E+00 -0.34860473655E+02  0.34860473655E+02  0.00000000000E+00 0.  1.
         23    2    1    2    0    0 -0.74964880576E+02  0.97063526703E+02  0.22329383287E+03  0.27096675841E+03  0.92313524620E+02 0.  0.
         23    2    1    2    0    0  0.74964880576E+02 -0.97063526703E+02  0.68491377602E+03  0.70696179779E+03  0.12508813462E+03 0.  0.
          5    1    4    4  502    0  0.87822924308E+02 -0.70409017282E+02  0.65521878221E+03  0.66483036987E+03  0.41800000000E+01 0. -1.
         -5    1    4    4    0  502 -0.12858043731E+02 -0.26654509421E+02  0.29694993810E+02  0.42131427918E+02  0.41800000000E+01 0. -1.
        -11    1    3    3    0    0 -0.70782793581E+02  0.24992584996E+02  0.75409323283E+02  0.10640206394E+03  0.00000000000E+00 0.  1.
         11    1    3    3    0    0 -0.41820869949E+01  0.72070941707E+02  0.14788450959E+03  0.16456469447E+03  0.00000000000E+00 0. -1.
</event>
<event>
 8    1  0.2267815E-005  0.1557507E+03  0.7561462E-02  0.1193579E+00
          2   -1    0    0  501    0  0.00000000000E+00  0.00000000000E+00  0.82681931702E+03  0.82681931702E+03  0.00000000000E+00 0. -1.
         -2   -1    0    0    0  501 -0.00000000000E+00 -0.00000000000E+00 -0.36478543522E+02  0.36478543522E+02  0.00000000000E+00 0.  1.
         23    2    1    2    0    0  0.40593658893E+01  0.12485546040E+03  0.25184621952E+03  0.29652726399E+03  0.94321448013E+02 0.  0.
         23    2    1    2    0    0 -0.40593658893E+01 -0.12485546040E+03  0.53849455397E+03  0.56677059655E+03  0.12508860866E+03 0.  0.
          5    1    4    4  502    0 -0.26982630352E+02 -0.14399057680E+03  0.45271252996E+03  0.47584394052E+03  0.41800000000E+01 0.  1.
         -5    1    4    4    0  502  0.22923264463E+02  0.19135116401E+02  0.85782024010E+02  0.90926656029E+02  0.41800000000E+01 0.  1.
        -11    1    3    3    0    0  0.23270459713E+02  0.29765054670E+02  0.15121528884E+02  0.40695619059E+02  0.00000000000E+00 0.  1.
         11    1    3    3    0    0 -0.19211093824E+02  0.95090405733E+02  0.23672469064E+03  0.25583164493E+03  0.00000000000E+00 0. -1.
</event>
<event>
 8    1  0.2184156E-005  0.1230540E+03  0.7561462E-02  0.1238142E+00
          1   -1    0    0  501    0  0.00000000000E+00  0.00000000000E+00  0.36318431005E+03  0.36318431005E+03  0.00000000000E+00 0. -1.
         -1   -1    0    0    0  501 -0.00000000000E+00 -0.00000000000E+00 -0.53384072919E+02  0.53384072919E+02  0.00000000000E+00 0.  1.
         23    2    1    2    0    0 -0.68439977086E+01  0.70585426864E+02  0.68043040993E+02  0.13527933436E+03  0.92959669137E+02 0.  0.
         23    2    1    2    0    0  0.68439977086E+01 -0.70585426864E+02  0.24175719613E+03  0.28128904861E+03  0.12509134340E+03 0.  0.
          5    1    4    4  502    0 -0.15553506491E+02  0.30234924291E+02  0.10103723212E+03  0.10668672310E+03  0.41800000000E+01 0.  1.
         -5    1    4    4    0  502  0.22397504200E+02 -0.10082035116E+03  0.14071996402E+03  0.17460232551E+03  0.41800000000E+01 0.  1.
        -11    1    3    3    0    0  0.37666390726E+02  0.28520875403E+02  0.55284015826E+02  0.72722209331E+02  0.00000000000E+00 0. -1.
         11    1    3    3    0    0 -0.44510388435E+02  0.42064551461E+02  0.12759025167E+02  0.62557125025E+02  0.00000000000E+00 0.  1.
</event>
<event>
 8    1  0.2184156E-005  0.1404902E+03  0.7561462E-02  0.1212671E+00
         -2   -1    0    0    0  501 -0.00000000000E+00  0.00000000000E+00  0.71117339179E+02  0.71117339179E+02  0.00000000000E+00 0.  1.
          2   -1    0    0  501    0  0.00000000000E+00 -0.00000000000E+00 -0.36061594040E+03  0.36061594040E+03  0.00000000000E+00 0. -1.
         23    2    1    2    0    0  0.11221622668E+03  0.33812523274E+02 -0.13341974837E+03  0.19990846880E+03  0.91797594631E+02 0.  0.
         23    2    1    2    0    0 -0.11221622668E+03 -0.33812523274E+02 -0.15607885285E+03  0.23182481078E+03  0.12508543611E+03 0.  0.
          5    1    4    4  502    0 -0.67570948394E+02 -0.71093527383E+02 -0.14061700012E+03  0.17149558544E+03  0.41800000000E+01 0. -1.
         -5    1    4    4    0  502 -0.44645278287E+02  0.37281004109E+02 -0.15461852727E+02  0.60329225342E+02  0.41800000000E+01 0. -1.
        -11    1    3    3    0    0  0.68324766772E+02 -0.12218798881E+01 -0.16648360267E+02  0.70334448491E+02  0.00000000000E+00 0.  1.
         11    1    3    3    0    0  0.43891459909E+02  0.35034403162E+02 -0.11677138811E+03  0.12957402031E+03  0.00000000000E+00 0. -1.
</event>
<event>
 8    1  0.2184156E-005  0.1432667E+03  0.7561462E-02  0.1209000E+00
         -1   -1    0    0    0  501 -0.00000000000E+00  0.00000000000E+00  0.66496225986E+02  0.66496225986E+02  0.00000000000E+00 0. -1.
          1   -1    0    0  501    0  0.00000000000E+00 -0.00000000000E+00 -0.40896558090E+03  0.40896558090E+03  0.00000000000E+00 0.  1.
         23    2    1    2    0    0  0.11206880765E+03 -0.22293683113E+02 -0.88008080804E+02  0.16975872044E+03  0.89533094014E+02 0.  0.
         23    2    1    2    0    0 -0.11206880765E+03  0.22293683113E+02 -0.25446127411E+03  0.30570308645E+03  0.12508961223E+03 0.  0.
          5    1    4    4  502    0  0.22591925481E+02 -0.11094410647E+02 -0.17024571193E+02  0.30672291549E+02  0.41800000000E+01 0.  1.
         -5    1    4    4    0  502 -0.13466073313E+03  0.33388093760E+02 -0.23743670292E+03  0.27503079490E+03  0.41800000000E+01 0.  1.
        -11    1    3    3    0    0  0.70975387382E+02 -0.35093977410E+02 -0.97584319558E+02  0.12566539813E+03  0.00000000000E+00 0. -1.
         11    1    3    3    0    0  0.41093420264E+02  0.12800294298E+02  0.95762387535E+01  0.44093322304E+02  0.00000000000E+00 0.  1.
</event>
<event>
 8    1  0.2184156E-005  0.1256681E+03  0.7561462E-02  0.1234029E+00
         -2   -1    0    0    0  501 -0.00000000000E+00  0.00000000000E+00  0.73358358608E+02  0.73358358608E+02  0.00000000000E+00 0.  1.
          2   -1    0    0  501    0  0.00000000000E+00 -0.00000000000E+00 -0.28105994415E+03  0.28105994415E+03  0.00000000000E+00 0. -1.
         23    2    1    2    0    0 -0.63331701090E+02 -0.68426344480E+02 -0.67939337820E+02  0.14495928954E+03  0.87774557919E+02 0.  0.
         23    2    1    2    0    0  0.63331701090E+02  0.68426344480E+02 -0.13976224772E+03  0.20945901322E+03  0.12508606377E+03 0.  0.
          5    1    4    4  502    0  0.95306737939E+02  0.53194043379E+02 -0.66237737679E+02  0.12774150007E+03  0.41800000000E+01 0.  1.
         -5    1    4    4    0  502 -0.31975036849E+02  0.15232301100E+02 -0.73524510042E+02  0.81717513149E+02  0.41800000000E+01 0.  1.
        -11    1    3    3    0    0 -0.67356927831E+02 -0.41273825260E+02 -0.84560299829E+01  0.79448025913E+02  0.00000000000E+00 0.  1.
         11    1    3    3    0    0  0.40252267416E+01 -0.27152519220E+02 -0.59483307837E+02  0.65511263624E+02  0.00000000000E+00 0. -1.
</event>
<event>
 8    1  0.2184156E-005  0.1119374E+03  0.7561462E-02  0.1257024E+00
         -2   -1    0    0    0  501 -0.00000000000E+00  0.00000000000E+00  0.16601193884E+02  0.16601193884E+02  0.00000000000E+00 0.  1.
          2   -1    0    0  501    0  0.00000000000E+00 -0.00000000000E+00 -0.83844756910E+03  0.83844756910E+03  0.00000000000E+00 0. -1.
         23    2    1    2    0    0 -0.18523794286E+02 -0.48091244717E+02 -0.28044335147E+03  0.29699720874E+03  0.83084113046E+02 0.  0.
         23    2    1    2    0    0  0.18523794286E+02  0.48091244717E+02 -0.54140302374E+03  0.55805155425E+03  0.12509358218E+03 0.  0.
          5    1    4    4  502    0  0.31312009677E+02  0.86587723673E+02 -0.41957732431E+03  0.42958174928E+03  0.41800000000E+01 0. -1.
         -5    1    4    4    0  502 -0.12788215391E+02 -0.38496478956E+02 -0.12182569944E+03  0.12846980497E+03  0.41800000000E+01 0. -1.
        -11    1    3    3    0    0  0.28025333706E+02 -0.71265103405E+01 -0.14744983319E+03  0.15025864297E+03  0.00000000000E+00 0.  1.
         11    1    3    3    0    0 -0.46549127992E+02 -0.40964734376E+02 -0.13299351828E+03  0.14673856577E+03  0.00000000000E+00 0. -1.
</event>
<event>
 8    1  0.2184156E-005  0.1152181E+03  0.7561462E-02  0.1251201E+00
          1   -1    0    0  501    0  0.00000000000E+00  0.00000000000E+00  0.50007250572E+03  0.50007250572E+03  0.00000000000E+00 0. -1.
         -1   -1    0    0    0  501 -0.00000000000E+00 -0.00000000000E+00 -0.38430008277E+02  0.38430008277E+02  0.00000000000E+00 0.  1.
         23    2    1    2    0    0  0.75778800225E+02  0.40948637713E+02  0.21369777521E+03  0.24773967252E+03  0.91043883449E+02 0.  0.
         23    2    1    2    0    0 -0.75778800225E+02 -0.40948637713E+02  0.24794472223E+03  0.29076284148E+03  0.12508887724E+03 0.  0.
          5    1    4    4  502    0 -0.64626269234E+02 -0.79438187654E+02  0.21691237448E+03  0.23990712982E+03  0.41800000000E+01 0.  1.
         -5    1    4    4    0  502 -0.11152530991E+02  0.38489549941E+02  0.31032347743E+02  0.50855711661E+02  0.41800000000E+01 0.  1.
        -11    1    3    3    0    0  0.23288324894E+02  0.44175988695E+01 -0.99510896416E+00  0.23724491522E+02  0.00000000000E+00 0.  1.
         11    1    3    3    0    0  0.52490475331E+02  0.36531038844E+02  0.21469288418E+03  0.22401518100E+03  0.00000000000E+00 0. -1.
</event>
<event>
 8    1  0.2184156E-005  0.9435553E+02  0.7561462E-02  0.1292634E+00
          2   -1    0    0  501    0  0.00000000000E+00  0.00000000000E+00  0.44052063790E+02  0.44052063790E+02  0.00000000000E+00 0. -1.
         -2   -1    0    0    0  501 -0.00000000000E+00 -0.00000000000E+00 -0.30452747158E+03  0.30452747158E+03  0.00000000000E+00 0.  1.
         23    2    1    2    0    0  0.92555372141E+01  0.16258551952E+02 -0.77014266123E+02  0.12574464153E+03  0.97624342277E+02 0.  0.
         23    2    1    2    0    0 -0.92555372141E+01 -0.16258551952E+02 -0.18346114167E+03  0.22283489385E+03  0.12508954366E+03 0.  0.
          5    1    4    4  502    0  0.39363971149E+02 -0.15855710513E+02 -0.16538522653E+03  0.17079423683E+03  0.41800000000E+01 0. -1.
         -5    1    4    4    0  502 -0.48619508363E+02 -0.40284143902E+00 -0.18075915142E+02  0.52040657019E+02  0.41800000000E+01 0. -1.
        -11    1    3    3    0    0  0.27471082785E+02  0.51063732726E+02 -0.32872760738E+02  0.66654209078E+02  0.00000000000E+00 0. -1.
         11    1    3    3    0    0 -0.18215545571E+02 -0.34805180774E+02 -0.44141505386E+02  0.59090432448E+02  0.00000000000E+00 0.  1.
</event>
<event>
 8    1  0.2184156E-005  0.1893027E+03  0.7561462E-02  0.1159092E+00
         -2   -1    0    0    0  501 -0.00000000000E+00  0.00000000000E+00  0.34472571294E+02  0.34472571294E+02  0.00000000000E+00 0.  1.
          2   -1    0    0  501    0  0.00000000000E+00 -0.00000000000E+00 -0.10566322470E+04  0.10566322470E+04  0.00000000000E+00 0. -1.
         23    2    1    2    0    0  0.15461438251E+03 -0.11826840711E+02 -0.54190948868E+03  0.57116909832E+03  0.92318814501E+02 0.  0.
         23    2    1    2    0    0 -0.15461438251E+03  0.11826840711E+02 -0.48025018699E+03  0.51993571994E+03  0.12508968513E+03 0.  0.
          5    1    4    4  502    0 -0.16467427528E+02  0.51619597499E+02 -0.15680918402E+03  0.16595888529E+03  0.41800000000E+01 0. -1.
         -5    1    4    4    0  502 -0.13814695498E+03 -0.39792756787E+02 -0.32344100297E+03  0.35397683465E+03  0.41800000000E+01 0. -1.
        -11    1    3    3    0    0  0.16732432846E+03 -0.10397709757E+02 -0.50076373198E+03  0.52808129917E+03  0.00000000000E+00 0.  1.
         11    1    3    3    0    0 -0.12709945948E+02 -0.14291309547E+01 -0.41145756697E+02  0.43087799148E+02  0.00000000000E+00 0. -1.
</event>
<event>
 8    1  0.2184156E-005  0.8440274E+02  0.7561462E-02  0.1317002E+00
          2   -1    0    0  501    0  0.00000000000E+00  0.00000000000E+00  0.13426224441E+03  0.13426224441E+03  0.00000000000E+00 0. -1.
         -2   -1    0    0    0  501 -0.00000000000E+00 -0.00000000000E+00 -0.10579601866E+03  0.10579601866E+03  0.00000000000E+00 0.  1.
         23    2    1    2    0    0 -0.26031543675E+02  0.81135234709E+01 -0.27792775078E+02  0.10021849712E+03  0.92346295480E+02 0.  0.
         23    2    1    2    0    0  0.26031543675E+02 -0.81135234709E+01  0.56259000833E+02  0.13983976595E+03  0.12508642787E+03 0.  0.
          5    1    4    4  502    0  0.26912964050E+02  0.37329548920E+02  0.76924061134E+02  0.89736204722E+02  0.41800000000E+01 0. -1.
         -5    1    4    4    0  502 -0.88142037582E+00 -0.45443072391E+02 -0.20665060302E+02  0.50103561226E+02  0.41800000000E+01 0. -1.
        -11    1    3    3    0    0  0.20989436129E+02 -0.13755534137E+02 -0.39741757443E+02  0.47001898186E+02  0.00000000000E+00 0.  1.
         11    1    3    3    0    0 -0.47020979803E+02  0.21869057608E+02  0.11948982365E+02  0.53216598932E+02  0.00000000000E+00 0. -1.
</event>
<event>
 8    1  0.2184156E-005  0.1524544E+03  0.7561462E-02  0.1197489E+00
          3   -1    0    0  501    0  0.00000000000E+00  0.00000000000E+00  0.32694610937E+02  0.32694610937E+02  0.00000000000E+00 0. -1.
         -3   -1    0    0    0  501 -0.00000000000E+00 -0.00000000000E+00 -0.82017605084E+03  0.82017605084E+03  0.00000000000E+00 0.  1.
         23    2    1    2    0    0  0.10079258779E+02  0.10717948738E+03 -0.51689776804E+03  0.53592831855E+03  0.91906615952E+02 0.  0.
         23    2    1    2    0    0 -0.10079258779E+02 -0.10717948738E+03 -0.27058367187E+03  0.31694234322E+03  0.12509153239E+03 0.  0.
          5    1    4    4  502    0 -0.63929658694E+02 -0.33989889441E+02 -0.14185110560E+03  0.15931579459E+03  0.41800000000E+01 0.  1.
         -5    1    4    4    0  502  0.53850399916E+02 -0.73189597934E+02 -0.12873256626E+03  0.15762654863E+03  0.41800000000E+01 0.  1.
        -11    1    3    3    0    0  0.21959470662E+02 -0.96530927535E+01 -0.96451199977E+02  0.99389307918E+02  0.00000000000E+00 0. -1.
         11    1    3    3    0    0 -0.11880211884E+02  0.11683258013E+03 -0.42044656806E+03  0.43653901064E+03  0.00000000000E+00 0.  1.
</event>
<event>
 8    1  0.2184156E-005  0.1148821E+03  0.7561462E-02  0.1251787E+00
          2   -1    0    0  501    0  0.00000000000E+00  0.00000000000E+00  0.64235229460E+03  0.64235229460E+03  0.00000000000E+00 0.  1.
         -2   -1    0    0    0  501 -0.00000000000E+00 -0.00000000000E+00 -0.25536357472E+02  0.25536357472E+02  0.00000000000E+00 0. -1.
         23    2    1    2    0    0  0.11554808823E+02 -0.60109017054E+02  0.20522718193E+03  0.23337828796E+03  0.92739536064E+02 0.  0.
         23    2    1    2    0    0 -0.11554808823E+02  0.60109017054E+02  0.41158875520E+03  0.43451036412E+03  0.12508935038E+03 0.  0.
          5    1    4    4  502    0  0.47124135459E+02  0.61163103402E+02  0.27769124415E+03  0.28825597798E+03  0.41800000000E+01 0. -1.
         -5    1    4    4    0  502 -0.58678944282E+02 -0.10540863481E+01  0.13389751105E+03  0.14625438614E+03  0.41800000000E+01 0. -1.
        -11    1    3    3    0    0  0.41468181537E+02 -0.30181604023E+02  0.46917033655E+02  0.69510771456E+02  0.00000000000E+00 0. -1.
         11    1    3    3    0    0 -0.29913372714E+02 -0.29927413031E+02  0.15831014827E+03  0.16386751650E+03  0.00000000000E+00 0.  1.
</event>
<event>
 8    1  0.2184156E-005  0.1926970E+03  0.7561462E-02  0.1156051E+00
          1   -1    0    0  501    0  0.00000000000E+00  0.00000000000E+00  0.27236737822E+03  0.27236737822E+03  0.00000000000E+00 0. -1.
         -1   -1    0    0    0  501 -0.00000000000E+00 -0.00000000000E+00 -0.18191930616E+03  0.18191930616E+03  0.00000000000E+00 0.  1.
         23    2    1    2    0    0  0.96969438088E+02  0.16219974701E+03  0.89800783880E+02  0.22766279172E+03  0.89745953084E+02 0.  0.
         23    2    1    2    0    0 -0.96969438088E+02 -0.16219974701E+03  0.64728817870E+00  0.22662389267E+03  0.12508453099E+03 0.  0.
          5    1    4    4  502    0 -0.40728787947E+02 -0.11726986290E+03 -0.54702987798E+02  0.13572377900E+03  0.41800000000E+01 0.  1.
         -5    1    4    4    0  502 -0.56240650141E+02 -0.44929884110E+02  0.55350275977E+02  0.90900113669E+02  0.41800000000E+01 0.  1.
        -11    1    3    3    0    0  0.37701003318E+02  0.57263899163E+02  0.82011851597E+02  0.10689463785E+03  0.00000000000E+00 0.  1.
         11    1    3    3    0    0  0.59268434769E+02  0.10493584784E+03  0.77889322837E+01  0.12076815387E+03  0.00000000000E+00 0. -1.
</event>
<event>
 7    1  0.2184156E-005  0.1135803E+03  0.7561462E-02  0.1254080E+00
          1   -1    0    0  501    0  0.00000000000E+00  0.00000000000E+00  0.48725101205E+03  0.48725101205E+03  0.00000000000E+00 0. -1.
         -1   -1    0    0    0  501 -0.00000000000E+00 -0.00000000000E+00 -0.52215162149E+02  0.52215162149E+02  0.00000000000E+00 0.  1.
         23    2    1    2    0    0  0.67598594895E+02 -0.14924430215E+02  0.43176007669E+02  0.11920967697E+03  0.86916458714E+02 0.  0.
          5    1    1    2  502    0 -0.18654019844E+01  0.59571334502E+02  0.25536429220E+03  0.26226059130E+03  0.41800000000E+01 0. -1.
         -5    1    1    2    0  502 -0.65733192911E+02 -0.44646904287E+02  0.13649555004E+03  0.15799590594E+03  0.41800000000E+01 0.  1.
        -11    1    3    3    0    0 -0.43602072653E+01  0.10622650878E+02  0.41258347419E+02  0.42826432852E+02  0.00000000000E+00 0. -1.
         11    1    3    3    0    0  0.71958802161E+02 -0.25547081093E+02  0.19176602505E+01  0.76383244115E+02  0.00000000000E+00 0.  1.
</event>
<event>
 8    1  0.2184156E-005  0.1646372E+03  0.7561462E-02  0.1183559E+00
         -1   -1    0    0    0  501 -0.00000000000E+00  0.00000000000E+00  0.51501613016E+03  0.51501613016E+03  0.00000000000E+00 0.  1.
          1   -1    0    0  501    0  0.00000000000E+00 -0.00000000000E+00 -0.81384778334E+02  0.81384778334E+02  0.00000000000E+00 0. -1.
         23    2    1    2    0    0 -0.85979826275E+02  0.12417827835E+03  0.33084337151E+03  0.37498465668E+03  0.91342109327E+02 0.  0.
         23    2    1    2    0    0  0.85979826275E+02 -0.12417827835E+03  0.10278798032E+03  0.22141625182E+03  0.12508801833E+03 0.  0.
          5    1    4    4  502    0  0.51213309491E+02 -0.52226814314E+02 -0.19002363193E+02  0.75690193614E+02  0.41800000000E+01 0.  1.
         -5    1    4    4    0  502  0.34766516784E+02 -0.71951464032E+02  0.12179034351E+03  0.14572605820E+03  0.41800000000E+01 0.  1.
        -11    1    3    3    0    0  0.20824221083E+01  0.75187102300E+02  0.15580729948E+03  0.17301257586E+03  0.00000000000E+00 0.  1.
         11    1    3    3    0    0 -0.88062248384E+02  0.48991176046E+02  0.17503607203E+03  0.20197208083E+03  0.00000000000E+00 0. -1.
</event>
<event>
 8    1  0.2184156E-005  0.1308209E+03  0.7561462E-02  0.1226243E+00
         -1   -1    0    0    0  501 -0.00000000000E+00  0.00000000000E+00  0.32744640318E+03  0.32744640318E+03  0.00000000000E+00 0.  1.
          1   -1    0    0  501    0  0.00000000000E+00 -0.00000000000E+00 -0.88369357318E+02  0.88369357318E+02  0.00000000000E+00 0. -1.
         23    2    1    2    0    0  0.98572195588E+02  0.15861438907E+02  0.21497263189E+03  0.25396345847E+03  0.91192887840E+02 0.  0.
         23    2    1    2    0    0 -0.98572195588E+02 -0.15861438907E+02  0.24104413970E+02  0.16185230202E+03  0.12508829645E+03 0.  0.
          5    1    4    4  502    0 -0.12575028221E+03 -0.25299908308E+02  0.79288553421E+01  0.12858288372E+03  0.41800000000E+01 0. -1.
         -5    1    4    4    0  502  0.27178086627E+02  0.94384694011E+01  0.16175558628E+02  0.33269418304E+02  0.41800000000E+01 0. -1.
        -11    1    3    3    0    0  0.11168397851E+02 -0.78702112383E+01 -0.61715077008E+01  0.14992025974E+02  0.00000000000E+00 0. -1.
         11    1    3    3    0    0  0.87403797737E+02  0.23731650145E+02  0.22114413959E+03  0.23897143250E+03  0.00000000000E+00 0.  1.
</event>
<event>
 8    1  0.2184156E-005  0.2663065E+03  0.7561462E-02  0.1103412E+00
         -2   -1    0    0    0  501 -0.00000000000E+00  0.00000000000E+00  0.11872219693E+03  0.11872219693E+03  0.00000000000E+00 0.  1.
          2   -1    0    0  501    0  0.00000000000E+00 -0.00000000000E+00 -0.67394920793E+03  0.67394920793E+03  0.00000000000E+00 0. -1.
         23    2    1    2    0    0 -0.24205469770E+02 -0.24864484348E+03 -0.16244125944E+03  0.31065610872E+03  0.87805991618E+02 0.  0.
         23    2    1    2    0    0  0.24205469770E+02  0.24864484348E+03 -0.39278575156E+03  0.48201529613E+03  0.12509171086E+03 0.  0.
          5    1    4    4  502    0  0.64205671827E+02  0.13478947942E+03 -0.15455878702E+03  0.21493362488E+03  0.41800000000E+01 0. -1.
         -5    1    4    4    0  502 -0.40000202057E+02  0.11385536406E+03 -0.23822696454E+03  0.26708167126E+03  0.41800000000E+01 0. -1.
        -11    1    3    3    0    0  0.25134112376E+02 -0.15125896353E+03 -0.74517490553E+02  0.17048124252E+03  0.00000000000E+00 0.  1.
         11    1    3    3    0    0 -0.49339582146E+02 -0.97385879946E+02 -0.87923768888E+02  0.14017486620E+03  0.00000000000E+00 0. -1.
</event>
<event>
 8    1  0.2184156E-005  0.1552365E+03  0.7561462E-02  0.1194182E+00
          3   -1    0    0  501    0  0.00000000000E+00  0.00000000000E+00  0.16175897880E+04  0.16175897880E+04  0.00000000000E+00 0. -1.
         -3   -1    0    0    0  501 -0.00000000000E+00 -0.00000000000E+00 -0.17755522402E+02  0.17755522402E+02  0.00000000000E+00 0.  1.
         23    2    1    2    0    0  0.22142316639E+02  0.11377688716E+03  0.46829688120E+03  0.49102915445E+03  0.91499723171E+02 0.  0.
         23    2    1    2    0    0 -0.22142316639E+02 -0.11377688716E+03  0.11315373844E+04  0.11443161559E+04  0.12508856960E+03 0.  0.
          5    1    4    4  502    0 -0.37014194863E+02  0.11104361328E+02  0.15949817327E+03  0.16416606574E+03  0.41800000000E+01 0. -1.
         -5    1    4    4    0  502  0.14871878224E+02 -0.12488124849E+03  0.97203921109E+03  0.98015009018E+03  0.41800000000E+01 0. -1.
        -11    1    3    3    0    0  0.49718991601E+02  0.31169120743E+02  0.22824793403E+03  0.23567055735E+03  0.00000000000E+00 0. -1.
         11    1    3    3    0    0 -0.27576674962E+02  0.82607766417E+02  0.24004894717E+03  0.25535859710E+03  0.00000000000E+00 0.  1.
</event>
<event>
 8    1  0.2184156E-005  0.1030955E+03  0.7561462E-02  0.1273918E+00
         -2   -1    0    0    0  501 -0.00000000000E+00  0.00000000000E+00  0.34692969493E+02  0.34692969493E+02  0.00000000000E+00 0.  1.
          2   -1    0    0  501    0  0.00000000000E+00 -0.00000000000E+00 -0.50120634856E+03  0.50120634856E+03  0.00000000000E+00 0. -1.
         23    2    1    2    0    0  0.45535872119E+02 -0.55784660645E+02 -0.16591594540E+03  0.20244476299E+03  0.90941393814E+02 0.  0.
         23    2    1    2    0    0 -0.45535872119E+02  0.55784660645E+02 -0.30059743366E+03  0.33345455507E+03  0.12509068373E+03 0.  0.
          5    1    4    4  502    0  0.14322393438E+02 -0.73264717124E+01 -0.19878902780E+03  0.19948272636E+03  0.41800000000E+01 0. -1.
         -5    1    4    4    0  502 -0.59858265557E+02  0.63111132357E+02 -0.10180840586E+03  0.13397182871E+03  0.41800000000E+01 0. -1.
        -11    1    3    3    0    0  0.18622083740E+02 -0.69730127553E+02 -0.65189238749E+02  0.97255897199E+02  0.00000000000E+00 0.  1.
         11    1    3    3    0    0  0.26913788379E+02  0.13945466908E+02 -0.10072670665E+03  0.10518886579E+03  0.00000000000E+00 0. -1.
</event>
<event>
 8    1  0.2184156E-005  0.1063228E+03  0.7561462E-02  0.1267535E+00
         -1   -1    0    0    0  501 -0.00000000000E+00  0.00000000000E+00  0.22760290313E+02  0.22760290313E+02  0.00000000000E+00 0.  1.
          1   -1    0    0  501    0  0.00000000000E+00 -0.00000000000E+00 -0.66857019425E+03  0.66857019425E+03  0.00000000000E+00 0. -1.
         23    2    1    2    0    0  0.41742306267E+01 -0.57399253878E+02 -0.29616272512E+03  0.31554753424E+03  0.92443431720E+02 0.  0.
         23    2    1    2    0    0 -0.41742306267E+01  0.57399253878E+02 -0.34964717881E+03  0.37578295032E+03  0.12509027760E+03 0.  0.
          5    1    4    4  502    0 -0.48821266946E+02 -0.22881968250E+01 -0.64552138783E+02  0.81075291996E+02  0.41800000000E+01 0. -1.
         -5    1    4    4    0  502  0.44647036319E+02  0.59687450703E+02 -0.28509504003E+03  0.29470765832E+03  0.41800000000E+01 0. -1.
        -11    1    3    3    0    0 -0.30106267916E+02 -0.41183887854E+02 -0.25300085695E+03  0.25809287786E+03  0.00000000000E+00 0. -1.
         11    1    3    3    0    0  0.34280498543E+02 -0.16215366024E+02 -0.43161868175E+02  0.57454656382E+02  0.00000000000E+00 0.  1.
</event>
<event>
 8    1  0.2184156E-005  0.1130643E+03  0.7561462E-02  0.1254998E+00
         -2   -1    0    0    0  501 -0.00000000000E+00  0.00000000000E+00  0.13669620937E+03  0.13669620937E+03  0.00000000000E+00 0.  1.
          2   -1    0    0  501    0  0.00000000000E+00 -0.00000000000E+00 -0.16392031420E+03  0.16392031420E+03  0.00000000000E+00 0. -1.
         23    2    1    2    0    0 -0.36658450261E+02 -0.69131702244E+02  0.54764294810E+02  0.13181685817E+03  0.90848895867E+02 0.  0.
         23    2    1    2    0    0  0.36658450261E+02  0.69131702244E+02 -0.81988399641E+02  0.16879966540E+03  0.12509274612E+03 0.  0.
          5    1    4    4  502    0 -0.35163194666E+02  0.43271339548E+02 -0.72808081717E+02  0.91800589588E+02  0.41800000000E+01 0. -1.
         -5    1    4    4    0  502  0.71821644927E+02  0.25860362696E+02 -0.91803179239E+01  0.76999075812E+02  0.41800000000E+01 0. -1.
        -11    1    3    3    0    0 -0.44903405349E+02 -0.30545603825E+02 -0.10727654998E+02  0.55357314844E+02  0.00000000000E+00 0. -1.
         11    1    3    3    0    0  0.82449550875E+01 -0.38586098418E+02  0.65491949807E+02  0.76459543323E+02  0.00000000000E+00 0.  1.
</event>
<event>
 7    1  0.2184156E-005  0.9277255E+02  0.7561462E-02  0.1296273E+00
          2   -1    0    0  501    0  0.00000000000E+00  0.00000000000E+00  0.41826959957E+02  0.41826959957E+02  0.00000000000E+00 0. -1.
         -2   -1    0    0    0  501 -0.00000000000E+00 -0.00000000000E+00 -0.41110546178E+03  0.41110546178E+03  0.00000000000E+00 0.  1.
         23    2    1    2    0    0  0.12840410197E+02  0.12949380046E+02 -0.26314571187E+03  0.27864541479E+03  0.89805561828E+02 0.  0.
          5    1    1    2  502    0 -0.55220045799E+02  0.46580643349E+01  0.31734814737E+01  0.55664121353E+02  0.41800000000E+01 0. -1.
         -5    1    1    2    0  502  0.42379635602E+02 -0.17607444381E+02 -0.10930627143E+03  0.11862288559E+03  0.41800000000E+01 0.  1.
        -11    1    3    3    0    0 -0.10964615614E+02  0.43669986582E+02 -0.83727674626E+02  0.95066366407E+02  0.00000000000E+00 0. -1.
         11    1    3    3    0    0  0.23805025811E+02 -0.30720606536E+02 -0.17941803724E+03  0.18357904839E+03  0.00000000000E+00 0.  1.
</event>
<event>
 8    1  0.2184156E-005  0.1797225E+03  0.7561462E-02  0.1168072E+00
         -1   -1    0    0    0  501 -0.00000000000E+00  0.00000000000E+00  0.26604617461E+02  0.26604617461E+02  0.00000000000E+00 0.  1.
          1   -1    0    0  501    0  0.00000000000E+00 -0.00000000000E+00 -0.16203679925E+04  0.16203679925E+04  0.00000000000E+00 0. -1.
         23    2    1    2    0    0 -0.57175565963E+02 -0.15007363905E+03 -0.47113585527E+03  0.50603832245E+03  0.91184687250E+02 0.  0.
         23    2    1    2    0    0  0.57175565963E+02  0.15007363905E+03 -0.11226275198E+04  0.11409342875E+04  0.12508939918E+03 0.  0.
          5    1    4    4  502    0  0.68592094283E+02  0.15910553988E+03 -0.82931251197E+03  0.84722851884E+03  0.41800000000E+01 0. -1.
         -5    1    4    4    0  502 -0.11416528320E+02 -0.90319008288E+01 -0.29331500779E+03  0.29370576866E+03  0.41800000000E+01 0. -1.
        -11    1    3    3    0    0 -0.48364854130E+02 -0.46672609340E+02 -0.98679309690E+02  0.11939471403E+03  0.00000000000E+00 0.  1.
         11    1    3    3    0    0 -0.88107118335E+01 -0.10340102971E+03 -0.37245654558E+03  0.38664360842E+03  0.00000000000E+00 0. -1.
</event>
<event>
 7    1  0.2184156E-005  0.1125085E+03  0.7561462E-02  0.1255994E+00
         -2   -1    0    0    0  501 -0.00000000000E+00  0.00000000000E+00  0.43177720689E+02  0.43177720689E+02  0.00000000000E+00 0.  1.
          2   -1    0    0  501    0  0.00000000000E+00 -0.00000000000E+00 -0.43612114977E+03  0.43612114977E+03  0.00000000000E+00 0. -1.
         23    2    1    2    0    0  0.82881095678E+01 -0.13569476805E+02 -0.43111473281E+02  0.10460951238E+03  0.93977271140E+02 0.  0.
          5    1    1    2  502    0 -0.48494990585E+02 -0.40577258339E+02 -0.21058644585E+03  0.21991453244E+03  0.41800000000E+01 0. -1.
         -5    1    1    2    0  502  0.40206881017E+02  0.54146735144E+02 -0.13924550995E+03  0.15477482563E+03  0.41800000000E+01 0.  1.
        -11    1    3    3    0    0 -0.25748491337E+02  0.29515449459E+02 -0.97565597413E+01  0.40365047019E+02  0.00000000000E+00 0.  1.
         11    1    3    3    0    0  0.34036600904E+02 -0.43084926264E+02 -0.33354913540E+02  0.64244465361E+02  0.00000000000E+00 0. -1.
</event>
<event>
 8    1  0.2184156E-005  0.9089313E+02  0.7561462E-02  0.1300703E+00
          4   -1    0    0  501    0  0.00000000000E+00  0.00000000000E+00  0.32965974710E+03  0.32965974710E+03  0.00000000000E+00 0. -1.
         -4   -1    0    0    0  501 -0.00000000000E+00 -0.00000000000E+00 -0.51123237261E+02  0.51123237261E+02  0.00000000000E+00 0.  1.
         23    2    1    2    0    0 -0.36055549712E+02  0.52825682916E+02  0.75696802211E+02  0.13403979356E+03  0.90255775167E+02 0.  0.
         23    2    1    2    0    0  0.36055549712E+02 -0.52825682916E+02  0.20283970763E+03  0.24674319080E+03  0.12509076616E+03 0.  0.
          5    1    4    4  502    0 -0.82108591381E+00  0.21068260092E+02  0.14316342375E+03  0.14476803537E+03  0.41800000000E+01 0. -1.
         -5    1    4    4    0  502  0.36876635626E+02 -0.73893943008E+02  0.59676283878E+02  0.10197515543E+03  0.41800000000E+01 0. -1.
        -11    1    3    3    0    0  0.85163352182E+01  0.21492256163E+02  0.76121727324E+02  0.79554776169E+02  0.00000000000E+00 0. -1.
         11    1    3    3    0    0 -0.44571884931E+02  0.31333426753E+02 -0.42492511274E+00  0.54485017387E+02  0.00000000000E+00 0.  1.
</event>
<event>
 7    1  0.2184156E-005  0.8873608E+02  0.7561462E-02  0.1305942E+00
         -1   -1    0    0    0  501 -0.00000000000E+00  0.00000000000E+00  0.66580818347E+02  0.66580818347E+02  0.00000000000E+00 0.  1.
          1   -1    0    0  501    0  0.00000000000E+00 -0.00000000000E+00 -0.61391089449E+03  0.61391089449E+03  0.00000000000E+00 0. -1.
         23    2    1    2    0    0  0.22425565099E+02 -0.40140074518E+02  0.54952523598E+01  0.10216429357E+03  0.91067082582E+02 0.  0.
          5    1    1    2  502    0 -0.18043508842E+02  0.81079623060E+02 -0.51682920590E+03  0.52347815041E+03  0.41800000000E+01 0. -1.
         -5    1    1    2    0  502 -0.43820562562E+01 -0.40939548542E+02 -0.35996122610E+02  0.54849268863E+02  0.41800000000E+01 0.  1.
        -11    1    3    3    0    0  0.24396834344E+01 -0.30733268597E+02  0.46381226338E+02  0.55692943992E+02  0.00000000000E+00 0.  1.
         11    1    3    3    0    0  0.19985881664E+02 -0.94068059214E+01 -0.40885973978E+02  0.46471349578E+02  0.00000000000E+00 0. -1.
</event>
<event>
 7    1  0.2184156E-005  0.1253222E+03  0.7561462E-02  0.1234567E+00
          1   -1    0    0  501    0  0.00000000000E+00  0.00000000000E+00  0.77316546962E+02  0.77316546962E+02  0.00000000000E+00 0. -1.
         -1   -1    0    0    0  501 -0.00000000000E+00 -0.00000000000E+00 -0.44466138445E+03  0.44466138445E+03  0.00000000000E+00 0.  1.
         23    2    1    2    0    0 -0.30730199112E+02  0.85359856055E+02 -0.13483168159E+03  0.19781282717E+03  0.11278156795E+03 0.  0.
          5    1    3    3  502    0 -0.21759725804E+02 -0.18361235008E+02 -0.68497521207E+02  0.74296725565E+02  0.41800000000E+01 0. -1.
         -5    1    3    3    0  502 -0.89704733077E+01  0.10372109106E+03 -0.66334160383E+02  0.12351610161E+03  0.41800000000E+01 0.  1.
        -11    1    1    2    0    0  0.49366139390E+02 -0.85852061995E+02 -0.26710308727E+03  0.28487128935E+03  0.00000000000E+00 0.  1.
         11    1    1    2    0    0 -0.18635940277E+02  0.49220593994E+00  0.34589931369E+02  0.39293814892E+02  0.00000000000E+00 0. -1.
</event>
<event>
 8    1  0.2184156E-005  0.1327201E+03  0.7561462E-02  0.1223475E+00
          1   -1    0    0  501    0  0.00000000000E+00  0.00000000000E+00  0.10937358105E+03  0.10937358105E+03  0.00000000000E+00 0. -1.
         -1   -1    0    0    0  501 -0.00000000000E+00 -0.00000000000E+00 -0.16448680001E+03  0.16448680001E+03  0.00000000000E+00 0.  1.
         23    2    1    2    0    0 -0.70267688433E+02 -0.37302088350E+02 -0.20256342027E+02  0.12157314215E+03  0.89670037737E+02 0.  0.
         23    2    1    2    0    0  0.70267688433E+02  0.37302088350E+02 -0.34856876924E+02  0.15228723891E+03  0.12508959762E+03 0.  0.
          5    1    4    4  502    0 -0.40821566429E+01 -0.38733620275E+02  0.30987776015E+01  0.39294174697E+02  0.41800000000E+01 0. -1.
         -5    1    4    4    0  502  0.74349845076E+02  0.76035708625E+02 -0.37955654526E+02  0.11299306421E+03  0.41800000000E+01 0. -1.
        -11    1    3    3    0    0 -0.10522183703E+02 -0.56201059177E+02 -0.82446695124E+01  0.57768936098E+02  0.00000000000E+00 0.  1.
         11    1    3    3    0    0 -0.59745504730E+02  0.18898970828E+02 -0.12011672514E+02  0.63804206056E+02  0.00000000000E+00 0. -1.
</event>
<event>
 8    1  0.2184156E-005  0.1295336E+03  0.7561462E-02  0.1228149E+00
          1   -1    0    0  501    0  0.00000000000E+00  0.00000000000E+00  0.41850714014E+03  0.41850714014E+03  0.00000000000E+00 0. -1.
         -1   -1    0    0    0  501 -0.00000000000E+00 -0.00000000000E+00 -0.80578265912E+02  0.80578265912E+02  0.00000000000E+00 0.  1.
         23    2    1    2    0    0  0.65540721618E+02  0.35809922838E+02 -0.14088815998E+02  0.11810805713E+03  0.90405097522E+02 0.  0.
         23    2    1    2    0    0 -0.65540721618E+02 -0.35809922838E+02  0.35201769023E+03  0.38097734893E+03  0.12509735968E+03 0.  0.
          5    1    4    4  502    0 -0.92536592286E+02 -0.58866842914E+02  0.25680177117E+03  0.27927217581E+03  0.41800000000E+01 0.  1.
         -5    1    4    4    0  502  0.26995870668E+02  0.23056920076E+02  0.95215919056E+02  0.10170517311E+03  0.41800000000E+01 0.  1.
        -11    1    3    3    0    0  0.75393701461E+02 -0.10615748917E+01 -0.23163167849E+02  0.78878827996E+02  0.00000000000E+00 0.  1.
         11    1    3    3    0    0 -0.98529798431E+01  0.36871497730E+02  0.90743518502E+01  0.39229229130E+02  0.00000000000E+00 0. -1.
</event>
<event>
 8    1  0.2184156E-005  0.7960901E+02  0.7561462E-02  0.1330165E+00
         -1   -1    0    0    0  501 -0.00000000000E+00  0.00000000000E+00  0.65454873638E+03  0.65454873638E+03  0.00000000000E+00 0.  1.
          1   -1    0    0  501    0  0.00000000000E+00 -0.00000000000E+00 -0.17992912857E+02  0.17992912857E+02  0.00000000000E+00 0. -1.
         23    2    1    2    0    0  0.92331973109E+01  0.30083189394E+01  0.27867991029E+03  0.29330885761E+03  0.90957636495E+02 0.  0.
         23    2    1    2    0    0 -0.92331973109E+01 -0.30083189394E+01  0.35787591323E+03  0.37923279163E+03  0.12509212229E+03 0.  0.
          5    1    4    4  502    0  0.35542544385E+02 -0.45065214847E+01  0.31507203262E+03  0.31713000384E+03  0.41800000000E+01 0. -1.
         -5    1    4    4    0  502 -0.44775741696E+02  0.14982025453E+01  0.42803880612E+02  0.62102787786E+02  0.41800000000E+01 0. -1.
        -11    1    3    3    0    0 -0.25132301476E+02 -0.23764746132E+02  0.20350526426E+03  0.20642380754E+03  0.00000000000E+00 0.  1.
         11    1    3    3    0    0  0.34365498786E+02  0.26773065072E+02  0.75174646025E+02  0.86885050067E+02  0.00000000000E+00 0. -1.
</event>
<event>
 8    1  0.2184156E-005  0.1048338E+03  0.7561462E-02  0.1270447E+00
         -2   -1    0    0    0  501 -0.00000000000E+00  0.00000000000E+00  0.30470855692E+02  0.30470855692E+02  0.00000000000E+00 0.  1.
          2   -1    0    0  501    0  0.00000000000E+00 -0.00000000000E+00 -0.23401175597E+04  0.23401175597E+04  0.00000000000E+00 0. -1.
         23    2    1    2    0    0 -0.79441873428E+01  0.56439065934E+02 -0.71713659304E+02  0.12843757477E+03  0.90027125952E+02 0.  0.
         23    2    1    2    0    0  0.79441873428E+01 -0.56439065934E+02 -0.22379330447E+04  0.22421508406E+04  0.12509037222E+03 0.  0.
          5    1    4    4  502    0  0.60026999039E+02 -0.24319480551E+02 -0.15892674698E+04  0.15905921038E+04  0.41800000000E+01 0.  1.
         -5    1    4    4    0  502 -0.52082811696E+02 -0.32119585383E+02 -0.64866557492E+03  0.65155873682E+03  0.41800000000E+01 0.  1.
        -11    1    3    3    0    0  0.83281359150E+01 -0.11147841598E+02  0.12868088597E+02  0.18953098012E+02  0.00000000000E+00 0.  1.
         11    1    3    3    0    0 -0.16272323258E+02  0.67586907531E+02 -0.84581747901E+02  0.10948447676E+03  0.00000000000E+00 0. -1.
</event>
<event>
 8    1  0.2184156E-005  0.2075268E+03  0.7561462E-02  0.1143540E+00
          2   -1    0    0  501    0  0.00000000000E+00  0.00000000000E+00  0.18445990602E+03  0.18445990602E+03  0.00000000000E+00 0. -1.
         -2   -1    0    0    0  501 -0.00000000000E+00 -0.00000000000E+00 -0.30943727176E+03  0.30943727176E+03  0.00000000000E+00 0.  1.
         23    2    1    2    0    0 -0.18122200896E+03  0.54774641259E+02 -0.14505119247E+03  0.26609841194E+03  0.11801202711E+03 0.  0.
         23    2    1    2    0    0  0.18122200896E+03 -0.54774641259E+02  0.20073826734E+02  0.22779876584E+03  0.12509053257E+03 0.  0.
          5    1    4    4  502    0  0.11010109138E+03 -0.61015107698E+02  0.66608436183E+02  0.14247543599E+03  0.41800000000E+01 0.  1.
         -5    1    4    4    0  502  0.71120917585E+02  0.62404664392E+01 -0.46534609449E+02  0.85323329846E+02  0.41800000000E+01 0.  1.
        -11    1    3    3    0    0 -0.45634524998E+02 -0.32783046190E+02 -0.65051250746E+02  0.85958729707E+02  0.00000000000E+00 0.  1.
         11    1    3    3    0    0 -0.13558748396E+03  0.87557687449E+02 -0.79999941729E+02  0.18013968223E+03  0.00000000000E+00 0. -1.
</event>
<event>
 8    1  0.2184156E-005  0.4056582E+02  0.7561462E-02  0.1504088E+00
         -1   -1    0    0    0  501 -0.00000000000E+00  0.00000000000E+00  0.29966040679E+02  0.29966040679E+02  0.00000000000E+00 0. -1.
          1   -1    0    0  501    0  0.00000000000E+00 -0.00000000000E+00 -0.46127717429E+03  0.46127717429E+03  0.00000000000E+00 0.  1.
         23    2    1    2    0    0  0.12317318135E+01  0.10183040425E+02 -0.90205621048E+02  0.12777830980E+03  0.89916799934E+02 0.  0.
         23    2    1    2    0    0 -0.12317318135E+01 -0.10183040425E+02 -0.34110551257E+03  0.36346490518E+03  0.12509418498E+03 0.  0.
          5    1    4    4  502    0 -0.33723079328E+01  0.73181909875E+01  0.90633506819E+01  0.12827513621E+02  0.41800000000E+01 0.  1.
         -5    1    4    4    0  502  0.21405761193E+01 -0.17501231412E+02 -0.35016886325E+03  0.35063739155E+03  0.41800000000E+01 0.  1.
        -11    1    3    3    0    0 -0.25286221569E+02  0.10586175858E+02  0.59340297544E+01  0.28047688491E+02  0.00000000000E+00 0. -1.
         11    1    3    3    0    0  0.26517953383E+02 -0.40313543283E+00 -0.96139650802E+02  0.99730621306E+02  0.00000000000E+00 0.  1.
</event>
<event>
 8    1  0.2184156E-005  0.1095815E+03  0.7561462E-02  0.1261347E+00
          4   -1    0    0  501    0  0.00000000000E+00  0.00000000000E+00  0.61971638262E+02  0.61971638262E+02  0.00000000000E+00 0. -1.
         -4   -1    0    0    0  501 -0.00000000000E+00 -0.00000000000E+00 -0.25698385732E+03  0.25698385732E+03  0.00000000000E+00 0.  1.
         23    2    1    2    0    0 -0.24302480231E+01  0.47212549749E+02 -0.14009441983E+03  0.17439725306E+03  0.92482562952E+02 0.  0.
         23    2    1    2    0    0  0.24302480231E+01 -0.47212549749E+02 -0.54917799229E+02  0.14455824252E+03  0.12508473067E+03 0.  0.
          5    1    4    4  502    0 -0.19625370115E+02 -0.79398976464E+02 -0.63821458528E+01  0.82143513447E+02  0.41800000000E+01 0.  1.
         -5    1    4    4    0  502  0.22055618138E+02  0.32186426715E+02 -0.48535653376E+02  0.62414729069E+02  0.41800000000E+01 0.  1.
        -11    1    3    3    0    0 -0.36516740774E+02 -0.37568193361E+01 -0.82388200829E+02  0.90196461594E+02  0.00000000000E+00 0.  1.
         11    1    3    3    0    0  0.34086492751E+02  0.50969369085E+02 -0.57706218998E+02  0.84200791469E+02  0.00000000000E+00 0. -1.
</event>
<event>
 8    1  0.2184156E-005  0.9523006E+02  0.7561462E-02  0.1290659E+00
         -1   -1    0    0    0  501 -0.00000000000E+00  0.00000000000E+00  0.16392103237E+02  0.16392103237E+02  0.00000000000E+00 0.  1.
          1   -1    0    0  501    0  0.00000000000E+00 -0.00000000000E+00 -0.85020781783E+03  0.85020781783E+03  0.00000000000E+00 0. -1.
         23    2    1    2    0    0  0.34978177346E+02 -0.22778116781E+01 -0.24442925878E+03  0.26306564060E+03  0.90714978909E+02 0.  0.
         23    2    1    2    0    0 -0.34978177346E+02  0.22778116781E+01 -0.58938645581E+03  0.60353428047E+03  0.12509425283E+03 0.  0.
          5    1    4    4  502    0 -0.73034882871E+02 -0.13248101579E+02 -0.22848491476E+03  0.24027574780E+03  0.41800000000E+01 0.  1.
         -5    1    4    4    0  502  0.38056705525E+02  0.15525913257E+02 -0.36090154106E+03  0.36325853267E+03  0.41800000000E+01 0.  1.
        -11    1    3    3    0    0  0.12515098988E+02  0.31693777610E+02 -0.31925219523E+02  0.46694141854E+02  0.00000000000E+00 0.  1.
         11    1    3    3    0    0  0.22463078359E+02 -0.33971589288E+02 -0.21250403926E+03  0.21637149874E+03  0.00000000000E+00 0. -1.
</event>
<event>
 8    1  0.2184156E-005  0.1860950E+03  0.7561462E-02  0.1162031E+00
          1   -1    0    0  501    0  0.00000000000E+00  0.00000000000E+00  0.10152951449E+04  0.10152951449E+04  0.00000000000E+00 0. -1.
         -1   -1    0    0    0  501 -0.00000000000E+00 -0.00000000000E+00 -0.42776432309E+02  0.42776432309E+02  0.00000000000E+00 0.  1.
         23    2    1    2    0    0  0.42464455858E+02  0.16325442402E+03  0.32753788235E+03  0.37976340184E+03  0.92108305971E+02 0.  0.
         23    2    1    2    0    0 -0.42464455858E+02 -0.16325442402E+03  0.64498083025E+03  0.67830817538E+03  0.12508586020E+03 0.  0.
          5    1    4    4  502    0  0.86196432895E+01 -0.91758814455E+02  0.50219313736E+03  0.51059709938E+03  0.41800000000E+01 0.  1.
         -5    1    4    4    0  502 -0.51084099147E+02 -0.71495609565E+02  0.14278769289E+03  0.16771107601E+03  0.41800000000E+01 0.  1.
        -11    1    3    3    0    0  0.54993108426E+00  0.14700897054E+03  0.24270553869E+03  0.28375679437E+03  0.00000000000E+00 0.  1.
         11    1    3    3    0    0  0.41914524774E+02  0.16245453479E+02  0.84832343660E+02  0.96006607463E+02  0.00000000000E+00 0. -1.
</event>
<event>
 8    1  0.2184156E-005  0.5594056E+02  0.7561462E-02  0.1415703E+00
         -2   -1    0    0    0  501 -0.00000000000E+00  0.00000000000E+00  0.30645987722E+02  0.30645987722E+02  0.00000000000E+00 0.  1.
          2   -1    0    0  501    0  0.00000000000E+00 -0.00000000000E+00 -0.59127214665E+03  0.59127214665E+03  0.00000000000E+00 0. -1.
         23    2    1    2    0    0 -0.26744393314E+01  0.49358088720E+02 -0.58777617674E+02  0.10235772939E+03  0.67667738829E+02 0.  0.
         23    2    1    2    0    0  0.26744393314E+01 -0.49358088720E+02 -0.50184854126E+03  0.51956040499E+03  0.12509069718E+03 0.  0.
          5    1    4    4  502    0  0.31806693659E+01 -0.36302064020E+02 -0.29656775457E+02  0.47169410005E+02  0.41800000000E+01 0. -1.
         -5    1    4    4    0  502 -0.50623003446E+00 -0.13056024700E+02 -0.47219176580E+03  0.47239099498E+03  0.41800000000E+01 0. -1.
        -11    1    3    3    0    0  0.83663327599E+01  0.49736833998E+02 -0.88296373132E+01  0.51202643243E+02  0.00000000000E+00 0.  1.
         11    1    3    3    0    0 -0.11040772091E+02 -0.37874527799E+00 -0.49947980361E+02  0.51155086145E+02  0.00000000000E+00 0. -1.
</event>
<event>
 8    1  0.2184156E-005  0.6473593E+02  0.7561462E-02  0.1378968E+00
          1   -1    0    0  501    0  0.00000000000E+00  0.00000000000E+00  0.37062949405E+02  0.37062949405E+02  0.00000000000E+00 0. -1.
         -1   -1    0    0    0  501 -0.00000000000E+00 -0.00000000000E+00 -0.32667871416E+03  0.32667871416E+03  0.00000000000E+00 0.  1.
         23    2    1    2    0    0  0.28988976260E+01 -0.16885476784E+02 -0.13299155897E+03  0.16256336626E+03  0.91905224871E+02 0.  0.
         23    2    1    2    0    0 -0.28988976260E+01  0.16885476784E+02 -0.15662420579E+03  0.20117829731E+03  0.12509213619E+03 0.  0.
          5    1    4    4  502    0 -0.35706664808E+00 -0.11248700151E+02  0.19420936321E+02  0.22832124721E+02  0.41800000000E+01 0. -1.
         -5    1    4    4    0  502 -0.25418309780E+01  0.28134176935E+02 -0.17604514211E+03  0.17834617259E+03  0.41800000000E+01 0. -1.
        -11    1    3    3    0    0  0.44962694498E+02 -0.12183770619E+02 -0.94475359017E+02  0.10533604143E+03  0.00000000000E+00 0.  1.
         11    1    3    3    0    0 -0.42063796872E+02 -0.47017061644E+01 -0.38516199950E+02  0.57227324826E+02  0.00000000000E+00 0. -1.
</event>
<event>
 8    1  0.2184156E-005  0.1140892E+03  0.7561462E-02  0.1253179E+00
          2   -1    0    0  501    0  0.00000000000E+00  0.00000000000E+00  0.50000476987E+03  0.50000476987E+03  0.00000000000E+00 0. -1.
         -2   -1    0    0    0  501 -0.00000000000E+00 -0.00000000000E+00 -0.32616849884E+02  0.32616849884E+02  0.00000000000E+00 0.  1.
         23    2    1    2    0    0 -0.44387901298E+02 -0.36302412015E+02  0.13638902782E+03  0.17415823302E+03  0.91874764317E+02 0.  0.
         23    2    1    2    0    0  0.44387901298E+02  0.36302412015E+02  0.33099889217E+03  0.35846338674E+03  0.12509029585E+03 0.  0.
          5    1    4    4  502    0  0.96881770668E+01 -0.41867682417E+02  0.17770850079E+03  0.18287850409E+03  0.41800000000E+01 0.  1.
         -5    1    4    4    0  502  0.34699724232E+02  0.78170094432E+02  0.15329039138E+03  0.17558488265E+03  0.41800000000E+01 0.  1.
        -11    1    3    3    0    0 -0.47065290593E+02  0.13919570991E+02  0.32875526461E+02  0.59073651277E+02  0.00000000000E+00 0.  1.
         11    1    3    3    0    0  0.26773892946E+01 -0.50221983006E+02  0.10351350136E+03  0.11508458174E+03  0.00000000000E+00 0. -1.
</event>
<event>
 8    1  0.2184156E-005  0.1329053E+03  0.7561462E-02  0.1223207E+00
          1   -1    0    0  501    0  0.00000000000E+00  0.00000000000E+00  0.15396477483E+03  0.15396477483E+03  0.00000000000E+00 0. -1.
         -1   -1    0    0    0  501 -0.00000000000E+00 -0.00000000000E+00 -0.15111290548E+03  0.15111290548E+03  0.00000000000E+00 0.  1.
         23    2    1    2    0    0  0.84013169698E+02 -0.64047674050E+02 -0.64270646087E+01  0.14108359480E+03  0.93289636775E+02 0.  0.
         23    2    1    2    0    0 -0.84013169698E+02  0.64047674050E+02  0.92789339605E+01  0.16399408551E+03  0.12509054413E+03 0.  0.
          5    1    4    4  502    0 -0.91597498167E+02 -0.35232169384E+01 -0.12192344779E+02  0.92566950902E+02  0.41800000000E+01 0. -1.
         -5    1    4    4    0  502  0.75843284691E+01  0.67570890988E+02  0.21471278739E+02  0.71427134605E+02  0.41800000000E+01 0. -1.
        -11    1    3    3    0    0  0.68520817793E+02 -0.48280610884E+02  0.37561793848E+02  0.91853188380E+02  0.00000000000E+00 0. -1.
         11    1    3    3    0    0  0.15492351905E+02 -0.15767063166E+02 -0.43988858457E+02  0.49230406425E+02  0.00000000000E+00 0.  1.
</event>
<event>
 8    1  0.2184156E-005  0.1359273E+03  0.7561462E-02  0.1218917E+00
          4   -1    0    0  501    0  0.00000000000E+00  0.00000000000E+00  0.30956192218E+03  0.30956192218E+03  0.00000000000E+00 0. -1.
         -4   -1    0    0    0  501 -0.00000000000E+00 -0.00000000000E+00 -0.63266400407E+02  0.63266400407E+02  0.00000000000E+00 0.  1.
         23    2    1    2    0    0  0.64393259449E+02  0.56369689829E+02  0.11774777897E+03  0.17341318982E+03  0.94252645365E+02 0.  0.
         23    2    1    2    0    0 -0.64393259449E+02 -0.56369689829E+02  0.12854774280E+03  0.19941513276E+03  0.12616591933E+03 0.  0.
          5    1    4    4  502    0 -0.10104613655E+03 -0.55911749877E+02  0.97242839167E+02  0.15103008858E+03  0.41800000000E+01 0. -1.
         -5    1    4    4    0  502  0.36652877104E+02 -0.45793995126E+00  0.31304903638E+02  0.48385044185E+02  0.41800000000E+01 0.  1.
        -11    1    3    3    0    0  0.74140134438E+02  0.70452299253E+02  0.73442873345E+02  0.12591323064E+03  0.00000000000E+00 0.  1.
         11    1    3    3    0    0 -0.97468749882E+01 -0.14082609425E+02  0.44304905622E+02  0.47499959183E+02  0.00000000000E+00 0. -1.
</event>
<event>
 7    1  0.2184156E-005  0.1555187E+03  0.7561462E-02  0.1193851E+00
         -2   -1    0    0    0  501 -0.00000000000E+00  0.00000000000E+00  0.10468392873E+03  0.10468392873E+03  0.00000000000E+00 0.  1.
          2   -1    0    0  501    0  0.00000000000E+00 -0.00000000000E+00 -0.35560150691E+03  0.35560150691E+03  0.00000000000E+00 0. -1.
         23    2    1    2    0    0 -0.88715327764E+02  0.18881146390E+02  0.54494878020E+01  0.12890209450E+03  0.91428365294E+02 0.  0.
          5    1    1    2  502    0 -0.18022094196E+02  0.59439050217E+02 -0.14690698659E+03  0.15955228509E+03  0.41800000000E+01 0. -1.
         -5    1    1    2    0  502  0.10673742196E+03 -0.78320196607E+02 -0.10946007939E+03  0.17183105605E+03  0.41800000000E+01 0.  1.
        -11    1    3    3    0    0  0.10127673606E+02  0.14115096926E+02 -0.20230937875E+02  0.26666394230E+02  0.00000000000E+00 0.  1.
         11    1    3    3    0    0 -0.98843001369E+02  0.47660494645E+01  0.25680425677E+02  0.10223570027E+03  0.00000000000E+00 0. -1.
</event>
<event>
 8    1  0.2184156E-005  0.1148023E+03  0.7561462E-02  0.1251927E+00
         -1   -1    0    0    0  501 -0.00000000000E+00  0.00000000000E+00  0.29034861445E+02  0.29034861445E+02  0.00000000000E+00 0.  1.
          1   -1    0    0  501    0  0.00000000000E+00 -0.00000000000E+00 -0.58283342879E+03  0.58283342879E+03  0.00000000000E+00 0. -1.
         23    2    1    2    0    0  0.25311478278E+02 -0.65863447721E+02 -0.27014516187E+03  0.29392763342E+03  0.91849771534E+02 0.  0.
         23    2    1    2    0    0 -0.25311478278E+02  0.65863447721E+02 -0.28365340548E+03  0.31794065681E+03  0.12509333370E+03 0.  0.
          5    1    4    4  502    0  0.36859919664E+02  0.77148829097E+00 -0.26887007689E+02  0.45821746521E+02  0.41800000000E+01 0. -1.
         -5    1    4    4    0  502 -0.62171397942E+02  0.65091959430E+02 -0.25676639779E+03  0.27211891029E+03  0.41800000000E+01 0. -1.
        -11    1    3    3    0    0  0.51471429820E+02 -0.36710098836E+02 -0.92670064203E+02  0.11218146123E+03  0.00000000000E+00 0.  1.
         11    1    3    3    0    0 -0.26159951542E+02 -0.29153348885E+02 -0.17747509766E+03  0.18174617219E+03  0.00000000000E+00 0. -1.
</event>
<event>
 8    1  0.2184156E-005  0.1492470E+03  0.7561462E-02  0.1201401E+00
          1   -1    0    0  501    0  0.00000000000E+00  0.00000000000E+00  0.82649185575E+03  0.82649185575E+03  0.00000000000E+00 0. -1.
         -1   -1    0    0    0  501 -0.00000000000E+00 -0.00000000000E+00 -0.52565473253E+02  0.52565473253E+02  0.00000000000E+00 0.  1.
         23    2    1    2    0    0  0.13118287843E+03  0.43666605088E+02  0.13972630679E+03  0.21801795934E+03  0.94300953294E+02 0.  0.
         23    2    1    2    0    0 -0.13118287843E+03 -0.43666605088E+02  0.63420007570E+03  0.66103936966E+03  0.12509033627E+03 0.  0.
          5    1    4    4  502    0 -0.74520528121E+02 -0.23083695168E+02  0.11929651247E+03  0.14260188071E+03  0.41800000000E+01 0. -1.
         -5    1    4    4    0  502 -0.56662350307E+02 -0.20582909920E+02  0.51490356323E+03  0.51843748895E+03  0.41800000000E+01 0. -1.
        -11    1    3    3    0    0 -0.66129538271E+00  0.27042333157E+02  0.27771819165E+01  0.27192606230E+02  0.00000000000E+00 0.  1.
         11    1    3    3    0    0  0.13184417381E+03  0.16624271930E+02  0.13694912488E+03  0.19082535311E+03  0.00000000000E+00 0. -1.
</event>
<event>
 8    1  0.2184156E-005  0.8706733E+02  0.7561462E-02  0.1310113E+00
          2   -1    0    0  501    0  0.00000000000E+00  0.00000000000E+00  0.82655210832E+02  0.82655210832E+02  0.00000000000E+00 0. -1.
         -2   -1    0    0    0  501 -0.00000000000E+00 -0.00000000000E+00 -0.25127004055E+03  0.25127004055E+03  0.00000000000E+00 0.  1.
         23    2    1    2    0    0 -0.64783982116E+02 -0.29106571095E+02 -0.14995032175E+03  0.18887619109E+03  0.90249430725E+02 0.  0.
         23    2    1    2    0    0  0.64783982116E+02  0.29106571095E+02 -0.18664507966E+02  0.14504906030E+03  0.12508680672E+03 0.  0.
          5    1    4    4  502    0  0.64216526893E+02 -0.28273688542E+01  0.41625554164E+02  0.76693647066E+02  0.41800000000E+01 0. -1.
         -5    1    4    4    0  502  0.56745522322E+00  0.31933939950E+02 -0.60290062130E+02  0.68355413229E+02  0.41800000000E+01 0. -1.
        -11    1    3    3    0    0 -0.92256749246E+00 -0.11126276833E+02  0.10452884348E+02  0.15294049763E+02  0.00000000000E+00 0. -1.
         11    1    3    3    0    0 -0.63861414623E+02 -0.17980294262E+02 -0.16040320610E+03  0.17358214132E+03  0.00000000000E+00 0.  1.
</event>
<event>
 8    1  0.2184156E-005  0.3591298E+03  0.7561462E-02  0.1058929E+00
          1   -1    0    0  501    0  0.00000000000E+00  0.00000000000E+00  0.61309662300E+03  0.61309662300E+03  0.00000000000E+00 0. -1.
         -1   -1    0    0    0  501 -0.00000000000E+00 -0.00000000000E+00 -0.33760297607E+03  0.33760297607E+03  0.00000000000E+00 0.  1.
         23    2    1    2    0    0 -0.19455961612E+03 -0.29347480049E+03 -0.13823695898E+03  0.39320311671E+03  0.10732348955E+03 0.  0.
         23    2    1    2    0    0  0.19455961612E+03  0.29347480049E+03  0.41373060591E+03  0.55749648237E+03  0.12509360830E+03 0.  0.
          5    1    4    4  502    0  0.10077835570E+02  0.22922954205E+02 -0.50356069829E+01  0.25881544331E+02  0.41800000000E+01 0. -1.
         -5    1    4    4    0  502  0.18448178055E+03  0.27055184629E+03  0.41876621289E+03  0.53161493804E+03  0.41800000000E+01 0. -1.
        -11    1    3    3    0    0 -0.29412604028E+01 -0.73883846808E+02 -0.93377681453E+01  0.74529643403E+02  0.00000000000E+00 0.  1.
         11    1    3    3    0    0 -0.19161835572E+03 -0.21959095368E+03 -0.12889919084E+03  0.31867347330E+03  0.00000000000E+00 0. -1.
</event>
<event>
 8    1  0.2184156E-005  0.1116775E+03  0.7561462E-02  0.1257495E+00
         -1   -1    0    0    0  501 -0.00000000000E+00  0.00000000000E+00  0.78824124407E+02  0.78824124407E+02  0.00000000000E+00 0.  1.
          1   -1    0    0  501    0  0.00000000000E+00 -0.00000000000E+00 -0.28421864584E+03  0.28421864584E+03  0.00000000000E+00 0. -1.
         23    2    1    2    0    0  0.54035267996E+02  0.46709662359E+02 -0.38194380145E+01  0.11529201897E+03  0.90421561512E+02 0.  0.
         23    2    1    2    0    0 -0.54035267996E+02 -0.46709662359E+02 -0.20157508342E+03  0.24775075128E+03  0.12508524197E+03 0.  0.
          5    1    4    4  502    0 -0.88595495766E+02 -0.31660482753E+02 -0.91422462967E+02  0.13125199874E+03  0.41800000000E+01 0.  1.
         -5    1    4    4    0  502  0.34560227770E+02 -0.15049179606E+02 -0.11015262045E+03  0.11649875254E+03  0.41800000000E+01 0.  1.
        -11    1    3    3    0    0 -0.12066537983E+02  0.98035374363E+01 -0.31140930360E+02  0.34806152170E+02  0.00000000000E+00 0. -1.
         11    1    3    3    0    0  0.66101805980E+02  0.36906124923E+02  0.27321492346E+02  0.80485866800E+02  0.00000000000E+00 0.  1.
</event>
<event>
 8    1  0.2184156E-005  0.1109325E+03  0.7561462E-02  0.1258853E+00
         -1   -1    0    0    0  501 -0.00000000000E+00  0.00000000000E+00  0.24366258501E+03  0.24366258501E+03  0.00000000000E+00 0.  1.
          1   -1    0    0  501    0  0.00000000000E+00 -0.00000000000E+00 -0.14677992503E+03  0.14677992503E+03  0.00000000000E+00 0. -1.
         23    2    1    2    0    0  0.53243376650E+02  0.90675737932E+02  0.16243671671E+03  0.21436880571E+03  0.92256985209E+02 0.  0.
         23    2    1    2    0    0 -0.53243376650E+02 -0.90675737932E+02 -0.65554056726E+02  0.17607370433E+03  0.12509064072E+03 0.  0.
          5    1    4    4  502    0 -0.48634156959E+02 -0.33611213250E+02  0.28596152996E+02  0.65804310234E+02  0.41800000000E+01 0. -1.
         -5    1    4    4    0  502 -0.46092196918E+01 -0.57064524682E+02 -0.94150209723E+02  0.11026939410E+03  0.41800000000E+01 0. -1.
        -11    1    3    3    0    0  0.26599960612E+02  0.42293301427E+02  0.83164989329E+01  0.50650226107E+02  0.00000000000E+00 0. -1.
         11    1    3    3    0    0  0.26643416038E+02  0.48382436506E+02  0.15412021777E+03  0.16371857960E+03  0.00000000000E+00 0.  1.
</event>
<event>
 8    1  0.2184156E-005  0.1148264E+03  0.7561462E-02  0.1251884E+00
         -2   -1    0    0    0  501 -0.00000000000E+00  0.00000000000E+00  0.14260934799E+02  0.14260934799E+02  0.00000000000E+00 0.  1.
          2   -1    0    0  501    0  0.00000000000E+00 -0.00000000000E+00 -0.97316822963E+03  0.97316822963E+03  0.00000000000E+00 0. -1.
         23    2    1    2    0    0  0.27481031289E+02 -0.36593367109E+02 -0.43459965367E+03  0.44646608366E+03  0.91437537673E+02 0.  0.
         23    2    1    2    0    0 -0.27481031289E+02  0.36593367109E+02 -0.52430764116E+03  0.54096308077E+03  0.12509304766E+03 0.  0.
          5    1    4    4  502    0  0.49173504086E+02  0.25704212592E+02 -0.21436921711E+03  0.22147318956E+03  0.41800000000E+01 0.  1.
         -5    1    4    4    0  502 -0.76654535376E+02  0.10889154517E+02 -0.30993842405E+03  0.31948989121E+03  0.41800000000E+01 0.  1.
        -11    1    3    3    0    0  0.18763506074E+02 -0.64532421941E+02 -0.36206488586E+03  0.36824921482E+03  0.00000000000E+00 0.  1.
         11    1    3    3    0    0  0.87175252152E+01  0.27939054832E+02 -0.72534767804E+02  0.78216868840E+02  0.00000000000E+00 0. -1.
</event>
<event>
 8    1  0.2184156E-005  0.1160851E+03  0.7561462E-02  0.1249699E+00
          2   -1    0    0  501    0  0.00000000000E+00  0.00000000000E+00  0.95811871142E+02  0.95811871142E+02  0.00000000000E+00 0. -1.
         -2   -1    0    0    0  501 -0.00000000000E+00 -0.00000000000E+00 -0.16818719370E+03  0.16818719370E+03  0.00000000000E+00 0.  1.
         23    2    1    2    0    0 -0.40669670759E+02  0.49507337407E+02 -0.61196858499E+02  0.12301370871E+03  0.85336501359E+02 0.  0.
         23    2    1    2    0    0  0.40669670759E+02 -0.49507337407E+02 -0.11178464057E+02  0.14098535613E+03  0.12508762531E+03 0.  0.
          5    1    4    4  502    0  0.55022805187E+02 -0.76688624119E+02 -0.36154212095E+02  0.10115954533E+03  0.41800000000E+01 0.  1.
         -5    1    4    4    0  502 -0.14353134428E+02  0.27181286712E+02  0.24975748039E+02  0.39825810793E+02  0.41800000000E+01 0.  1.
        -11    1    3    3    0    0  0.25116800031E+02  0.27635425133E+02 -0.19817083232E+02  0.42276319068E+02  0.00000000000E+00 0.  1.
         11    1    3    3    0    0 -0.65786470790E+02  0.21871912274E+02 -0.41379775267E+02  0.80737389645E+02  0.00000000000E+00 0. -1.
</event>
<event>
 8    1  0.2184156E-005  0.8753189E+02  0.7561462E-02  0.1308941E+00
         -3   -1    0    0    0  501 -0.00000000000E+00  0.00000000000E+00  0.38235534164E+02  0.38235534164E+02  0.00000000000E+00 0.  1.
          3   -1    0    0  501    0  0.00000000000E+00 -0.00000000000E+00 -0.36277867607E+03  0.36277867607E+03  0.00000000000E+00 0. -1.
         23    2    1    2    0    0 -0.15301446005E+02 -0.23234690388E+02 -0.78229162837E+02  0.12336056410E+03  0.91236186731E+02 0.  0.
         23    2    1    2    0    0  0.15301446005E+02  0.23234690388E+02 -0.24631397907E+03  0.27765364613E+03  0.12508791245E+03 0.  0.
          5    1    4    4  502    0  0.43265972465E+02  0.28917791263E+02 -0.24309029860E+03  0.24863336199E+03  0.41800000000E+01 0. -1.
         -5    1    4    4    0  502 -0.27964526460E+02 -0.56831008742E+01 -0.32236804699E+01  0.29020284138E+02  0.41800000000E+01 0. -1.
        -11    1    3    3    0    0 -0.49416609761E+02  0.50847808521E+01 -0.51666572761E+02  0.71674898378E+02  0.00000000000E+00 0.  1.
         11    1    3    3    0    0  0.34115163756E+02 -0.28319471240E+02 -0.26562590077E+02  0.51685665721E+02  0.00000000000E+00 0. -1.
</event>
<event>
 8    1  0.2184156E-005  0.8602043E+02  0.7561462E-02  0.1312785E+00
          2   -1    0    0  501    0  0.00000000000E+00  0.00000000000E+00  0.63289318209E+03  0.63289318209E+03  0.00000000000E+00 0. -1.
         -2   -1    0    0    0  501 -0.00000000000E+00 -0.00000000000E+00 -0.21646470140E+02  0.21646470140E+02  0.00000000000E+00 0.  1.
         23    2    1    2    0    0  0.39331005897E+02  0.13170329681E+02  0.28287761693E+03  0.30071213496E+03  0.93207598105E+02 0.  0.
         23    2    1    2    0    0 -0.39331005897E+02 -0.13170329681E+02  0.32836909503E+03  0.35382751728E+03  0.12508902351E+03 0.  0.
          5    1    4    4  502    0 -0.15076158091E+02 -0.40010965795E+02  0.28047365913E+02  0.51305896944E+02  0.41800000000E+01 0.  1.
         -5    1    4    4    0  502 -0.24254847806E+02  0.26840636113E+02  0.30032172912E+03  0.30252162033E+03  0.41800000000E+01 0.  1.
        -11    1    3    3    0    0 -0.21929647126E+02 -0.13604482938E+02  0.32162778569E+02  0.41236339609E+02  0.00000000000E+00 0.  1.
         11    1    3    3    0    0  0.61260653023E+02  0.26774812619E+02  0.25071483836E+03  0.25947579535E+03  0.00000000000E+00 0. -1.
</event>
<event>
 8    1  0.2184156E-005  0.2089841E+03  0.7561462E-02  0.1142373E+00
          4   -1    0    0  501    0  0.00000000000E+00  0.00000000000E+00  0.87459882814E+03  0.87459882814E+03  0.00000000000E+00 0. -1.
         -4   -1    0    0    0  501 -0.00000000000E+00 -0.00000000000E+00 -0.55491064036E+02  0.55491064036E+02  0.00000000000E+00 0.  1.
         23    2    1    2    0    0 -0.12248978245E+03 -0.14673123291E+03  0.38694500074E+03  0.44127009375E+03  0.91973151105E+02 0.  0.
         23    2    1    2    0    0  0.12248978245E+03  0.14673123291E+03  0.43216276336E+03  0.48881979842E+03  0.12508532997E+03 0.  0.
          5    1    4    4  502    0  0.99606504604E+02  0.57848307945E+02  0.13364526382E+03  0.17648345937E+03  0.41800000000E+01 0. -1.
         -5    1    4    4    0  502  0.22883277851E+02  0.88882924969E+02  0.29851749955E+03  0.31233633905E+03  0.41800000000E+01 0. -1.
        -11    1    3    3    0    0 -0.98419548109E+02 -0.15648182613E+03  0.35358774650E+03  0.39899531806E+03  0.00000000000E+00 0. -1.
         11    1    3    3    0    0 -0.24070234345E+02  0.97505932134E+01  0.33357254237E+02  0.42274775691E+02  0.00000000000E+00 0.  1.
</event>
<event>
 8    1  0.2184156E-005  0.1173576E+03  0.7561462E-02  0.1247521E+00
         -2   -1    0    0    0  501 -0.00000000000E+00  0.00000000000E+00  0.32356278177E+02  0.32356278177E+02  0.00000000000E+00 0.  1.
          2   -1    0    0  501    0  0.00000000000E+00 -0.00000000000E+00 -0.45911091729E+03  0.45911091729E+03  0.00000000000E+00 0. -1.
         23    2    1    2    0    0 -0.28345571600E+02 -0.58404130337E+02 -0.21058242659E+03  0.23341114183E+03  0.76949911464E+02 0.  0.
         23    2    1    2    0    0  0.28345571600E+02  0.58404130337E+02 -0.21617221252E+03  0.25805605363E+03  0.12509191612E+03 0.  0.
          5    1    4    4  502    0  0.72899155882E+02  0.17062475536E+02 -0.15246438725E+03  0.16990667079E+03  0.41800000000E+01 0. -1.
         -5    1    4    4    0  502 -0.44553584282E+02  0.41341654801E+02 -0.63707825273E+02  0.88149382840E+02  0.41800000000E+01 0. -1.
        -11    1    3    3    0    0  0.29769764642E+01 -0.66409951028E+02 -0.16140526430E+03  0.17455888213E+03  0.00000000000E+00 0.  1.
         11    1    3    3    0    0 -0.31322548064E+02  0.80058206909E+01 -0.49177162285E+02  0.58852259706E+02  0.00000000000E+00 0. -1.
</event>
<event>
 8    1  0.2184156E-005  0.1046602E+03  0.7561462E-02  0.1270790E+00
          3   -1    0    0  501    0  0.00000000000E+00  0.00000000000E+00  0.14945512869E+03  0.14945512869E+03  0.00000000000E+00 0. -1.
         -3   -1    0    0    0  501 -0.00000000000E+00 -0.00000000000E+00 -0.10353230374E+03  0.10353230374E+03  0.00000000000E+00 0.  1.
         23    2    1    2    0    0  0.21583010456E+02 -0.56553499949E+02  0.93697108752E+01  0.10929392151E+03  0.90516546006E+02 0.  0.
         23    2    1    2    0    0 -0.21583010456E+02  0.56553499949E+02  0.36553114071E+02  0.14369351091E+03  0.12509024835E+03 0.  0.
          5    1    4    4  502    0 -0.50025648094E+02  0.73240753149E+01  0.62968472606E+02  0.80862281002E+02  0.41800000000E+01 0. -1.
         -5    1    4    4    0  502  0.28442637638E+02  0.49229424634E+02 -0.26415358535E+02  0.62831229911E+02  0.41800000000E+01 0. -1.
        -11    1    3    3    0    0  0.42016525715E+02 -0.60896521674E+00  0.23410241326E+02  0.48101961194E+02  0.00000000000E+00 0. -1.
         11    1    3    3    0    0 -0.20433515259E+02 -0.55944534732E+02 -0.14040530450E+02  0.61191960318E+02  0.00000000000E+00 0.  1.
</event>
<event>
 8    1  0.2184156E-005  0.8277664E+02  0.7561462E-02  0.1321351E+00
         -2   -1    0    0    0  501 -0.00000000000E+00  0.00000000000E+00  0.22025459881E+03  0.22025459881E+03  0.00000000000E+00 0.  1.
          2   -1    0    0  501    0  0.00000000000E+00 -0.00000000000E+00 -0.52116817078E+02  0.52116817078E+02  0.00000000000E+00 0. -1.
         23    2    1    2    0    0  0.43838356368E+01  0.18400871330E+02  0.66765348438E+02  0.11025434156E+03  0.85677289869E+02 0.  0.
         23    2    1    2    0    0 -0.43838356368E+01 -0.18400871330E+02  0.10137243329E+03  0.16211707433E+03  0.12509102877E+03 0.  0.
          5    1    4    4  502    0 -0.43285860252E+02 -0.14472664540E+02 -0.74265404200E+01  0.46430050821E+02  0.41800000000E+01 0. -1.
         -5    1    4    4    0  502  0.38902024615E+02 -0.39282067893E+01  0.10879897371E+03  0.11568702351E+03  0.41800000000E+01 0. -1.
        -11    1    3    3    0    0 -0.32365662845E+02  0.27576634542E+02  0.57046039571E+02  0.71149543462E+02  0.00000000000E+00 0.  1.
         11    1    3    3    0    0  0.36749498481E+02 -0.91757632122E+01  0.97193088673E+01  0.39104798095E+02  0.00000000000E+00 0. -1.
</event>
<event>
 8    1  0.2184156E-005  0.8041453E+02  0.7561462E-02  0.1327879E+00
          1   -1    0    0  501    0  0.00000000000E+00  0.00000000000E+00  0.88349355144E+02  0.88349355144E+02  0.00000000000E+00 0. -1.
         -1   -1    0    0    0  501 -0.00000000000E+00 -0.00000000000E+00 -0.10937637912E+03  0.10937637912E+03  0.00000000000E+00 0.  1.
         23    2    1    2    0    0  0.48461702865E+01  0.77791465969E+01 -0.26833282295E+02  0.85513204237E+02  0.80675167009E+02 0.  0.
         23    2    1    2    0    0 -0.48461702865E+01 -0.77791465969E+01  0.58062583177E+01  0.11221253003E+03  0.11168678871E+03 0.  0.
          5    1    4    4  502    0  0.11428868924E+02 -0.52672391820E+02  0.26254958268E+02  0.60098212440E+02  0.41800000000E+01 0. -1.
         -5    1    4    4    0  502 -0.16275039211E+02  0.44893245223E+02 -0.20448699950E+02  0.52114317587E+02  0.41800000000E+01 0.  1.
        -11    1    3    3    0    0  0.29700775267E+02 -0.61671012116E+01  0.15822191031E+02  0.34212730347E+02  0.00000000000E+00 0. -1.
         11    1    3    3    0    0 -0.24854604980E+02  0.13946247808E+02 -0.42655473325E+02  0.51300473889E+02  0.00000000000E+00 0.  1.
</event>
<event>
 8    1  0.2184156E-005  0.1718459E+03  0.7561462E-02  0.1175936E+00
         -2   -1    0    0    0  501 -0.00000000000E+00  0.00000000000E+00  0.23705853217E+02  0.23705853217E+02  0.00000000000E+00 0. -1.
          2   -1    0    0  501    0  0.00000000000E+00 -0.00000000000E+00 -0.17883728965E+04  0.17883728965E+04  0.00000000000E+00 0.  1.
         23    2    1    2    0    0  0.92178033876E+02 -0.11500664272E+03 -0.43543549078E+03  0.46886339817E+03  0.92225277007E+02 0.  0.
         23    2    1    2    0    0 -0.92178033876E+02  0.11500664272E+03 -0.13292315525E+04  0.13432153516E+04  0.12509053781E+03 0.  0.
          5    1    4    4  502    0 -0.53814595394E+02  0.13561158116E+03 -0.89980553020E+03  0.91156677002E+03  0.41800000000E+01 0.  1.
         -5    1    4    4    0  502 -0.38363438482E+02 -0.20604938445E+02 -0.42942602232E+03  0.43164858154E+03  0.41800000000E+01 0.  1.
        -11    1    3    3    0    0  0.82941837824E+01 -0.41908173566E+02 -0.24173404444E+03  0.24548001291E+03  0.00000000000E+00 0.  1.
         11    1    3    3    0    0  0.83883850093E+02 -0.73098469152E+02 -0.19370144634E+03  0.22338338526E+03  0.00000000000E+00 0. -1.
</event>
<event>
 7    1  0.2184156E-005  0.1704581E+03  0.7561462E-02  0.1177371E+00
          1   -1    0    0  501    0  0.00000000000E+00  0.00000000000E+00  0.12261152380E+04  0.12261152380E+04  0.00000000000E+00 0. -1.
         -1   -1    0    0    0  501 -0.00000000000E+00 -0.00000000000E+00 -0.38105104418E+02  0.38105104418E+02  0.00000000000E+00 0.  1.
         23    2    1    2    0    0 -0.35911052939E+02  0.88155472411E+02  0.20490923594E+03  0.24334270654E+03  0.90370829447E+02 0.  0.
          5    1    1    2  502    0  0.56870309698E+02 -0.15584940201E+03  0.88118449442E+03  0.89667544509E+03  0.41800000000E+01 0. -1.
         -5    1    1    2    0  502 -0.20959256759E+02  0.67693929597E+02  0.10191640322E+03  0.12420219077E+03  0.41800000000E+01 0.  1.
        -11    1    3    3    0    0  0.24211301942E+01  0.49418293222E+02  0.25147084894E+02  0.55501400478E+02  0.00000000000E+00 0.  1.
         11    1    3    3    0    0 -0.38332183133E+02  0.38737179189E+02  0.17976215104E+03  0.18784130606E+03  0.00000000000E+00 0. -1.
</event>
<event>
 8    1  0.2184156E-005  0.1075843E+03  0.7561462E-02  0.1265110E+00
         -1   -1    0    0    0  501 -0.00000000000E+00  0.00000000000E+00  0.27462071486E+03  0.27462071486E+03  0.00000000000E+00 0.  1.
          1   -1    0    0  501    0  0.00000000000E+00 -0.00000000000E+00 -0.45920540767E+02  0.45920540767E+02  0.00000000000E+00 0. -1.
         23    2    1    2    0    0  0.14179206172E+02  0.20241752897E+02  0.11565867203E+03  0.15013847682E+03  0.92487055095E+02 0.  0.
         23    2    1    2    0    0 -0.14179206172E+02 -0.20241752897E+02  0.11304150207E+03  0.17040277881E+03  0.12509175587E+03 0.  0.
          5    1    4    4  502    0 -0.39001833968E+02 -0.64784657959E+02  0.75541229871E+02  0.10696796142E+03  0.41800000000E+01 0.  1.
         -5    1    4    4    0  502  0.24822627796E+02  0.44542905062E+02  0.37500272198E+02  0.63434817387E+02  0.41800000000E+01 0.  1.
        -11    1    3    3    0    0  0.27378427920E+02 -0.27460036581E+02  0.80732007712E+02  0.89561649123E+02  0.00000000000E+00 0.  1.
         11    1    3    3    0    0 -0.13199221748E+02  0.47701789478E+02  0.34926664315E+02  0.60576827702E+02  0.00000000000E+00 0. -1.
</event>
<event>
 8    1  0.2184156E-005  0.2770766E+03  0.7561462E-02  0.1097296E+00
          4   -1    0    0  501    0  0.00000000000E+00  0.00000000000E+00  0.61734195038E+03  0.61734195038E+03  0.00000000000E+00 0.  1.
         -4   -1    0    0    0  501 -0.00000000000E+00 -0.00000000000E+00 -0.13870943438E+03  0.13870943438E+03  0.00000000000E+00 0. -1.
         23    2    1    2    0    0  0.25364728411E+03  0.54367401480E+02  0.13145928319E+03  0.30497527981E+03  0.91845626365E+02 0.  0.
         23    2    1    2    0    0 -0.25364728411E+03 -0.54367401480E+02  0.34717323282E+03  0.45107610495E+03  0.12509052639E+03 0.  0.
          5    1    4    4  502    0 -0.23658829183E+03 -0.61865537912E+01  0.28640051398E+03  0.37155755959E+03  0.41800000000E+01 0.  1.
         -5    1    4    4    0  502 -0.17058992279E+02 -0.48180847689E+02  0.60772718832E+02  0.79518545358E+02  0.41800000000E+01 0.  1.
        -11    1    3    3    0    0  0.21388868909E+03  0.22227885106E+02  0.72490202471E+02  0.22693012064E+03  0.00000000000E+00 0. -1.
         11    1    3    3    0    0  0.39758595013E+02  0.32139516374E+02  0.58969080715E+02  0.78045159174E+02  0.00000000000E+00 0.  1.
</event>
<event>
 6    1  0.2184156E-005  0.2113363E+03  0.7561462E-02  0.1140512E+00
          2   -1    0    0  501    0  0.00000000000E+00  0.00000000000E+00  0.85002133466E+03  0.85002133466E+03  0.00000000000E+00 0. -1.
         -2   -1    0    0    0  501 -0.00000000000E+00 -0.00000000000E+00 -0.32686417406E+03  0.32686417406E+03  0.00000000000E+00 0.  1.
          5    1    1    2  502    0 -0.39030863475E+02 -0.19926679156E+03  0.42464459743E+03  0.47071346810E+03  0.41800000000E+01 0. -1.
         -5    1    1    2    0  502  0.51609365042E+02  0.97485825967E+02  0.38448130177E+03  0.40001294559E+03  0.41800000000E+01 0.  1.
        -11    1    1    2    0    0 -0.25769452159E+02  0.75698466412E+02 -0.21627865465E+03  0.23058789851E+03  0.00000000000E+00 0.  1.
         11    1    1    2    0    0  0.13190950592E+02  0.26082499181E+02 -0.69690083951E+02  0.75571196511E+02  0.00000000000E+00 0. -1.
</event>
<event>
 8    1  0.2184156E-005  0.1150821E+03  0.7561462E-02  0.1251438E+00
          2   -1    0    0  501    0  0.00000000000E+00  0.00000000000E+00  0.32823791274E+03  0.32823791274E+03  0.00000000000E+00 0. -1.
         -2   -1    0    0    0  501 -0.00000000000E+00 -0.00000000000E+00 -0.47808236083E+02  0.47808236083E+02  0.00000000000E+00 0.  1.
         23    2    1    2    0    0  0.22213480842E+02 -0.35509154308E+02  0.56506084610E+02  0.11615402875E+03  0.92436367443E+02 0.  0.
         23    2    1    2    0    0 -0.22213480842E+02  0.35509154308E+02  0.22392359204E+03  0.25989212007E+03  0.12509116767E+03 0.  0.
          5    1    4    4  502    0  0.41374960054E+02  0.49198995745E+02  0.87076071126E+02  0.10831501772E+03  0.41800000000E+01 0.  1.
         -5    1    4    4    0  502 -0.63588440895E+02 -0.13689841437E+02  0.13684752092E+03  0.15157710235E+03  0.41800000000E+01 0.  1.
        -11    1    3    3    0    0 -0.69483981333E+01  0.28973324940E+02  0.24079720457E+02  0.38308833603E+02  0.00000000000E+00 0.  1.
         11    1    3    3    0    0  0.29161878975E+02 -0.64482479248E+02  0.32426364153E+02  0.77845195147E+02  0.00000000000E+00 0. -1.
</event>
<event>
 8    1  0.2184156E-005  0.1469319E+03  0.7561462E-02  0.1204295E+00
          2   -1    0    0  501    0  0.00000000000E+00  0.00000000000E+00  0.51103929410E+03  0.51103929410E+03  0.00000000000E+00 0. -1.
         -2   -1    0    0    0  501 -0.00000000000E+00 -0.00000000000E+00 -0.62091612007E+02  0.62091612007E+02  0.00000000000E+00 0.  1.
         23    2    1    2    0    0  0.12715314061E+03 -0.20398490635E+01  0.11359300980E+03  0.19328622340E+03  0.91017087011E+02 0.  0.
         23    2    1    2    0    0 -0.12715314061E+03  0.20398490635E+01  0.33535467229E+03  0.37984468271E+03  0.12508854705E+03 0.  0.
          5    1    4    4  502    0 -0.21237858506E+02  0.39132904049E+02  0.28360137241E+02  0.52954703262E+02  0.41800000000E+01 0.  1.
         -5    1    4    4    0  502 -0.10591528211E+03 -0.37093054985E+02  0.30699453505E+03  0.32688997945E+03  0.41800000000E+01 0.  1.
        -11    1    3    3    0    0  0.46601535655E+02  0.23695960123E+02  0.76447988633E+00  0.52285620213E+02  0.00000000000E+00 0.  1.
         11    1    3    3    0    0  0.80551604957E+02 -0.25735809187E+02  0.11282852992E+03  0.14100060319E+03  0.00000000000E+00 0. -1.
</event>
<event>
 8    1  0.2184156E-005  0.1649385E+03  0.7561462E-02  0.1183231E+00
          2   -1    0    0  501    0  0.00000000000E+00  0.00000000000E+00  0.29840022642E+04  0.29840022642E+04  0.00000000000E+00 0. -1.
         -2   -1    0    0    0  501 -0.00000000000E+00 -0.00000000000E+00 -0.14016535983E+02  0.14016535983E+02  0.00000000000E+00 0.  1.
         23    2    1    2    0    0  0.38488829522E+02  0.12766329262E+03  0.61456192001E+03  0.63550989113E+03  0.91690577034E+02 0.  0.
         23    2    1    2    0    0 -0.38488829522E+02 -0.12766329262E+03  0.23554238082E+04  0.23625089090E+04  0.12509085822E+03 0.  0.
          5    1    4    4  502    0 -0.72059920926E+02 -0.52566423083E+02  0.16259137133E+04  0.16283638219E+04  0.41800000000E+01 0. -1.
         -5    1    4    4    0  502  0.33571091403E+02 -0.75096869534E+02  0.72951009489E+03  0.73414508712E+03  0.41800000000E+01 0. -1.
        -11    1    3    3    0    0  0.55158662176E+02  0.37910106033E+02  0.19612991715E+03  0.20723561121E+03  0.00000000000E+00 0. -1.
         11    1    3    3    0    0 -0.16669832653E+02  0.89753186585E+02  0.41843200286E+03  0.42827427992E+03  0.00000000000E+00 0.  1.
</event>
<event>
 8    1  0.3347765E-005  0.3446602E+03  0.7561462E-02  0.1064828E+00
          2   -1    0    0  501    0  0.00000000000E+00  0.00000000000E+00  0.14455996603E+04  0.14455996603E+04  0.00000000000E+00 0. -1.
         -2   -1    0    0    0  501 -0.00000000000E+00 -0.00000000000E+00 -0.87484855656E+02  0.87484855656E+02  0.00000000000E+00 0.  1.
         23    2    1    2    0    0 -0.31242070667E+03  0.11798318490E+03  0.55995982192E+03  0.65888503677E+03  0.95119712091E+02 0.  0.
         23    2    1    2    0    0  0.31242070667E+03 -0.11798318490E+03  0.79815498276E+03  0.87419947923E+03  0.12508646252E+03 0.  0.
          5    1    4    4  502    0  0.99262834395E+02  0.18568538982E+02  0.27541611206E+03  0.29337588196E+03  0.41800000000E+01 0. -1.
         -5    1    4    4    0  502  0.21315787228E+03 -0.13655172388E+03  0.52273887070E+03  0.58082359727E+03  0.41800000000E+01 0. -1.
        -11    1    3    3    0    0 -0.88189827556E+02  0.46633710627E+02  0.94924467910E+02  0.13770549466E+03  0.00000000000E+00 0. -1.
         11    1    3    3    0    0 -0.22423087912E+03  0.71349474275E+02  0.46503535401E+03  0.52117954211E+03  0.00000000000E+00 0.  1.
</event>
<event>
 8    1  0.2184156E-005  0.1240153E+03  0.7561462E-02  0.1236616E+00
          3   -1    0    0  501    0  0.00000000000E+00  0.00000000000E+00  0.61490660909E+02  0.61490660909E+02  0.00000000000E+00 0. -1.
         -3   -1    0    0    0  501 -0.00000000000E+00 -0.00000000000E+00 -0.29262622643E+03  0.29262622643E+03  0.00000000000E+00 0.  1.
         23    2    1    2    0    0  0.52587801518E+02 -0.56739547449E+02 -0.11813244038E+03  0.16863897512E+03  0.92189898285E+02 0.  0.
         23    2    1    2    0    0 -0.52587801518E+02  0.56739547449E+02 -0.11300312514E+03  0.18547791222E+03  0.12508995370E+03 0.  0.
          5    1    4    4  502    0  0.39462092502E+02  0.30697720817E+02 -0.50155585338E+02  0.70941257027E+02  0.41800000000E+01 0. -1.
         -5    1    4    4    0  502 -0.92049894020E+02  0.26041826632E+02 -0.62847539800E+02  0.11453665519E+03  0.41800000000E+01 0. -1.
        -11    1    3    3    0    0  0.41796926842E+00 -0.49424057824E+02 -0.13094834227E+02  0.51131075419E+02  0.00000000000E+00 0. -1.
         11    1    3    3    0    0  0.52169832249E+02 -0.73154896248E+01 -0.10503760615E+03  0.11750789970E+03  0.00000000000E+00 0.  1.
</event>
<event>
 8    1  0.2184156E-005  0.1135454E+03  0.7561462E-02  0.1254142E+00
         -2   -1    0    0    0  501 -0.00000000000E+00  0.00000000000E+00  0.68904835138E+02  0.68904835138E+02  0.00000000000E+00 0.  1.
          2   -1    0    0  501    0  0.00000000000E+00 -0.00000000000E+00 -0.24274116439E+03  0.24274116439E+03  0.00000000000E+00 0. -1.
         23    2    1    2    0    0 -0.39383792448E+02  0.58104092003E+02 -0.58076579887E+02  0.12732450966E+03  0.88946461505E+02 0.  0.
         23    2    1    2    0    0  0.39383792448E+02 -0.58104092003E+02 -0.11575974936E+03  0.18432148987E+03  0.12508766301E+03 0.  0.
          5    1    4    4  502    0 -0.29203176327E+02 -0.18241357477E+02  0.95295678066E+01  0.35970233427E+02  0.41800000000E+01 0. -1.
         -5    1    4    4    0  502  0.68586968775E+02 -0.39862734525E+02 -0.12528931717E+03  0.14835125644E+03  0.41800000000E+01 0. -1.
        -11    1    3    3    0    0 -0.36843337170E+02 -0.15027577286E+02 -0.25229553130E+02  0.47114646598E+02  0.00000000000E+00 0. -1.
         11    1    3    3    0    0 -0.25404552781E+01  0.73131669288E+02 -0.32847026757E+02  0.80209863063E+02  0.00000000000E+00 0.  1.
</event>
<event>
 8    1  0.2443895E-005  0.1203606E+03  0.7561462E-02  0.1242503E+00
          2   -1    0    0  501    0  0.00000000000E+00  0.00000000000E+00  0.21315562062E+02  0.21315562062E+02  0.00000000000E+00 0. -1.
         -2   -1    0    0    0  501 -0.00000000000E+00 -0.00000000000E+00 -0.80029620448E+03  0.80029620448E+03  0.00000000000E+00 0.  1.
         23    2    1    2    0    0 -0.55787867040E+02  0.41621034203E+02 -0.40357994306E+03  0.41984323067E+03  0.92449831289E+02 0.  0.
         23    2    1    2    0    0  0.55787867040E+02 -0.41621034203E+02 -0.37540069936E+03  0.40176853587E+03  0.12509066607E+03 0.  0.
          5    1    4    4  502    0  0.48976257408E+02  0.26937112011E+02 -0.75525588371E+02  0.94052478393E+02  0.41800000000E+01 0.  1.
         -5    1    4    4    0  502  0.68116096322E+01 -0.68558146214E+02 -0.29987511099E+03  0.30771605748E+03  0.41800000000E+01 0.  1.
        -11    1    3    3    0    0 -0.30875760366E+02 -0.28013919668E+02 -0.13832898512E+03  0.14447491270E+03  0.00000000000E+00 0. -1.
         11    1    3    3    0    0 -0.24912106674E+02  0.69634953871E+02 -0.26525095794E+03  0.27536831798E+03  0.00000000000E+00 0.  1.
</event>
<event>
 8    1  0.2184156E-005  0.1953946E+03  0.7561462E-02  0.1153684E+00
          2   -1    0    0  501    0  0.00000000000E+00  0.00000000000E+00  0.67647818317E+03  0.67647818317E+03  0.00000000000E+00 0.  1.
         -2   -1    0    0    0  501 -0.00000000000E+00 -0.00000000000E+00 -0.63001947044E+02  0.63001947044E+02  0.00000000000E+00 0. -1.
         23    2    1    2    0    0 -0.12993685799E+01  0.17160428569E+03  0.25590356732E+03  0.32359799919E+03  0.98890394303E+02 0.  0.
         23    2    1    2    0    0  0.12993685799E+01 -0.17160428569E+03  0.35757266881E+03  0.41588213102E+03  0.12510001679E+03 0.  0.
          5    1    4    4  502    0 -0.50630959696E+02 -0.44357591785E+02  0.17332347349E+03  0.18598276504E+03  0.41800000000E+01 0. -1.
         -5    1    4    4    0  502  0.51930328276E+02 -0.12724669391E+03  0.18424919531E+03  0.22989936598E+03  0.41800000000E+01 0. -1.
        -11    1    3    3    0    0 -0.30300302439E+02  0.13876861248E+03  0.23607415592E+03  0.27551015087E+03  0.00000000000E+00 0.  1.
         11    1    3    3    0    0  0.29000933859E+02  0.32835673213E+02  0.19829411406E+02  0.48087848327E+02  0.00000000000E+00 0. -1.
</event>
<event>
 8    1  0.2184156E-005  0.8344032E+02  0.7561462E-02  0.1319562E+00
          2   -1    0    0  501    0  0.00000000000E+00  0.00000000000E+00  0.72189171925E+03  0.72189171925E+03  0.00000000000E+00 0.  1.
         -2   -1    0    0    0  501 -0.00000000000E+00 -0.00000000000E+00 -0.26816245745E+02  0.26816245745E+02  0.00000000000E+00 0. -1.
         23    2    1    2    0    0  0.17042171506E+02 -0.42152077652E+01  0.92678844700E+02  0.13321003439E+03  0.94060307359E+02 0.  0.
         23    2    1    2    0    0 -0.17042171506E+02  0.42152077652E+01  0.60239662880E+03  0.61549793060E+03  0.12509116915E+03 0.  0.
          5    1    4    4  502    0 -0.44034207619E+02 -0.16319855150E+02  0.86864743806E+02  0.98834736956E+02  0.41800000000E+01 0.  1.
         -5    1    4    4    0  502  0.26992036112E+02  0.20535062915E+02  0.51553188500E+03  0.51666319365E+03  0.41800000000E+01 0.  1.
        -11    1    3    3    0    0  0.42509836500E+02  0.22963303366E+02  0.80749095126E+02  0.94100031160E+02  0.00000000000E+00 0.  1.
         11    1    3    3    0    0 -0.25467664994E+02 -0.27178511131E+02  0.11929749574E+02  0.39110003227E+02  0.00000000000E+00 0. -1.
</event>
<event>
 7    1  0.2184156E-005  0.8406982E+02  0.7561462E-02  0.1317883E+00
         -3   -1    0    0    0  501 -0.00000000000E+00  0.00000000000E+00  0.54978368914E+02  0.54978368914E+02  0.00000000000E+00 0.  1.
          3   -1    0    0  501    0  0.00000000000E+00 -0.00000000000E+00 -0.29587493807E+03  0.29587493807E+03  0.00000000000E+00 0. -1.
         23    2    1    2    0    0  0.20122428019E+02  0.46908636335E+02 -0.86077460672E+02  0.13604193645E+03  0.92156101071E+02 0.  0.
          5    1    1    2  502    0  0.29666973587E+02 -0.57191622076E+02 -0.15032332421E+03  0.16360191062E+03  0.41800000000E+01 0. -1.
         -5    1    1    2    0  502 -0.49789401606E+02  0.10282985742E+02 -0.44957842696E+01  0.51209459910E+02  0.41800000000E+01 0.  1.
        -11    1    3    3    0    0  0.93318473538E+00  0.17020878058E+02  0.18762033708E+02  0.25349458228E+02  0.00000000000E+00 0.  1.
         11    1    3    3    0    0  0.19189243284E+02  0.29887758277E+02 -0.10483949438E+03  0.11069247822E+03  0.00000000000E+00 0. -1.
</event>
<event>
 8    1  0.2184156E-005  0.1159953E+03  0.7561462E-02  0.1249854E+00
          1   -1    0    0  501    0  0.00000000000E+00  0.00000000000E+00  0.16313707716E+03  0.16313707716E+03  0.00000000000E+00 0. -1.
         -1   -1    0    0    0  501 -0.00000000000E+00 -0.00000000000E+00 -0.13896259942E+03  0.13896259942E+03  0.00000000000E+00 0.  1.
         23    2    1    2    0    0 -0.24670977188E+02  0.92219034936E+02 -0.29219346046E+02  0.13593181045E+03  0.92253343503E+02 0.  0.
         23    2    1    2    0    0  0.24670977188E+02 -0.92219034936E+02  0.53393823787E+02  0.16616786614E+03  0.12509137379E+03 0.  0.
          5    1    4    4  502    0  0.56990099697E+02 -0.85903512286E+02 -0.14496461234E+00  0.10317353489E+03  0.41800000000E+01 0.  1.
         -5    1    4    4    0  502 -0.32319122509E+02 -0.63155226506E+01  0.53538788400E+02  0.62994331248E+02  0.41800000000E+01 0.  1.
        -11    1    3    3    0    0 -0.23675539445E+02  0.81836637189E+02  0.18422474667E+02  0.87161653996E+02  0.00000000000E+00 0. -1.
         11    1    3    3    0    0 -0.99543774310E+00  0.10382397747E+02 -0.47641820713E+02  0.48770156449E+02  0.00000000000E+00 0.  1.
</event>
<event>
 8    1  0.2184156E-005  0.8074478E+02  0.7561462E-02  0.1326951E+00
          2   -1    0    0  501    0  0.00000000000E+00  0.00000000000E+00  0.13994037707E+03  0.13994037707E+03  0.00000000000E+00 0. -1.
         -2   -1    0    0    0  501 -0.00000000000E+00 -0.00000000000E+00 -0.10203264639E+03  0.10203264639E+03  0.00000000000E+00 0.  1.
         23    2    1    2    0    0 -0.82345892477E+01  0.82471285471E+01 -0.37082620054E+02  0.95663514834E+02  0.87410318447E+02 0.  0.
         23    2    1    2    0    0  0.82345892477E+01 -0.82471285471E+01  0.74990350729E+02  0.14630950863E+03  0.12508835287E+03 0.  0.
          5    1    4    4  502    0  0.18141258806E+02  0.54958869385E+02  0.18626312721E+02  0.60942550986E+02  0.41800000000E+01 0.  1.
         -5    1    4    4    0  502 -0.99066695581E+01 -0.63205997932E+02  0.56364038007E+02  0.85366957640E+02  0.41800000000E+01 0.  1.
        -11    1    3    3    0    0  0.15116864864E+02  0.28775568195E+01  0.24866043940E+02  0.29242436250E+02  0.00000000000E+00 0. -1.
         11    1    3    3    0    0 -0.23351454112E+02  0.53695717276E+01 -0.61948663994E+02  0.66421078585E+02  0.00000000000E+00 0.  1.
</event>
<event>
 8    1  0.2184156E-005  0.1038843E+03  0.7561462E-02  0.1272333E+00
         -2   -1    0    0    0  501 -0.00000000000E+00  0.00000000000E+00  0.18177329209E+02  0.18177329209E+02  0.00000000000E+00 0. -1.
          2   -1    0    0  501    0  0.00000000000E+00 -0.00000000000E+00 -0.77077279150E+03  0.77077279150E+03  0.00000000000E+00 0.  1.
         23    2    1    2    0    0  0.34319877800E+02  0.15223204563E+02 -0.25857551062E+03  0.27795745887E+03  0.94812732691E+02 0.  0.
         23    2    1    2    0    0 -0.34319877800E+02 -0.15223204563E+02 -0.49401995166E+03  0.51099266183E+03  0.12509271695E+03 0.  0.
          5    1    4    4  502    0  0.23811259786E+02  0.25451992761E+02 -0.33474150602E+03  0.33657707629E+03  0.41800000000E+01 0. -1.
         -5    1    4    4    0  502 -0.58131137586E+02 -0.40675197323E+02 -0.15927844564E+03  0.17441558554E+03  0.41800000000E+01 0. -1.
        -11    1    3    3    0    0  0.33144264790E+02  0.53696702266E+02 -0.17203852981E+03  0.18324610190E+03  0.00000000000E+00 0. -1.
         11    1    3    3    0    0  0.11756130096E+01 -0.38473497703E+02 -0.86536980817E+02  0.94711356977E+02  0.00000000000E+00 0.  1.
</event>
<event>
 8    1  0.2184156E-005  0.8877267E+02  0.7561462E-02  0.1305851E+00
          2   -1    0    0  501    0  0.00000000000E+00  0.00000000000E+00  0.31152094123E+03  0.31152094123E+03  0.00000000000E+00 0. -1.
         -2   -1    0    0    0  501 -0.00000000000E+00 -0.00000000000E+00 -0.40368212112E+02  0.40368212112E+02  0.00000000000E+00 0.  1.
         23    2    1    2    0    0  0.30532340721E+01 -0.18709927952E+02  0.65707594517E+02  0.11061507167E+03  0.86941488727E+02 0.  0.
         23    2    1    2    0    0 -0.30532340721E+01  0.18709927952E+02  0.20544513460E+03  0.24127408166E+03  0.12508435358E+03 0.  0.
          5    1    4    4  502    0 -0.30427903439E+02 -0.33032827019E+02  0.25096735002E+02  0.51617278855E+02  0.41800000000E+01 0. -1.
         -5    1    4    4    0  502  0.27374669367E+02  0.51742754971E+02  0.18034839960E+03  0.18965680281E+03  0.41800000000E+01 0. -1.
        -11    1    3    3    0    0 -0.33291817077E+02 -0.16967230999E+02  0.22109038394E+01  0.37431538946E+02  0.00000000000E+00 0.  1.
         11    1    3    3    0    0  0.36345051149E+02 -0.17426969528E+01  0.63496690678E+02  0.73183532729E+02  0.00000000000E+00 0. -1.
</event>
<event>
 8    1  0.2184156E-005  0.1301969E+03  0.7561462E-02  0.1227164E+00
          2   -1    0    0  501    0  0.00000000000E+00  0.00000000000E+00  0.12330082744E+03  0.12330082744E+03  0.00000000000E+00 0.  1.
         -2   -1    0    0    0  501 -0.00000000000E+00 -0.00000000000E+00 -0.14784119636E+03  0.14784119636E+03  0.00000000000E+00 0. -1.
         23    2    1    2    0    0  0.52661700114E+02  0.60813278472E+02 -0.22009688723E+02  0.12239581042E+03  0.89581239738E+02 0.  0.
         23    2    1    2    0    0 -0.52661700114E+02 -0.60813278472E+02 -0.25306801943E+01  0.14874621338E+03  0.12509005618E+03 0.  0.
          5    1    4    4  502    0  0.34974480200E+02  0.68576000980E+00 -0.19501030910E+02  0.40267196806E+02  0.41800000000E+01 0. -1.
         -5    1    4    4    0  502 -0.87636180314E+02 -0.61499038482E+02  0.16970350716E+02  0.10847901658E+03  0.41800000000E+01 0. -1.
        -11    1    3    3    0    0 -0.17752354240E+02  0.41298213623E+02 -0.20259500462E+02  0.49306550158E+02  0.00000000000E+00 0. -1.
         11    1    3    3    0    0  0.70414054354E+02  0.19515064850E+02 -0.17501882609E+01  0.73089260261E+02  0.00000000000E+00 0.  1.
</event>
<event>
 8    1  0.2184156E-005  0.1619685E+03  0.7561462E-02  0.1186492E+00
          2   -1    0    0  501    0  0.00000000000E+00  0.00000000000E+00  0.13949258272E+04  0.13949258272E+04  0.00000000000E+00 0. -1.
         -2   -1    0    0    0  501 -0.00000000000E+00 -0.00000000000E+00 -0.22952011877E+02  0.22952011877E+02  0.00000000000E+00 0.  1.
         23    2    1    2    0    0 -0.45973863204E+02 -0.11656986449E+03  0.41374783079E+03  0.44343100367E+03  0.98699838505E+02 0.  0.
         23    2    1    2    0    0  0.45973863204E+02  0.11656986449E+03  0.95822598454E+03  0.97444683542E+03  0.12508984056E+03 0.  0.
          5    1    4    4  502    0  0.37891018197E+02 -0.17645030874E+02  0.26159110624E+03  0.26494236286E+03  0.41800000000E+01 0. -1.
         -5    1    4    4    0  502  0.80828450072E+01  0.13421489536E+03  0.69663487830E+03  0.70950447256E+03  0.41800000000E+01 0. -1.
        -11    1    3    3    0    0 -0.11413947691E+02  0.10629417918E+02  0.95601318557E+01  0.18293683289E+02  0.00000000000E+00 0.  1.
         11    1    3    3    0    0 -0.34559915513E+02 -0.12719928240E+03  0.40418769894E+03  0.42513732038E+03  0.00000000000E+00 0. -1.
</event>
<event>
 8    1  0.2184156E-005  0.9393635E+02  0.7561462E-02  0.1293590E+00
         -2   -1    0    0    0  501 -0.00000000000E+00  0.00000000000E+00  0.96013071241E+01  0.96013071241E+01  0.00000000000E+00 0.  1.
          2   -1    0    0  501    0  0.00000000000E+00 -0.00000000000E+00 -0.13394299443E+04  0.13394299443E+04  0.00000000000E+00 0. -1.
         23    2    1    2    0    0  0.26668089759E+02 -0.44032845108E+00 -0.43032685224E+03  0.44048167966E+03  0.90174993548E+02 0.  0.
         23    2    1    2    0    0 -0.26668089759E+02  0.44032845108E+00 -0.89950178490E+03  0.90854957172E+03  0.12508989703E+03 0.  0.
          5    1    4    4  502    0  0.90789405786E+01 -0.39498739725E+02 -0.11141646906E+03  0.11863254014E+03  0.41800000000E+01 0. -1.
         -5    1    4    4    0  502 -0.35747030338E+02  0.39939068176E+02 -0.78808531584E+03  0.78991703159E+03  0.41800000000E+01 0. -1.
        -11    1    3    3    0    0  0.57946541952E+02  0.12894244016E+02 -0.24749458368E+03  0.25451450293E+03  0.00000000000E+00 0.  1.
         11    1    3    3    0    0 -0.31278452193E+02 -0.13334572467E+02 -0.18283226856E+03  0.18596717673E+03  0.00000000000E+00 0. -1.
</event>
<event>
 8    1  0.2184156E-005  0.8427385E+02  0.7561462E-02  0.1317342E+00
          2   -1    0    0  501    0  0.00000000000E+00  0.00000000000E+00  0.31366204624E+03  0.31366204624E+03  0.00000000000E+00 0.  1.
         -2   -1    0    0    0  501 -0.00000000000E+00 -0.00000000000E+00 -0.43073662581E+02  0.43073662581E+02  0.00000000000E+00 0. -1.
         23    2    1    2    0    0 -0.18114498717E+02 -0.51978551426E+01  0.64152946149E+02  0.11462652303E+03  0.93104707301E+02 0.  0.
         23    2    1    2    0    0  0.18114498717E+02  0.51978551426E+01  0.20643543751E+03  0.24210918578E+03  0.12508443237E+03 0.  0.
          5    1    4    4  502    0  0.15656270838E+02  0.41895113571E+02  0.19944207845E+03  0.20443809433E+03  0.41800000000E+01 0. -1.
         -5    1    4    4    0  502  0.24582278790E+01 -0.36697258428E+02  0.69933590600E+01  0.37671091455E+02  0.41800000000E+01 0. -1.
        -11    1    3    3    0    0  0.33562680694E+02 -0.91380126724E+01  0.49986073525E+02  0.60897983196E+02  0.00000000000E+00 0. -1.
         11    1    3    3    0    0 -0.51677179411E+02  0.39401575299E+01  0.14166872624E+02  0.53728539838E+02  0.00000000000E+00 0.  1.
</event>
<event>
 7    1  0.2184156E-005  0.2077877E+03  0.7561462E-02  0.1143330E+00
          2   -1    0    0  501    0  0.00000000000E+00  0.00000000000E+00  0.17764453297E+04  0.17764453297E+04  0.00000000000E+00 0. -1.
         -2   -1    0    0    0  501 -0.00000000000E+00 -0.00000000000E+00 -0.68221567128E+02  0.68221567128E+02  0.00000000000E+00 0.  1.
         23    2    1    2    0    0  0.11029124940E+03 -0.29390210428E+02  0.83261123465E+02  0.16710987406E+03  0.89248816034E+02 0.  0.
          5    1    1    2  502    0 -0.74699467874E+02  0.14029569235E+03  0.14932078075E+04  0.15016490670E+04  0.41800000000E+01 0. -1.
         -5    1    1    2    0  502 -0.35591781526E+02 -0.11090548193E+03  0.13175483160E+03  0.17590795571E+03  0.41800000000E+01 0.  1.
        -11    1    3    3    0    0  0.97458208666E+01 -0.37888487311E+02  0.50550867199E+01  0.39447083502E+02  0.00000000000E+00 0. -1.
         11    1    3    3    0    0  0.10054542853E+03  0.84982768825E+01  0.78206036745E+02  0.12766279055E+03  0.00000000000E+00 0.  1.
</event>
<event>
 7    1  0.2184156E-005  0.1205169E+03  0.7561462E-02  0.1242247E+00
         -1   -1    0    0    0  501 -0.00000000000E+00  0.00000000000E+00  0.91028952739E+02  0.91028952739E+02  0.00000000000E+00 0.  1.
          1   -1    0    0  501    0  0.00000000000E+00 -0.00000000000E+00 -0.43999528600E+03  0.43999528600E+03  0.00000000000E+00 0. -1.
         23    2    1    2    0    0 -0.28385564031E+02  0.45814308114E+02  0.27448420112E+02  0.11134954439E+03  0.93491251977E+02 0.  0.
          5    1    1    2  502    0  0.78539706215E+02 -0.34360203052E+02 -0.35248192195E+03  0.36278104513E+03  0.41800000000E+01 0. -1.
         -5    1    1    2    0  502 -0.50154142184E+02 -0.11454105063E+02 -0.23932831421E+02  0.56893649213E+02  0.41800000000E+01 0.  1.
        -11    1    3    3    0    0 -0.60468907567E+02  0.25565268808E+02  0.32185139611E+02  0.73116037662E+02  0.00000000000E+00 0.  1.
         11    1    3    3    0    0  0.32083343536E+02  0.20249039307E+02 -0.47367194991E+01  0.38233506730E+02  0.00000000000E+00 0. -1.
</event>
<event>
 8    1  0.2184156E-005  0.1040443E+03  0.7561462E-02  0.1272014E+00
          2   -1    0    0  501    0  0.00000000000E+00  0.00000000000E+00  0.71451513864E+03  0.71451513864E+03  0.00000000000E+00 0. -1.
         -2   -1    0    0    0  501 -0.00000000000E+00 -0.00000000000E+00 -0.21736415503E+02  0.21736415503E+02  0.00000000000E+00 0.  1.
         23    2    1    2    0    0  0.96276407883E+01 -0.15855216840E+02  0.25297034816E+03  0.27861475208E+03  0.11527403724E+03 0.  0.
         23    2    1    2    0    0 -0.96276407883E+01  0.15855216840E+02  0.43980837499E+03  0.45763680207E+03  0.12512376485E+03 0.  0.
          5    1    4    4  502    0 -0.52701328877E+02  0.25461513108E+02  0.10827600509E+03  0.12315390531E+03  0.41800000000E+01 0.  1.
         -5    1    4    4    0  502  0.43073688088E+02 -0.96062962689E+01  0.33153236990E+03  0.33448289676E+03  0.41800000000E+01 0.  1.
        -11    1    3    3    0    0 -0.43966815106E+02  0.10726079256E+02  0.52031600719E+02  0.68959532192E+02  0.00000000000E+00 0.  1.
         11    1    3    3    0    0  0.53594455894E+02 -0.26581296095E+02  0.20093874744E+03  0.20965521989E+03  0.00000000000E+00 0. -1.
</event>
<event>
 8    1  0.2184156E-005  0.8835745E+02  0.7561462E-02  0.1306879E+00
          1   -1    0    0  501    0  0.00000000000E+00  0.00000000000E+00  0.50957267685E+03  0.50957267685E+03  0.00000000000E+00 0. -1.
         -1   -1    0    0    0  501 -0.00000000000E+00 -0.00000000000E+00 -0.48879348369E+02  0.48879348369E+02  0.00000000000E+00 0.  1.
         23    2    1    2    0    0  0.59754022324E+02 -0.59033356850E+01  0.43480946497E+02  0.11877120682E+03  0.92793395807E+02 0.  0.
         23    2    1    2    0    0 -0.59754022324E+02  0.59033356850E+01  0.41721238199E+03  0.43968081840E+03  0.12509059849E+03 0.  0.
          5    1    4    4  502    0 -0.68097959869E+01  0.38970484298E+02  0.36909936052E+02  0.54266819947E+02  0.41800000000E+01 0.  1.
         -5    1    4    4    0  502 -0.52944226338E+02 -0.33067148613E+02  0.38030244594E+03  0.38541399845E+03  0.41800000000E+01 0.  1.
        -11    1    3    3    0    0  0.54696466198E+02  0.11804510283E+02 -0.14609472562E+02  0.57831536087E+02  0.00000000000E+00 0.  1.
         11    1    3    3    0    0  0.50575561262E+01 -0.17707845968E+02  0.58090419060E+02  0.60939670735E+02  0.00000000000E+00 0. -1.
</event>
<event>
 8    1  0.2184156E-005  0.1442846E+03  0.7561462E-02  0.1207677E+00
          1   -1    0    0  501    0  0.00000000000E+00  0.00000000000E+00  0.30170100045E+03  0.30170100045E+03  0.00000000000E+00 0. -1.
         -1   -1    0    0    0  501 -0.00000000000E+00 -0.00000000000E+00 -0.10069760725E+03  0.10069760725E+03  0.00000000000E+00 0.  1.
         23    2    1    2    0    0  0.81394358480E+02  0.84105422231E+02  0.14621135271E+02  0.14924999063E+03  0.91449540543E+02 0.  0.
         23    2    1    2    0    0 -0.81394358480E+02 -0.84105422231E+02  0.18638225794E+03  0.25314861707E+03  0.12508841916E+03 0.  0.
          5    1    4    4  502    0  0.13087564337E+02 -0.53813987955E+02  0.19329804600E+02  0.58807681350E+02  0.41800000000E+01 0.  1.
         -5    1    4    4    0  502 -0.94481922817E+02 -0.30291434277E+02  0.16705245334E+03  0.19434093572E+03  0.41800000000E+01 0.  1.
        -11    1    3    3    0    0  0.59045503843E+02  0.92591804964E+02 -0.15381144410E+02  0.11088820259E+03  0.00000000000E+00 0.  1.
         11    1    3    3    0    0  0.22348854637E+02 -0.84863827329E+01  0.30002279681E+02  0.38361788039E+02  0.00000000000E+00 0. -1.
</event>
<event>
 8    1  0.2184156E-005  0.8394814E+02  0.7561462E-02  0.1318206E+00
          1   -1    0    0  501    0  0.00000000000E+00  0.00000000000E+00  0.64179424844E+03  0.64179424844E+03  0.00000000000E+00 0. -1.
         -1   -1    0    0    0  501 -0.00000000000E+00 -0.00000000000E+00 -0.27836866731E+02  0.27836866731E+02  0.00000000000E+00 0.  1.
         23    2    1    2    0    0  0.64791113212E+02 -0.12692461153E+02  0.17954095013E+03  0.21276977188E+03  0.93150609928E+02 0.  0.
         23    2    1    2    0    0 -0.64791113212E+02  0.12692461153E+02  0.43441643158E+03  0.45686134329E+03  0.12508262888E+03 0.  0.
          5    1    4    4  502    0 -0.59313189813E+02 -0.23390553801E+02  0.89353317230E+02  0.10984835089E+03  0.41800000000E+01 0.  1.
         -5    1    4    4    0  502 -0.54779233989E+01  0.36083014954E+02  0.34506311435E+03  0.34701299240E+03  0.41800000000E+01 0.  1.
        -11    1    3    3    0    0  0.25734113683E+02 -0.11509736730E+02 -0.84177436074E+00  0.28203319498E+02  0.00000000000E+00 0.  1.
         11    1    3    3    0    0  0.39056999529E+02 -0.11827244229E+01  0.18038272449E+03  0.18456645238E+03  0.00000000000E+00 0. -1.
</event>
<event>
 8    1  0.2184156E-005  0.1783557E+03  0.7561462E-02  0.1169404E+00
         -4   -1    0    0    0  501 -0.00000000000E+00  0.00000000000E+00  0.19814458422E+03  0.19814458422E+03  0.00000000000E+00 0.  1.
          4   -1    0    0  501    0  0.00000000000E+00 -0.00000000000E+00 -0.20374629042E+03  0.20374629042E+03  0.00000000000E+00 0. -1.
         23    2    1    2    0    0 -0.14880194955E+03 -0.32183439633E+02  0.70180948704E+02  0.19078109037E+03  0.91072854927E+02 0.  0.
         23    2    1    2    0    0  0.14880194955E+03  0.32183439633E+02 -0.75782654901E+02  0.21110978427E+03  0.12508611535E+03 0.  0.
          5    1    4    4  502    0  0.42828520282E+02  0.68160853443E+02 -0.53986425496E+02  0.97016445150E+02  0.41800000000E+01 0. -1.
         -5    1    4    4    0  502  0.10597342927E+03 -0.35977413810E+02 -0.21796229406E+02  0.11409333912E+03  0.41800000000E+01 0. -1.
        -11    1    3    3    0    0 -0.22987666501E+02 -0.30618257791E+02  0.50583958499E+02  0.63440108597E+02  0.00000000000E+00 0.  1.
         11    1    3    3    0    0 -0.12581428305E+03 -0.15651818415E+01  0.19596990205E+02  0.12734098177E+03  0.00000000000E+00 0. -1.
</event>
<event>
 8    1  0.2184156E-005  0.9045396E+02  0.7561462E-02  0.1301756E+00
         -1   -1    0    0    0  501 -0.00000000000E+00  0.00000000000E+00  0.48109857256E+02  0.48109857256E+02  0.00000000000E+00 0.  1.
          1   -1    0    0  501    0  0.00000000000E+00 -0.00000000000E+00 -0.25626439837E+03  0.25626439837E+03  0.00000000000E+00 0. -1.
         23    2    1    2    0    0  0.33627538578E+01 -0.82646554518E+01 -0.56850388262E+02  0.10784826123E+03  0.91212214982E+02 0.  0.
         23    2    1    2    0    0 -0.33627538578E+01  0.82646554518E+01 -0.15130415285E+03  0.19652599439E+03  0.12509958896E+03 0.  0.
          5    1    4    4  502    0  0.57399659882E+02 -0.61429708887E+01 -0.10024379045E+03  0.11575295663E+03  0.41800000000E+01 0.  1.
         -5    1    4    4    0  502 -0.60762413740E+02  0.14407626340E+02 -0.51060362398E+02  0.80773037757E+02  0.41800000000E+01 0.  1.
        -11    1    3    3    0    0  0.29960656185E+02  0.55507996039E+01 -0.69061168721E+02  0.75484417733E+02  0.00000000000E+00 0.  1.
         11    1    3    3    0    0 -0.26597902327E+02 -0.13815455056E+02  0.12210780459E+02  0.32363843499E+02  0.00000000000E+00 0. -1.
</event>
<event>
 8    1  0.2184156E-005  0.1256535E+03  0.7561462E-02  0.1234051E+00
         -1   -1    0    0    0  501 -0.00000000000E+00  0.00000000000E+00  0.49499065312E+03  0.49499065312E+03  0.00000000000E+00 0.  1.
          1   -1    0    0  501    0  0.00000000000E+00 -0.00000000000E+00 -0.40355647094E+02  0.40355647094E+02  0.00000000000E+00 0. -1.
         23    2    1    2    0    0 -0.51748062608E+02  0.42667121344E+02  0.32067263358E+03  0.34018207773E+03  0.91621847037E+02 0.  0.
         23    2    1    2    0    0  0.51748062608E+02 -0.42667121344E+02  0.13396237244E+03  0.19516422248E+03  0.12507922001E+03 0.  0.
          5    1    4    4  502    0 -0.30635687442E+02 -0.50221970667E+02  0.59599180950E+02  0.83847042003E+02  0.41800000000E+01 0.  1.
         -5    1    4    4    0  502  0.82383750050E+02  0.75548493231E+01  0.74363191492E+02  0.11131718048E+03  0.41800000000E+01 0.  1.
        -11    1    3    3    0    0  0.23733277278E+02  0.21594063509E+01  0.38370644152E+02  0.45168991783E+02  0.00000000000E+00 0. -1.
         11    1    3    3    0    0 -0.75481339885E+02  0.40507714993E+02  0.28230198943E+03  0.29501308595E+03  0.00000000000E+00 0.  1.
</event>
<event>
 8    1  0.2184156E-005  0.1007994E+03  0.7561462E-02  0.1278624E+00
          1   -1    0    0  501    0  0.00000000000E+00  0.00000000000E+00  0.15712698997E+03  0.15712698997E+03  0.00000000000E+00 0. -1.
         -1   -1    0    0    0  501 -0.00000000000E+00 -0.00000000000E+00 -0.89532256750E+02  0.89532256750E+02  0.00000000000E+00 0.  1.
         23    2    1    2    0    0  0.25710239228E+02  0.37813399359E+02  0.14651626771E+02  0.10333593712E+03  0.91502875155E+02 0.  0.
         23    2    1    2    0    0 -0.25710239228E+02 -0.37813399359E+02  0.52943106452E+02  0.14332330960E+03  0.12509088289E+03 0.  0.
          5    1    4    4  502    0 -0.57061856470E+02  0.24507256698E+01  0.68994440643E+02  0.89664746471E+02  0.41800000000E+01 0.  1.
         -5    1    4    4    0  502  0.31351617242E+02 -0.40264125029E+02 -0.16051334190E+02  0.53658563131E+02  0.41800000000E+01 0.  1.
        -11    1    3    3    0    0 -0.29484369785E+02  0.17674724356E+02 -0.15020611404E+02  0.37514566632E+02  0.00000000000E+00 0.  1.
         11    1    3    3    0    0  0.55194609013E+02  0.20138675003E+02  0.29672238175E+02  0.65821370491E+02  0.00000000000E+00 0. -1.
</event>
<event>
 8    1  0.2184156E-005  0.1011042E+03  0.7561462E-02  0.1277991E+00
         -2   -1    0    0    0  501 -0.00000000000E+00  0.00000000000E+00  0.27087942463E+03  0.27087942463E+03  0.00000000000E+00 0. -1.
          2   -1    0    0  501    0  0.00000000000E+00 -0.00000000000E+00 -0.87439101336E+02  0.87439101336E+02  0.00000000000E+00 0.  1.
         23    2    1    2    0    0 -0.67655031942E+00 -0.56249746350E+02  0.19371324563E+03  0.22077807729E+03  0.89742109374E+02 0.  0.
         23    2    1    2    0    0  0.67655031942E+00  0.56249746350E+02 -0.10272922340E+02  0.13754044867E+03  0.12508936966E+03 0.  0.
          5    1    4    4  502    0 -0.38067413083E+02  0.35956002407E+02 -0.54152731723E+02  0.75445031652E+02  0.41800000000E+01 0.  1.
         -5    1    4    4    0  502  0.38743963402E+02  0.20293743943E+02  0.43879809383E+02  0.62095417019E+02  0.41800000000E+01 0.  1.
        -11    1    3    3    0    0  0.39856668232E+02 -0.46521623488E+01  0.67448022995E+02  0.78482051598E+02  0.00000000000E+00 0. -1.
         11    1    3    3    0    0 -0.40533218551E+02 -0.51597584001E+02  0.12626522263E+03  0.14229602569E+03  0.00000000000E+00 0.  1.
</event>
<event>
 8    1  0.2184156E-005  0.2058206E+03  0.7561462E-02  0.1144919E+00
          4   -1    0    0  501    0  0.00000000000E+00  0.00000000000E+00  0.13849471648E+04  0.13849471648E+04  0.00000000000E+00 0. -1.
         -4   -1    0    0    0  501 -0.00000000000E+00 -0.00000000000E+00 -0.40084628494E+02  0.40084628494E+02  0.00000000000E+00 0.  1.
         23    2    1    2    0    0 -0.16385209412E+03 -0.95186498062E+02  0.37652093437E+03  0.43042753992E+03  0.87131366004E+02 0.  0.
         23    2    1    2    0    0  0.16385209412E+03  0.95186498062E+02  0.96834160193E+03  0.99460425337E+03  0.12507671499E+03 0.  0.
          5    1    4    4  502    0  0.25049955771E+02  0.72058952741E+02  0.49194274742E+03  0.49784046852E+03  0.41800000000E+01 0. -1.
         -5    1    4    4    0  502  0.13880213835E+03  0.23127545322E+02  0.47639885451E+03  0.49676378485E+03  0.41800000000E+01 0. -1.
        -11    1    3    3    0    0 -0.10823523257E+03 -0.85665240671E+02  0.32854119777E+03  0.35636037611E+03  0.00000000000E+00 0. -1.
         11    1    3    3    0    0 -0.55616861548E+02 -0.95212573910E+01  0.47979736605E+02  0.74067163814E+02  0.00000000000E+00 0.  1.
</event>
<event>
 7    1  0.2184156E-005  0.1583834E+03  0.7561462E-02  0.1190534E+00
          1   -1    0    0  501    0  0.00000000000E+00  0.00000000000E+00  0.66866516456E+02  0.66866516456E+02  0.00000000000E+00 0. -1.
         -1   -1    0    0    0  501 -0.00000000000E+00 -0.00000000000E+00 -0.55072669263E+03  0.55072669263E+03  0.00000000000E+00 0.  1.
         23    2    1    2    0    0 -0.72851969638E+02 -0.32009181913E+02 -0.58405199429E+02  0.15934366174E+03  0.12508892042E+03 0.  0.
          5    1    3    3  502    0 -0.10337978835E+03 -0.54950912607E+00 -0.48195127325E+02  0.11413993735E+03  0.41800000000E+01 0.  1.
         -5    1    3    3    0  502  0.30527818712E+02 -0.31459672787E+02 -0.10210072105E+02  0.45203724399E+02  0.41800000000E+01 0.  1.
        -11    1    1    2    0    0  0.35449485844E+02 -0.60142531302E+02 -0.19997364038E+03  0.21180945910E+03  0.00000000000E+00 0.  1.
         11    1    1    2    0    0  0.37402483794E+02  0.92151713215E+02 -0.22548133636E+03  0.24644008824E+03  0.00000000000E+00 0. -1.
</event>
<event>
 8    1  0.2184156E-005  0.8695712E+02  0.7561462E-02  0.1310392E+00
         -3   -1    0    0    0  501 -0.00000000000E+00  0.00000000000E+00  0.27585700647E+02  0.27585700647E+02  0.00000000000E+00 0.  1.
          3   -1    0    0  501    0  0.00000000000E+00 -0.00000000000E+00 -0.59263572099E+03  0.59263572099E+03  0.00000000000E+00 0. -1.
         23    2    1    2    0    0  0.52383920067E+02  0.44750184442E+02 -0.23652719801E+03  0.26200160073E+03  0.89179982588E+02 0.  0.
         23    2    1    2    0    0 -0.52383920067E+02 -0.44750184442E+02 -0.32852282233E+03  0.35821982091E+03  0.12509013235E+03 0.  0.
          5    1    4    4  502    0  0.13103180717E+02 -0.36120632873E+02 -0.26035192838E+03  0.26320522881E+03  0.41800000000E+01 0.  1.
         -5    1    4    4    0  502 -0.65487100784E+02 -0.86295515691E+01 -0.68170893953E+02  0.95014592099E+02  0.41800000000E+01 0.  1.
        -11    1    3    3    0    0  0.35936682826E+02  0.33682253765E+02 -0.23710694829E+03  0.24216862786E+03  0.00000000000E+00 0. -1.
         11    1    3    3    0    0  0.16447237242E+02  0.11067930677E+02  0.57975027893E+00  0.19832972867E+02  0.00000000000E+00 0.  1.
</event>
<event>
 8    1  0.2184156E-005  0.1967956E+03  0.7561462E-02  0.1152471E+00
         -3   -1    0    0    0  501 -0.00000000000E+00  0.00000000000E+00  0.15732445644E+04  0.15732445644E+04  0.00000000000E+00 0.  1.
          3   -1    0    0  501    0  0.00000000000E+00 -0.00000000000E+00 -0.25307880434E+02  0.25307880434E+02  0.00000000000E+00 0. -1.
         23    2    1    2    0    0  0.15670010621E+03 -0.50702560812E+02  0.84655844174E+03  0.86731946634E+03  0.91957536192E+02 0.  0.
         23    2    1    2    0    0 -0.15670010621E+03  0.50702560812E+02  0.70137824223E+03  0.73123297849E+03  0.12507820433E+03 0.  0.
          5    1    4    4  502    0 -0.95430350586E+02  0.90701362262E+02  0.49504035234E+03  0.51226566523E+03  0.41800000000E+01 0. -1.
         -5    1    4    4    0  502 -0.61269755628E+02 -0.39998801451E+02  0.20633788989E+03  0.21896731326E+03  0.41800000000E+01 0. -1.
        -11    1    3    3    0    0  0.10472857489E+02 -0.40681159437E+02  0.19732604680E+03  0.20174787786E+03  0.00000000000E+00 0. -1.
         11    1    3    3    0    0  0.14622724873E+03 -0.10021401374E+02  0.64923239494E+03  0.66557158848E+03  0.00000000000E+00 0.  1.
</event>
<event>
 8    1  0.2184156E-005  0.2009828E+03  0.7561462E-02  0.1148912E+00
          3   -1    0    0  501    0  0.00000000000E+00  0.00000000000E+00  0.17019527269E+03  0.17019527269E+03  0.00000000000E+00 0. -1.
         -3   -1    0    0    0  501 -0.00000000000E+00 -0.00000000000E+00 -0.26222120829E+03  0.26222120829E+03  0.00000000000E+00 0.  1.
         23    2    1    2    0    0 -0.12554226366E+03  0.11247362314E+03 -0.85449682984E+02  0.22240887289E+03  0.11727268457E+03 0.  0.
         23    2    1    2    0    0  0.12554226366E+03 -0.11247362314E+03 -0.65762526148E+01  0.21000760810E+03  0.12509505382E+03 0.  0.
          5    1    4    4  502    0  0.13051189090E+03 -0.48412849606E+02 -0.28187439371E+02  0.14208857031E+03  0.41800000000E+01 0. -1.
         -5    1    4    4    0  502 -0.49696272361E+01 -0.64060773539E+02  0.21611186756E+02  0.67919037790E+02  0.41800000000E+01 0. -1.
        -11    1    3    3    0    0 -0.33797103220E+02  0.10020392684E+03 -0.74158050807E+02  0.12916070470E+03  0.00000000000E+00 0.  1.
         11    1    3    3    0    0 -0.91745160444E+02  0.12269696308E+02 -0.11291632177E+02  0.93248168184E+02  0.00000000000E+00 0. -1.
</event>
<event>
 8    1  0.2184156E-005  0.9370639E+02  0.7561462E-02  0.1294116E+00
          1   -1    0    0  501    0  0.00000000000E+00  0.00000000000E+00  0.43253498265E+03  0.43253498265E+03  0.00000000000E+00 0. -1.
         -1   -1    0    0    0  501 -0.00000000000E+00 -0.00000000000E+00 -0.39988795256E+02  0.39988795256E+02  0.00000000000E+00 0.  1.
         23    2    1    2    0    0 -0.62450055020E+02  0.40511524901E+02  0.14715999168E+03  0.18720365199E+03  0.88588662632E+02 0.  0.
         23    2    1    2    0    0  0.62450055020E+02 -0.40511524901E+02  0.24538619572E+03  0.28532012592E+03  0.12510793812E+03 0.  0.
          5    1    4    4  502    0  0.42648499548E+02 -0.14550903871E+02  0.83629671696E+01  0.46022113565E+02  0.41800000000E+01 0.  1.
         -5    1    4    4    0  502  0.19801555472E+02 -0.25960621030E+02  0.23702322855E+03  0.23929801235E+03  0.41800000000E+01 0.  1.
        -11    1    3    3    0    0  0.11653707166E+02  0.32713173919E+02  0.20712859117E+02  0.40434925144E+02  0.00000000000E+00 0.  1.
         11    1    3    3    0    0 -0.74103762185E+02  0.77983509819E+01  0.12644713256E+03  0.14676872685E+03  0.00000000000E+00 0. -1.
</event>
<event>
 8    1  0.2184156E-005  0.1382288E+03  0.7561462E-02  0.1215732E+00
         -1   -1    0    0    0  501 -0.00000000000E+00  0.00000000000E+00  0.16333411937E+02  0.16333411937E+02  0.00000000000E+00 0.  1.
          1   -1    0    0  501    0  0.00000000000E+00 -0.00000000000E+00 -0.16909960944E+04  0.16909960944E+04  0.00000000000E+00 0. -1.
         23    2    1    2    0    0 -0.17672978323E+02 -0.86407983470E+02 -0.32571306302E+03  0.34972475534E+03  0.91868010260E+02 0.  0.
         23    2    1    2    0    0  0.17672978323E+02  0.86407983470E+02 -0.13489496194E+04  0.13576047509E+04  0.12508761069E+03 0.  0.
          5    1    4    4  502    0 -0.15755793469E+02  0.10906599102E+03 -0.10787352515E+04  0.10843573445E+04  0.41800000000E+01 0.  1.
         -5    1    4    4    0  502  0.33428771793E+02 -0.22658007555E+02 -0.27021436792E+03  0.27324740643E+03  0.41800000000E+01 0.  1.
        -11    1    3    3    0    0 -0.43665478414E+02 -0.98943911924E+01 -0.14528808862E+03  0.15203026566E+03  0.00000000000E+00 0. -1.
         11    1    3    3    0    0  0.25992500090E+02 -0.76513592278E+02 -0.18042497440E+03  0.19769448969E+03  0.00000000000E+00 0.  1.
</event>
<event>
 8    1  0.2184156E-005  0.1069977E+03  0.7561462E-02  0.1266233E+00
         -2   -1    0    0    0  501 -0.00000000000E+00  0.00000000000E+00  0.13692566060E+02  0.13692566060E+02  0.00000000000E+00 0.  1.
          2   -1    0    0  501    0  0.00000000000E+00 -0.00000000000E+00 -0.18997458398E+04  0.18997458398E+04  0.00000000000E+00 0. -1.
         23    2    1    2    0    0 -0.28775012303E+02 -0.24050663101E+02 -0.20129606941E+03  0.22415110705E+03  0.91198549902E+02 0.  0.
         23    2    1    2    0    0  0.28775012303E+02  0.24050663101E+02 -0.16847572044E+04  0.16892872988E+04  0.11780621649E+03 0.  0.
          5    1    4    4  502    0  0.63337199928E+02  0.49509865997E+02 -0.10933701769E+04  0.10963296238E+04  0.41800000000E+01 0. -1.
         -5    1    4    4    0  502 -0.34562187625E+02 -0.25459202896E+02 -0.59138702743E+03  0.59295767508E+03  0.41800000000E+01 0.  1.
        -11    1    3    3    0    0  0.28412427040E+02 -0.22575075813E+00 -0.11146172937E+03  0.11502623218E+03  0.00000000000E+00 0. -1.
         11    1    3    3    0    0 -0.57187439344E+02 -0.23824912343E+02 -0.89834340033E+02  0.10912487487E+03  0.00000000000E+00 0.  1.
</event>
<event>
 8    1  0.2184156E-005  0.1010137E+03  0.7561462E-02  0.1278179E+00
         -2   -1    0    0    0  501 -0.00000000000E+00  0.00000000000E+00  0.53438668411E+02  0.53438668411E+02  0.00000000000E+00 0.  1.
          2   -1    0    0  501    0  0.00000000000E+00 -0.00000000000E+00 -0.30928737857E+03  0.30928737857E+03  0.00000000000E+00 0. -1.
         23    2    1    2    0    0  0.34208179874E+02  0.38626438068E+02 -0.46437721365E+02  0.12006566598E+03  0.97964794149E+02 0.  0.
         23    2    1    2    0    0 -0.34208179874E+02 -0.38626438068E+02 -0.20941098880E+03  0.24266038101E+03  0.11121554295E+03 0.  0.
          5    1    4    4  502    0 -0.76666959750E+01  0.23613962870E+02 -0.15127046271E+03  0.15335130504E+03  0.41800000000E+01 0. -1.
         -5    1    4    4    0  502 -0.26541483899E+02 -0.62240400937E+02 -0.58140526091E+02  0.89309075970E+02  0.41800000000E+01 0.  1.
        -11    1    3    3    0    0  0.35516441451E+02  0.69557096838E+02 -0.42336569676E+02  0.88836886854E+02  0.00000000000E+00 0. -1.
         11    1    3    3    0    0 -0.13082615763E+01 -0.30930658771E+02 -0.41011516890E+01  0.31228779123E+02  0.00000000000E+00 0.  1.
</event>
<event>
 8    1  0.2184156E-005  0.9946898E+02  0.7561462E-02  0.1281417E+00
         -1   -1    0    0    0  501 -0.00000000000E+00  0.00000000000E+00  0.11135156079E+03  0.11135156079E+03  0.00000000000E+00 0.  1.
          1   -1    0    0  501    0  0.00000000000E+00 -0.00000000000E+00 -0.12708698284E+03  0.12708698284E+03  0.00000000000E+00 0. -1.
         23    2    1    2    0    0  0.37884367106E+02  0.26044917218E+02 -0.25124529793E+02  0.10483103771E+03  0.90800558848E+02 0.  0.
         23    2    1    2    0    0 -0.37884367106E+02 -0.26044917218E+02  0.93891077510E+01  0.13360750592E+03  0.12509695164E+03 0.  0.
          5    1    4    4  502    0 -0.61991129437E+02 -0.86375172737E+00 -0.39342296178E+02  0.73545461209E+02  0.41800000000E+01 0. -1.
         -5    1    4    4    0  502  0.24106762331E+02 -0.25181165491E+02  0.48731403929E+02  0.60062044708E+02  0.41800000000E+01 0. -1.
        -11    1    3    3    0    0  0.67741087703E+02  0.23596918723E+02 -0.19673443228E+02  0.74382214976E+02  0.00000000000E+00 0. -1.
         11    1    3    3    0    0 -0.29856720597E+02  0.24479984957E+01 -0.54510865654E+01  0.30448822739E+02  0.00000000000E+00 0.  1.
</event>
<event>
 8    1  0.2184156E-005  0.9372288E+02  0.7561462E-02  0.1294079E+00
          2   -1    0    0  501    0  0.00000000000E+00  0.00000000000E+00  0.54982198466E+03  0.54982198466E+03  0.00000000000E+00 0. -1.
         -2   -1    0    0    0  501 -0.00000000000E+00 -0.00000000000E+00 -0.23437419413E+02  0.23437419413E+02  0.00000000000E+00 0.  1.
         23    2    1    2    0    0 -0.52111081487E+01  0.31441922223E+01  0.14569966050E+03  0.17250330100E+03  0.92151810592E+02 0.  0.
         23    2    1    2    0    0  0.52111081487E+01 -0.31441922223E+01  0.38068490475E+03  0.40075610307E+03  0.12508963126E+03 0.  0.
          5    1    4    4  502    0  0.39241781592E+02  0.30271303770E+02  0.31806854303E+03  0.32193375051E+03  0.41800000000E+01 0. -1.
         -5    1    4    4    0  502 -0.34030673443E+02 -0.33415495992E+02  0.62616361725E+02  0.78822352560E+02  0.41800000000E+01 0. -1.
        -11    1    3    3    0    0 -0.41557904285E+02 -0.20634324847E+02  0.55123748159E+02  0.72051803458E+02  0.00000000000E+00 0.  1.
         11    1    3    3    0    0  0.36346796136E+02  0.23778517069E+02  0.90575912338E+02  0.10045149755E+03  0.00000000000E+00 0. -1.
</event>
<event>
 8    1  0.2184156E-005  0.9953196E+02  0.7561462E-02  0.1281283E+00
         -1   -1    0    0    0  501 -0.00000000000E+00  0.00000000000E+00  0.35506629728E+02  0.35506629728E+02  0.00000000000E+00 0.  1.
          1   -1    0    0  501    0  0.00000000000E+00 -0.00000000000E+00 -0.39630610306E+03  0.39630610306E+03  0.00000000000E+00 0. -1.
         23    2    1    2    0    0 -0.16998019806E+02 -0.40320208289E+02 -0.11955054505E+03  0.15656186818E+03  0.91129763919E+02 0.  0.
         23    2    1    2    0    0  0.16998019806E+02  0.40320208289E+02 -0.24124892828E+03  0.27525086461E+03  0.12508933287E+03 0.  0.
          5    1    4    4  502    0  0.51611797577E+02  0.54275330183E+02 -0.21925002362E+03  0.23172750026E+03  0.41800000000E+01 0. -1.
         -5    1    4    4    0  502 -0.34613777771E+02 -0.13955121894E+02 -0.21998904660E+02  0.43523364356E+02  0.41800000000E+01 0. -1.
        -11    1    3    3    0    0 -0.19608776669E+01 -0.60942128210E+02 -0.11565586566E+03  0.13074428207E+03  0.00000000000E+00 0. -1.
         11    1    3    3    0    0 -0.15037142140E+02  0.20621919920E+02 -0.38946793876E+01  0.25817586108E+02  0.00000000000E+00 0.  1.
</event>
<event>
 8    1  0.2184156E-005  0.1045620E+03  0.7561462E-02  0.1270985E+00
         -1   -1    0    0    0  501 -0.00000000000E+00  0.00000000000E+00  0.85671589808E+02  0.85671589808E+02  0.00000000000E+00 0.  1.
          1   -1    0    0  501    0  0.00000000000E+00 -0.00000000000E+00 -0.17352945818E+03  0.17352945818E+03  0.00000000000E+00 0. -1.
         23    2    1    2    0    0  0.49234201649E+02 -0.31341599515E+02 -0.26808780637E+02  0.11154038752E+03  0.91193447438E+02 0.  0.
         23    2    1    2    0    0 -0.49234201649E+02  0.31341599515E+02 -0.61049087732E+02  0.14766066047E+03  0.12112133200E+03 0.  0.
          5    1    4    4  502    0  0.28208309770E+02  0.10292577257E+02 -0.60077847976E+02  0.67293878653E+02  0.41800000000E+01 0. -1.
         -5    1    4    4    0  502 -0.77442511420E+02  0.21049022258E+02 -0.97123975567E+00  0.80366781817E+02  0.41800000000E+01 0.  1.
        -11    1    3    3    0    0  0.76451413803E+01  0.26287934325E+02  0.12753233291E+02  0.30201798576E+02  0.00000000000E+00 0. -1.
         11    1    3    3    0    0  0.41589060269E+02 -0.57629533840E+02 -0.39562013928E+02  0.81338588940E+02  0.00000000000E+00 0.  1.
</event>
<event>
 8    1  0.2184156E-005  0.1082128E+03  0.7561462E-02  0.1263916E+00
         -1   -1    0    0    0  501 -0.00000000000E+00  0.00000000000E+00  0.36274990241E+03  0.36274990241E+03  0.00000000000E+00 0.  1.
          1   -1    0    0  501    0  0.00000000000E+00 -0.00000000000E+00 -0.52218031793E+02  0.52218031793E+02  0.00000000000E+00 0. -1.
         23    2    1    2    0    0 -0.72281073617E+02  0.29743543387E+02  0.18566296833E+03  0.22171058137E+03  0.92604600874E+02 0.  0.
         23    2    1    2    0    0  0.72281073617E+02 -0.29743543387E+02  0.12486890228E+03  0.19325735283E+03  0.12508768801E+03 0.  0.
          5    1    4    4  502    0  0.76841032740E+02 -0.10743585901E+02  0.11986485541E+02  0.78620081316E+02  0.41800000000E+01 0. -1.
         -5    1    4    4    0  502 -0.45599591235E+01 -0.18999957486E+02  0.11288241674E+03  0.11463727152E+03  0.41800000000E+01 0. -1.
        -11    1    3    3    0    0 -0.81073090276E+02  0.50972395052E+02  0.12978028690E+03  0.16128841834E+03  0.00000000000E+00 0.  1.
         11    1    3    3    0    0  0.87920166597E+01 -0.21228851665E+02  0.55882681438E+02  0.60422163025E+02  0.00000000000E+00 0. -1.
</event>
<event>
 8    1  0.2767111E-005  0.1382372E+03  0.7561462E-02  0.1215721E+00
         -1   -1    0    0    0  501 -0.00000000000E+00  0.00000000000E+00  0.17502659117E+02  0.17502659117E+02  0.00000000000E+00 0.  1.
          1   -1    0    0  501    0  0.00000000000E+00 -0.00000000000E+00 -0.12252064751E+04  0.12252064751E+04  0.00000000000E+00 0. -1.
         23    2    1    2    0    0 -0.48841916516E+02 -0.83725441481E+02 -0.51076701208E+03  0.52803176118E+03  0.92407347246E+02 0.  0.
         23    2    1    2    0    0  0.48841916516E+02  0.83725441481E+02 -0.69693680389E+03  0.71467737302E+03  0.12508939418E+03 0.  0.
          5    1    4    4  502    0 -0.31976212554E+02  0.47003964394E+02 -0.14808079491E+03  0.15867339115E+03  0.41800000000E+01 0.  1.
         -5    1    4    4    0  502  0.80818129069E+02  0.36721477087E+02 -0.54885600898E+03  0.55600398187E+03  0.41800000000E+01 0.  1.
        -11    1    3    3    0    0 -0.68804892004E+02 -0.33440145317E+02 -0.35460749259E+03  0.36276553073E+03  0.00000000000E+00 0.  1.
         11    1    3    3    0    0  0.19962975488E+02 -0.50285296164E+02 -0.15615951949E+03  0.16526623045E+03  0.00000000000E+00 0. -1.
</event>
<event>
 8    1  0.2184156E-005  0.1378518E+03  0.7561462E-02  0.1216249E+00
         -1   -1    0    0    0  501 -0.00000000000E+00  0.00000000000E+00  0.10026540527E+04  0.10026540527E+04  0.00000000000E+00 0.  1.
          1   -1    0    0  501    0  0.00000000000E+00 -0.00000000000E+00 -0.19624151188E+02  0.19624151188E+02  0.00000000000E+00 0. -1.
         23    2    1    2    0    0  0.12392527337E+02  0.94397713026E+02  0.42984219503E+03  0.44718848874E+03  0.78413830867E+02 0.  0.
         23    2    1    2    0    0 -0.12392527337E+02 -0.94397713026E+02  0.55318770649E+03  0.57508971516E+03  0.12508812459E+03 0.  0.
          5    1    4    4  502    0  0.48060348592E+02 -0.72330386847E+01  0.22231061226E+03  0.22759963682E+03  0.41800000000E+01 0. -1.
         -5    1    4    4    0  502 -0.60452875929E+02 -0.87164674342E+02  0.33087709422E+03  0.34749007834E+03  0.41800000000E+01 0. -1.
        -11    1    3    3    0    0  0.40012382953E+02  0.27959853515E+02  0.13077726755E+03  0.13959025004E+03  0.00000000000E+00 0. -1.
         11    1    3    3    0    0 -0.27619855616E+02  0.66437859511E+02  0.29906492748E+03  0.30759823870E+03  0.00000000000E+00 0.  1.
</event>
<event>
 8    1  0.2184156E-005  0.7111356E+02  0.7561462E-02  0.1356347E+00
         -2   -1    0    0    0  501 -0.00000000000E+00  0.00000000000E+00  0.34868970376E+02  0.34868970376E+02  0.00000000000E+00 0.  1.
          2   -1    0    0  501    0  0.00000000000E+00 -0.00000000000E+00 -0.54029414222E+03  0.54029414222E+03  0.00000000000E+00 0. -1.
         23    2    1    2    0    0  0.14592142497E+02  0.43844989924E+02 -0.80160564690E+02  0.12948462919E+03  0.90582775967E+02 0.  0.
         23    2    1    2    0    0 -0.14592142497E+02 -0.43844989924E+02 -0.42526460715E+03  0.44567848340E+03  0.12507601971E+03 0.  0.
          5    1    4    4  502    0 -0.10211485802E+02  0.70936456025E+01  0.37224047182E+01  0.13635356508E+02  0.41800000000E+01 0.  1.
         -5    1    4    4    0  502 -0.43806566948E+01 -0.50938635526E+02 -0.42898701187E+03  0.43204312689E+03  0.41800000000E+01 0.  1.
        -11    1    3    3    0    0 -0.20718848185E+02 -0.98936638319E+00  0.98061111999E+01  0.22943612026E+02  0.00000000000E+00 0. -1.
         11    1    3    3    0    0  0.35310990682E+02  0.44834356307E+02 -0.89966675890E+02  0.10654101717E+03  0.00000000000E+00 0.  1.
</event>
<event>
 8    1  0.2184156E-005  0.9844947E+02  0.7561462E-02  0.1283591E+00
         -4   -1    0    0    0  501 -0.00000000000E+00  0.00000000000E+00  0.25928447102E+03  0.25928447102E+03  0.00000000000E+00 0.  1.
          4   -1    0    0  501    0  0.00000000000E+00 -0.00000000000E+00 -0.53001129723E+02  0.53001129723E+02  0.00000000000E+00 0. -1.
         23    2    1    2    0    0 -0.40766331251E+02 -0.17853771359E+02  0.64163920901E+02  0.11779368904E+03  0.88191232657E+02 0.  0.
         23    2    1    2    0    0  0.40766331251E+02  0.17853771359E+02  0.14211942039E+03  0.19449191170E+03  0.12509405720E+03 0.  0.
          5    1    4    4  502    0 -0.30796421932E+02  0.28850251574E+02  0.96808065000E+01  0.43496517495E+02  0.41800000000E+01 0. -1.
         -5    1    4    4    0  502  0.71562753183E+02 -0.10996480215E+02  0.13243861389E+03  0.15099539420E+03  0.41800000000E+01 0. -1.
        -11    1    3    3    0    0  0.12614322249E+02 -0.25108215410E+02 -0.65940651041E+01  0.28862177698E+02  0.00000000000E+00 0. -1.
         11    1    3    3    0    0 -0.53380653500E+02  0.72544440508E+01  0.70757986005E+02  0.88931511344E+02  0.00000000000E+00 0.  1.
</event>
<event>
 8    1  0.2184156E-005  0.1075046E+03  0.7561462E-02  0.1265262E+00
         -1   -1    0    0    0  501 -0.00000000000E+00  0.00000000000E+00  0.24375641810E+03  0.24375641810E+03  0.00000000000E+00 0.  1.
          1   -1    0    0  501    0  0.00000000000E+00 -0.00000000000E+00 -0.55141065384E+02  0.55141065384E+02  0.00000000000E+00 0. -1.
         23    2    1    2    0    0  0.96379528610E+01  0.30430593597E+02  0.12104630545E+03  0.15318925829E+03  0.88293995428E+02 0.  0.
         23    2    1    2    0    0 -0.96379528610E+01 -0.30430593597E+02  0.67569047265E+02  0.14570822520E+03  0.12508556903E+03 0.  0.
          5    1    4    4  502    0  0.56416321836E+02 -0.95522667206E+01  0.44386231696E+02  0.72537280988E+02  0.41800000000E+01 0.  1.
         -5    1    4    4    0  502 -0.66054274697E+02 -0.20878326876E+02  0.23182815569E+02  0.73170944210E+02  0.41800000000E+01 0.  1.
        -11    1    3    3    0    0  0.41949023263E+02  0.36206073574E+02  0.99611482234E+02  0.11398705062E+03  0.00000000000E+00 0.  1.
         11    1    3    3    0    0 -0.32311070402E+02 -0.57754799774E+01  0.21434823221E+02  0.39202207668E+02  0.00000000000E+00 0. -1.
</event>
<event>
 8    1  0.2184156E-005  0.1881615E+03  0.7561462E-02  0.1160130E+00
          2   -1    0    0  501    0  0.00000000000E+00  0.00000000000E+00  0.10851074312E+04  0.10851074312E+04  0.00000000000E+00 0. -1.
         -2   -1    0    0    0  501 -0.00000000000E+00 -0.00000000000E+00 -0.38288214169E+02  0.38288214169E+02  0.00000000000E+00 0.  1.
         23    2    1    2    0    0 -0.12432339627E+03  0.11807098820E+03  0.43999745323E+03  0.48053023876E+03  0.88963399234E+02 0.  0.
         23    2    1    2    0    0  0.12432339627E+03 -0.11807098820E+03  0.60682176378E+03  0.64286540659E+03  0.12508482270E+03 0.  0.
          5    1    4    4  502    0  0.12770713153E+03 -0.70670867244E+02  0.54805885523E+03  0.56717674857E+03  0.41800000000E+01 0.  1.
         -5    1    4    4    0  502 -0.33837352620E+01 -0.47400120954E+02  0.58762908553E+02  0.75688658017E+02  0.41800000000E+01 0.  1.
        -11    1    3    3    0    0 -0.12303083241E+03  0.85075337293E+02  0.28301372739E+03  0.32011118167E+03  0.00000000000E+00 0.  1.
         11    1    3    3    0    0 -0.12925638592E+01  0.32995650905E+02  0.15698372584E+03  0.16041905709E+03  0.00000000000E+00 0. -1.
</event>
<event>
 8    1  0.2184156E-005  0.2265557E+03  0.7561462E-02  0.1129088E+00
         -2   -1    0    0    0  501 -0.00000000000E+00  0.00000000000E+00  0.70137419710E+02  0.70137419710E+02  0.00000000000E+00 0.  1.
          2   -1    0    0  501    0  0.00000000000E+00 -0.00000000000E+00 -0.94879897919E+03  0.94879897919E+03  0.00000000000E+00 0. -1.
         23    2    1    2    0    0  0.76143257713E+02 -0.21298144958E+03 -0.30898799738E+03  0.39336952840E+03  0.90039490160E+02 0.  0.
         23    2    1    2    0    0 -0.76143257713E+02  0.21298144958E+03 -0.56967356210E+03  0.62556687050E+03  0.12508816312E+03 0.  0.
          5    1    4    4  502    0 -0.68947483374E+02  0.19892612712E+03 -0.57156669643E+03  0.60912340324E+03  0.41800000000E+01 0. -1.
         -5    1    4    4    0  502 -0.71957743383E+01  0.14055322458E+02  0.18931343302E+01  0.16443467253E+02  0.41800000000E+01 0. -1.
        -11    1    3    3    0    0  0.38516599405E+02 -0.11179753549E+03 -0.87917330785E+02  0.14734881888E+03  0.00000000000E+00 0.  1.
         11    1    3    3    0    0  0.37626658308E+02 -0.10118391409E+03 -0.22107066660E+03  0.24602070953E+03  0.00000000000E+00 0. -1.
</event>
<event>
 8    1  0.2184156E-005  0.1148896E+03  0.7561462E-02  0.1251774E+00
          2   -1    0    0  501    0  0.00000000000E+00  0.00000000000E+00  0.48152025544E+03  0.48152025544E+03  0.00000000000E+00 0. -1.
         -2   -1    0    0    0  501 -0.00000000000E+00 -0.00000000000E+00 -0.49703242405E+02  0.49703242405E+02  0.00000000000E+00 0.  1.
         23    2    1    2    0    0 -0.10716814766E+03  0.17189040750E+02  0.16892399999E+03  0.22051401712E+03  0.91162706080E+02 0.  0.
         23    2    1    2    0    0  0.10716814766E+03 -0.17189040750E+02  0.26289301304E+03  0.31070948072E+03  0.12508864901E+03 0.  0.
          5    1    4    4  502    0  0.10578592152E+03 -0.48236278852E+01  0.95063210569E+02  0.14236718365E+03  0.41800000000E+01 0.  1.
         -5    1    4    4    0  502  0.13822261357E+01 -0.12365412864E+02  0.16782980247E+03  0.16834229707E+03  0.41800000000E+01 0.  1.
        -11    1    3    3    0    0 -0.47526623483E+02  0.18549149858E+02  0.11686210386E+02  0.52339453698E+02  0.00000000000E+00 0.  1.
         11    1    3    3    0    0 -0.59641524172E+02 -0.13601091089E+01  0.15723778961E+03  0.16817456342E+03  0.00000000000E+00 0. -1.
</event>
<event>
 8    1  0.2184156E-005  0.1237670E+03  0.7561462E-02  0.1237009E+00
          2   -1    0    0  501    0  0.00000000000E+00  0.00000000000E+00  0.75215870713E+03  0.75215870713E+03  0.00000000000E+00 0. -1.
         -2   -1    0    0    0  501 -0.00000000000E+00 -0.00000000000E+00 -0.21446710339E+02  0.21446710339E+02  0.00000000000E+00 0.  1.
         23    2    1    2    0    0  0.57880101275E+02  0.36724258720E+02  0.32199458895E+03  0.34071311091E+03  0.87784573419E+02 0.  0.
         23    2    1    2    0    0 -0.57880101275E+02 -0.36724258720E+02  0.40871740785E+03  0.43289230657E+03  0.12508817811E+03 0.  0.
          5    1    4    4  502    0 -0.80779977815E+01  0.42159464177E+02  0.19418284858E+03  0.19891487011E+03  0.41800000000E+01 0.  1.
         -5    1    4    4    0  502 -0.49802103494E+02 -0.78883722898E+02  0.21453455927E+03  0.23397743646E+03  0.41800000000E+01 0.  1.
        -11    1    3    3    0    0 -0.16620554351E+02 -0.13297823730E+02  0.73099423730E+02  0.76135410241E+02  0.00000000000E+00 0.  1.
         11    1    3    3    0    0  0.74500655626E+02  0.50022082450E+02  0.24889516522E+03  0.26457770067E+03  0.00000000000E+00 0. -1.
</event>
<event>
 8    1  0.2184156E-005  0.7781659E+02  0.7561462E-02  0.1335364E+00
          1   -1    0    0  501    0  0.00000000000E+00  0.00000000000E+00  0.38037920423E+03  0.38037920423E+03  0.00000000000E+00 0. -1.
         -1   -1    0    0    0  501 -0.00000000000E+00 -0.00000000000E+00 -0.42397728064E+02  0.42397728064E+02  0.00000000000E+00 0.  1.
         23    2    1    2    0    0  0.57543352020E+02 -0.15683212646E+02  0.10319181478E+03  0.15014067874E+03  0.91304283876E+02 0.  0.
         23    2    1    2    0    0 -0.57543352020E+02  0.15683212646E+02  0.23478966138E+03  0.27263625355E+03  0.12508853320E+03 0.  0.
          5    1    4    4  502    0 -0.37741224839E+02  0.10023932130E+02  0.24510585779E+01  0.39349197651E+02  0.41800000000E+01 0. -1.
         -5    1    4    4    0  502 -0.19802127181E+02  0.56592805163E+01  0.23233860280E+03  0.23328705590E+03  0.41800000000E+01 0. -1.
        -11    1    3    3    0    0  0.75252770887E+02 -0.68738841419E+01  0.43356054353E+02  0.87120475541E+02  0.00000000000E+00 0.  1.
         11    1    3    3    0    0 -0.17709418868E+02 -0.88093285045E+01  0.59835760427E+02  0.63020203199E+02  0.00000000000E+00 0. -1.
</event>
<event>
 8    1  0.2184156E-005  0.9263386E+02  0.7561462E-02  0.1296596E+00
         -1   -1    0    0    0  501 -0.00000000000E+00  0.00000000000E+00  0.29375866278E+03  0.29375866278E+03  0.00000000000E+00 0.  1.
          1   -1    0    0  501    0  0.00000000000E+00 -0.00000000000E+00 -0.52392328552E+02  0.52392328552E+02  0.00000000000E+00 0. -1.
         23    2    1    2    0    0 -0.30613738579E+01  0.18775176305E+02  0.18557241705E+03  0.20786748521E+03  0.91705453404E+02 0.  0.
         23    2    1    2    0    0  0.30613738579E+01 -0.18775176305E+02  0.55793917177E+02  0.13828350612E+03  0.12508991812E+03 0.  0.
          5    1    4    4  502    0 -0.36027377539E+02  0.38594662429E+02  0.41496627205E+02  0.67282704834E+02  0.41800000000E+01 0.  1.
         -5    1    4    4    0  502  0.39088751397E+02 -0.57369838734E+02  0.14297289972E+02  0.71000801282E+02  0.41800000000E+01 0.  1.
        -11    1    3    3    0    0  0.28393437458E+02  0.10004409579E+02  0.16821244454E+03  0.17088505493E+03  0.00000000000E+00 0.  1.
         11    1    3    3    0    0 -0.31454811316E+02  0.87707667264E+01  0.17359972510E+02  0.36982430280E+02  0.00000000000E+00 0. -1.
</event>
<event>
 8    1  0.2184156E-005  0.2548314E+03  0.7561462E-02  0.1110289E+00
         -2   -1    0    0    0  501 -0.00000000000E+00  0.00000000000E+00  0.72031230839E+03  0.72031230839E+03  0.00000000000E+00 0.  1.
          2   -1    0    0  501    0  0.00000000000E+00 -0.00000000000E+00 -0.10126243827E+03  0.10126243827E+03  0.00000000000E+00 0. -1.
         23    2    1    2    0    0 -0.11921144074E+03  0.21561118717E+03  0.30972266930E+03  0.40681047310E+03  0.94165160812E+02 0.  0.
         23    2    1    2    0    0  0.11921144074E+03 -0.21561118717E+03  0.30932720082E+03  0.41476427357E+03  0.12508610564E+03 0.  0.
          5    1    4    4  502    0  0.53766942832E+02 -0.21891730738E+02  0.13127663783E+03  0.14360069657E+03  0.41800000000E+01 0. -1.
         -5    1    4    4    0  502  0.65444497904E+02 -0.19371945643E+03  0.17805056299E+03  0.27116357700E+03  0.41800000000E+01 0. -1.
        -11    1    3    3    0    0 -0.44421807392E+02  0.64250576346E+02  0.37891175981E+02  0.86816903596E+02  0.00000000000E+00 0. -1.
         11    1    3    3    0    0 -0.74789633345E+02  0.15136061083E+03  0.27183149331E+03  0.31999356950E+03  0.00000000000E+00 0.  1.
</event>
<event>
 8    1  0.2184156E-005  0.1929823E+03  0.7561462E-02  0.1155799E+00
         -1   -1    0    0    0  501 -0.00000000000E+00  0.00000000000E+00  0.23314286773E+03  0.23314286773E+03  0.00000000000E+00 0.  1.
          1   -1    0    0  501    0  0.00000000000E+00 -0.00000000000E+00 -0.18300410352E+03  0.18300410352E+03  0.00000000000E+00 0. -1.
         23    2    1    2    0    0 -0.88623461990E+02 -0.14848139921E+03  0.49535544855E+02  0.20272656243E+03  0.93506390063E+02 0.  0.
         23    2    1    2    0    0  0.88623461990E+02  0.14848139921E+03  0.60321935262E+00  0.21342040883E+03  0.12508822129E+03 0.  0.
          5    1    4    4  502    0 -0.28796497015E+02  0.53924628945E+02 -0.10611177220E+02  0.62186600882E+02  0.41800000000E+01 0.  1.
         -5    1    4    4    0  502  0.11741995900E+03  0.94556770265E+02  0.11214396573E+02  0.15123380795E+03  0.41800000000E+01 0.  1.
        -11    1    3    3    0    0 -0.32068613218E+02 -0.71383254884E+02 -0.24275834537E+02  0.81934615237E+02  0.00000000000E+00 0. -1.
         11    1    3    3    0    0 -0.56554848771E+02 -0.77098144325E+02  0.73811379392E+02  0.12079194719E+03  0.00000000000E+00 0.  1.
</event>
<event>
 8    1  0.2184156E-005  0.8731214E+02  0.7561462E-02  0.1309494E+00
          3   -1    0    0  501    0  0.00000000000E+00  0.00000000000E+00  0.12425089738E+03  0.12425089738E+03  0.00000000000E+00 0. -1.
         -3   -1    0    0    0  501 -0.00000000000E+00 -0.00000000000E+00 -0.10285457533E+03  0.10285457533E+03  0.00000000000E+00 0.  1.
         23    2    1    2    0    0 -0.38953897419E+01 -0.55626953162E+01 -0.24465728567E+02  0.94657385099E+02  0.91188436981E+02 0.  0.
         23    2    1    2    0    0  0.38953897419E+01  0.55626953162E+01  0.45862050612E+02  0.13244808761E+03  0.12406873331E+03 0.  0.
          5    1    4    4  502    0 -0.38293189714E+02  0.11908717674E+02  0.71798565593E+02  0.82344959508E+02  0.41800000000E+01 0.  1.
         -5    1    4    4    0  502  0.42188579455E+02 -0.63460223578E+01 -0.25936514981E+02  0.50103128102E+02  0.41800000000E+01 0.  1.
        -11    1    3    3    0    0 -0.46263845485E+02  0.80012505084E+01 -0.12142278801E+02  0.48495343522E+02  0.00000000000E+00 0. -1.
         11    1    3    3    0    0  0.42368455744E+02 -0.13563945825E+02 -0.12323449766E+02  0.46162041577E+02  0.00000000000E+00 0.  1.
</event>
<event>
 8    1  0.2184156E-005  0.1014896E+03  0.7561462E-02  0.1277194E+00
         -2   -1    0    0    0  501 -0.00000000000E+00  0.00000000000E+00  0.23216412445E+02  0.23216412445E+02  0.00000000000E+00 0.  1.
          2   -1    0    0  501    0  0.00000000000E+00 -0.00000000000E+00 -0.79916315261E+03  0.79916315261E+03  0.00000000000E+00 0. -1.
         23    2    1    2    0    0 -0.73826328713E+02 -0.26357935536E+01 -0.27291708510E+03  0.29879228418E+03  0.96622044747E+02 0.  0.
         23    2    1    2    0    0  0.73826328713E+02  0.26357935536E+01 -0.50302965507E+03  0.52358728087E+03  0.12509009790E+03 0.  0.
          5    1    4    4  502    0  0.52811870378E+02 -0.46318703567E+02 -0.14047184207E+03  0.15711246535E+03  0.41800000000E+01 0.  1.
         -5    1    4    4    0  502  0.21014458335E+02  0.48954497121E+02 -0.36255781300E+03  0.36647481552E+03  0.41800000000E+01 0.  1.
        -11    1    3    3    0    0 -0.26689714010E+02 -0.14760923445E+02 -0.11048543905E+02  0.32439112462E+02  0.00000000000E+00 0.  1.
         11    1    3    3    0    0 -0.47136614703E+02  0.12125129891E+02 -0.26186854119E+03  0.26635317172E+03  0.00000000000E+00 0. -1.
</event>
<event>
 8    1  0.2184156E-005  0.5798845E+02  0.7561462E-02  0.1406473E+00
          4   -1    0    0  501    0  0.00000000000E+00  0.00000000000E+00  0.15746146170E+03  0.15746146170E+03  0.00000000000E+00 0.  1.
         -4   -1    0    0    0  501 -0.00000000000E+00 -0.00000000000E+00 -0.88291855889E+02  0.88291855889E+02  0.00000000000E+00 0. -1.
         23    2    1    2    0    0  0.65077706019E+01  0.38191475587E+01 -0.20314875629E+02  0.91764556390E+02  0.89168955760E+02 0.  0.
         23    2    1    2    0    0 -0.65077706019E+01 -0.38191475587E+01  0.89484481437E+02  0.15398876120E+03  0.12509248255E+03 0.  0.
          5    1    4    4  502    0 -0.28255977834E+01 -0.32518499693E+02 -0.21440448728E+02  0.39275973148E+02  0.41800000000E+01 0. -1.
         -5    1    4    4    0  502 -0.36821728185E+01  0.28699352134E+02  0.11092493017E+03  0.11471278805E+03  0.41800000000E+01 0. -1.
        -11    1    3    3    0    0  0.22166109745E+02  0.21038108208E+02  0.25874515415E+02  0.40042839137E+02  0.00000000000E+00 0.  1.
         11    1    3    3    0    0 -0.15658339143E+02 -0.17218960649E+02 -0.46189391044E+02  0.51721717253E+02  0.00000000000E+00 0. -1.
</event>
<event>
 8    1  0.2184156E-005  0.1910015E+03  0.7561462E-02  0.1157561E+00
          2   -1    0    0  501    0  0.00000000000E+00  0.00000000000E+00  0.35082367225E+03  0.35082367225E+03  0.00000000000E+00 0. -1.
         -2   -1    0    0    0  501 -0.00000000000E+00 -0.00000000000E+00 -0.14082179224E+03  0.14082179224E+03  0.00000000000E+00 0.  1.
         23    2    1    2    0    0 -0.18735475957E+03 -0.35890274248E+02  0.68620822605E+02  0.22327123059E+03  0.93548422715E+02 0.  0.
         23    2    1    2    0    0  0.18735475957E+03  0.35890274248E+02  0.14138105741E+03  0.26837423390E+03  0.12508480446E+03 0.  0.
          5    1    4    4  502    0  0.86398257100E+02  0.14958221938E+02 -0.65302510611E+01  0.88025699727E+02  0.41800000000E+01 0. -1.
         -5    1    4    4    0  502  0.10095650247E+03  0.20932052310E+02  0.14791130847E+03  0.18034853417E+03  0.41800000000E+01 0. -1.
        -11    1    3    3    0    0 -0.92903271460E+02 -0.12629054588E+02 -0.15056354812E+02  0.94958963179E+02  0.00000000000E+00 0.  1.
         11    1    3    3    0    0 -0.94451488114E+02 -0.23261219660E+02  0.83677177417E+02  0.12831226741E+03  0.00000000000E+00 0. -1.
</event>
<event>
 8    1  0.2184156E-005  0.1534807E+03  0.7561462E-02  0.1196260E+00
          2   -1    0    0  501    0  0.00000000000E+00  0.00000000000E+00  0.91644692955E+02  0.91644692955E+02  0.00000000000E+00 0. -1.
         -2   -1    0    0    0  501 -0.00000000000E+00 -0.00000000000E+00 -0.26142021632E+03  0.26142021632E+03  0.00000000000E+00 0.  1.
         23    2    1    2    0    0  0.10408785010E+03 -0.33541513313E+02 -0.64448735355E+02  0.15633863542E+03  0.91262345911E+02 0.  0.
         23    2    1    2    0    0 -0.10408785010E+03  0.33541513313E+02 -0.10532678801E+03  0.19672627385E+03  0.12509268923E+03 0.  0.
          5    1    4    4  502    0  0.25975773925E+02  0.23275852697E+02 -0.16320998987E+02  0.38734397604E+02  0.41800000000E+01 0. -1.
         -5    1    4    4    0  502 -0.13006362403E+03  0.10265660616E+02 -0.89005789018E+02  0.15799187625E+03  0.41800000000E+01 0. -1.
        -11    1    3    3    0    0  0.48054945300E+01 -0.41425603325E+02 -0.10221182840E+02  0.42937698671E+02  0.00000000000E+00 0.  1.
         11    1    3    3    0    0  0.99282355570E+02  0.78840900125E+01 -0.54227552515E+02  0.11340093675E+03  0.00000000000E+00 0. -1.
</event>
<event>
 8    1  0.2184156E-005  0.1041479E+03  0.7561462E-02  0.1271808E+00
          1   -1    0    0  501    0  0.00000000000E+00  0.00000000000E+00  0.13047731491E+04  0.13047731491E+04  0.00000000000E+00 0. -1.
         -1   -1    0    0    0  501 -0.00000000000E+00 -0.00000000000E+00 -0.18780689313E+02  0.18780689313E+02  0.00000000000E+00 0.  1.
         23    2    1    2    0    0  0.28581983271E+02 -0.59370370063E+02  0.20433273674E+03  0.23269338396E+03  0.89736129980E+02 0.  0.
         23    2    1    2    0    0 -0.28581983271E+02  0.59370370063E+02  0.10816597231E+04  0.10908604545E+04  0.12508798515E+03 0.  0.
          5    1    4    4  502    0  0.27856299392E+02  0.29024078584E+02  0.11204239007E+03  0.11911901664E+03  0.41800000000E+01 0. -1.
         -5    1    4    4    0  502 -0.56438282662E+02  0.30346291480E+02  0.96961733299E+03  0.97174143782E+03  0.41800000000E+01 0. -1.
        -11    1    3    3    0    0 -0.86090323471E+01  0.16795723820E+02  0.11619751435E+02  0.22163718099E+02  0.00000000000E+00 0.  1.
         11    1    3    3    0    0  0.37191015618E+02 -0.76166093883E+02  0.19271298531E+03  0.21052966586E+03  0.00000000000E+00 0. -1.
</event>
<event>
 7    1  0.2184156E-005  0.1005092E+03  0.7561462E-02  0.1279229E+00
         -1   -1    0    0    0  501 -0.00000000000E+00  0.00000000000E+00  0.16907464414E+03  0.16907464414E+03  0.00000000000E+00 0.  1.
          1   -1    0    0  501    0  0.00000000000E+00 -0.00000000000E+00 -0.13802784993E+03  0.13802784993E+03  0.00000000000E+00 0. -1.
         23    2    1    2    0    0 -0.69338860550E+01  0.12851387237E+02 -0.27444099884E+01  0.12597252055E+03  0.12509319413E+03 0.  0.
          5    1    3    3  502    0  0.19609528230E+02 -0.32452822517E+02 -0.44603973471E+02  0.58691618960E+02  0.41800000000E+01 0. -1.
         -5    1    3    3    0  502 -0.26543414285E+02  0.45304209754E+02  0.41859563482E+02  0.67280901586E+02  0.41800000000E+01 0. -1.
        -11    1    1    2    0    0 -0.38044407446E+02  0.29712811918E+02  0.86993406730E+02  0.99489099626E+02  0.00000000000E+00 0.  1.
         11    1    1    2    0    0  0.44978293501E+02 -0.42564199155E+02 -0.53202202530E+02  0.81640873893E+02  0.00000000000E+00 0. -1.
</event>
<event>
 8    1  0.2184156E-005  0.1373372E+03  0.7561462E-02  0.1216957E+00
          3   -1    0    0  501    0  0.00000000000E+00  0.00000000000E+00  0.98082135340E+02  0.98082135340E+02  0.00000000000E+00 0. -1.
         -3   -1    0    0    0  501 -0.00000000000E+00 -0.00000000000E+00 -0.22921927099E+03  0.22921927099E+03  0.00000000000E+00 0.  1.
         23    2    1    2    0    0 -0.38650829578E+02  0.82543079537E+02 -0.11260851532E+03  0.17141213014E+03  0.91619834264E+02 0.  0.
         23    2    1    2    0    0  0.38650829578E+02 -0.82543079537E+02 -0.18528620328E+02  0.15588927619E+03  0.12510359728E+03 0.  0.
          5    1    4    4  502    0  0.18566086692E+02  0.30938134292E+02  0.88024925208E+01  0.37374108727E+02  0.41800000000E+01 0.  1.
         -5    1    4    4    0  502  0.20084742887E+02 -0.11348121383E+03 -0.27331112848E+02  0.11851516746E+03  0.41800000000E+01 0.  1.
        -11    1    3    3    0    0 -0.62138468751E+02  0.38450315034E+02 -0.40080328382E+02  0.83342958600E+02  0.00000000000E+00 0. -1.
         11    1    3    3    0    0  0.23487639173E+02  0.44092764503E+02 -0.72528186942E+02  0.88069171544E+02  0.00000000000E+00 0.  1.
</event>
<event>
 8    1  0.2184156E-005  0.1341987E+03  0.7561462E-02  0.1221355E+00
          2   -1    0    0  501    0  0.00000000000E+00  0.00000000000E+00  0.14042385766E+04  0.14042385766E+04  0.00000000000E+00 0. -1.
         -2   -1    0    0    0  501 -0.00000000000E+00 -0.00000000000E+00 -0.15209326561E+02  0.15209326561E+02  0.00000000000E+00 0.  1.
         23    2    1    2    0    0 -0.18892472732E+02  0.89850027851E+02  0.46962028895E+03  0.48703708996E+03  0.90730139267E+02 0.  0.
         23    2    1    2    0    0  0.18892472732E+02 -0.89850027851E+02  0.91940896110E+03  0.93241081321E+03  0.12508850393E+03 0.  0.
          5    1    4    4  502    0 -0.22108003962E+02 -0.96382461244E+02  0.43079201938E+03  0.44201536064E+03  0.41800000000E+01 0.  1.
         -5    1    4    4    0  502  0.41000476694E+02  0.65324333927E+01  0.48861694171E+03  0.49039545257E+03  0.41800000000E+01 0.  1.
        -11    1    3    3    0    0  0.34067622126E+02  0.18279796668E+02  0.11140671002E+03  0.11792458980E+03  0.00000000000E+00 0.  1.
         11    1    3    3    0    0 -0.52960094858E+02  0.71570231183E+02  0.35821357893E+03  0.36911250015E+03  0.00000000000E+00 0. -1.
</event>
<event>
 8    1  0.2184156E-005  0.1943607E+03  0.7561462E-02  0.1154586E+00
          2   -1    0    0  501    0  0.00000000000E+00  0.00000000000E+00  0.75560990610E+03  0.75560990610E+03  0.00000000000E+00 0. -1.
         -2   -1    0    0    0  501 -0.00000000000E+00 -0.00000000000E+00 -0.66252271014E+02  0.66252271014E+02  0.00000000000E+00 0.  1.
         23    2    1    2    0    0 -0.13708348531E+03  0.13368355687E+03  0.25753539502E+03  0.33321151094E+03  0.89678626293E+02 0.  0.
         23    2    1    2    0    0  0.13708348531E+03 -0.13368355687E+03  0.43182224007E+03  0.48865066617E+03  0.12508337703E+03 0.  0.
          5    1    4    4  502    0  0.73827917680E+02 -0.98448637412E+02  0.38016652353E+03  0.39960825023E+03  0.41800000000E+01 0. -1.
         -5    1    4    4    0  502  0.63255567631E+02 -0.35234919462E+02  0.51655716534E+02  0.89042415940E+02  0.41800000000E+01 0. -1.
        -11    1    3    3    0    0 -0.36841408894E+02  0.52165159477E+02  0.15702966318E+03  0.16951934519E+03  0.00000000000E+00 0.  1.
         11    1    3    3    0    0 -0.10024207642E+03  0.81518397396E+02  0.10050573184E+03  0.16369216576E+03  0.00000000000E+00 0. -1.
</event>
<event>
 7    1  0.2184156E-005  0.1294307E+03  0.7561462E-02  0.1228303E+00
          2   -1    0    0  501    0  0.00000000000E+00  0.00000000000E+00  0.39840305481E+03  0.39840305481E+03  0.00000000000E+00 0. -1.
         -2   -1    0    0    0  501 -0.00000000000E+00 -0.00000000000E+00 -0.67773270384E+02  0.67773270384E+02  0.00000000000E+00 0.  1.
         23    2    1    2    0    0 -0.54843513274E+02 -0.86330098461E+02  0.74462779340E+02  0.15454359064E+03  0.88759895524E+02 0.  0.
          5    1    1    2  502    0 -0.16339817061E+02  0.23518905379E+02  0.19824408189E+03  0.20034549392E+03  0.41800000000E+01 0. -1.
         -5    1    1    2    0  502  0.71183330335E+02  0.62811193082E+02  0.57922923195E+02  0.11128724062E+03  0.41800000000E+01 0.  1.
        -11    1    3    3    0    0 -0.15402909725E+02  0.17803909343E+02  0.18366821675E+02  0.29859151936E+02  0.00000000000E+00 0. -1.
         11    1    3    3    0    0 -0.39440603549E+02 -0.10413400780E+03  0.56095957665E+02  0.12468443871E+03  0.00000000000E+00 0.  1.
</event>
<event>
 8    1  0.2184156E-005  0.8553699E+02  0.7561462E-02  0.1314034E+00
         -1   -1    0    0    0  501 -0.00000000000E+00  0.00000000000E+00  0.20021004400E+03  0.20021004400E+03  0.00000000000E+00 0.  1.
          1   -1    0    0  501    0  0.00000000000E+00 -0.00000000000E+00 -0.67366000151E+02  0.67366000151E+02  0.00000000000E+00 0. -1.
         23    2    1    2    0    0  0.10439273054E+02 -0.11864480042E+02  0.10375802119E+03  0.13818273088E+03  0.89883234497E+02 0.  0.
         23    2    1    2    0    0 -0.10439273054E+02  0.11864480042E+02  0.29086022660E+02  0.12939331327E+03  0.12508752335E+03 0.  0.
          5    1    4    4  502    0  0.26726789545E+02  0.28902856093E+02  0.64141877605E+02  0.75374725422E+02  0.41800000000E+01 0.  1.
         -5    1    4    4    0  502 -0.37166062599E+02 -0.17038376050E+02 -0.35055854944E+02  0.54018587851E+02  0.41800000000E+01 0.  1.
        -11    1    3    3    0    0  0.44988173473E+02  0.14126727949E+02  0.63616589180E+02  0.79186934616E+02  0.00000000000E+00 0. -1.
         11    1    3    3    0    0 -0.34548900419E+02 -0.25991207992E+02  0.40141432007E+02  0.58995796262E+02  0.00000000000E+00 0.  1.
</event>
<event>
 8    1  0.2184156E-005  0.1167649E+03  0.7561462E-02  0.1248531E+00
          1   -1    0    0  501    0  0.00000000000E+00  0.00000000000E+00  0.66665978612E+02  0.66665978612E+02  0.00000000000E+00 0. -1.
         -1   -1    0    0    0  501 -0.00000000000E+00 -0.00000000000E+00 -0.26243890751E+03  0.26243890751E+03  0.00000000000E+00 0.  1.
         23    2    1    2    0    0 -0.22507863796E+02 -0.70253638858E+02 -0.10958414874E+03  0.16023213111E+03  0.90683363852E+02 0.  0.
         23    2    1    2    0    0  0.22507863796E+02  0.70253638858E+02 -0.86188780158E+02  0.16887275501E+03  0.12508926355E+03 0.  0.
          5    1    4    4  502    0 -0.28486995536E+01 -0.33978279275E+02 -0.59909741817E+01  0.34871230597E+02  0.41800000000E+01 0. -1.
         -5    1    4    4    0  502  0.25356563350E+02  0.10423191813E+03 -0.80197805977E+02  0.13400152442E+03  0.41800000000E+01 0. -1.
        -11    1    3    3    0    0  0.11638689158E+02 -0.51636202036E+02 -0.10918399753E+03  0.12133796505E+03  0.00000000000E+00 0.  1.
         11    1    3    3    0    0 -0.34146552954E+02 -0.18617436822E+02 -0.40015121170E+00  0.38894166059E+02  0.00000000000E+00 0. -1.
</event>
<event>
 8    1  0.2184156E-005  0.2375281E+03  0.7561462E-02  0.1121451E+00
          2   -1    0    0  501    0  0.00000000000E+00  0.00000000000E+00  0.97576060879E+02  0.97576060879E+02  0.00000000000E+00 0. -1.
         -2   -1    0    0    0  501 -0.00000000000E+00 -0.00000000000E+00 -0.80871784173E+03  0.80871784173E+03  0.00000000000E+00 0.  1.
         23    2    1    2    0    0 -0.16470093128E+03  0.13652979028E+03 -0.58226335708E+03  0.62696466618E+03  0.91034582703E+02 0.  0.
         23    2    1    2    0    0  0.16470093128E+03 -0.13652979028E+03 -0.12887842377E+03  0.27932923642E+03  0.12509354023E+03 0.  0.
          5    1    4    4  502    0  0.17315915426E+03 -0.15102950881E+03 -0.12498887333E+03  0.26159834879E+03  0.41800000000E+01 0. -1.
         -5    1    4    4    0  502 -0.84582229773E+01  0.14499718533E+02 -0.38895504403E+01  0.17730887629E+02  0.41800000000E+01 0. -1.
        -11    1    3    3    0    0 -0.16606228874E+03  0.10517782550E+03 -0.45052670038E+03  0.49154182577E+03  0.00000000000E+00 0.  1.
         11    1    3    3    0    0  0.13613574591E+01  0.31351964774E+02 -0.13173665670E+03  0.13542284042E+03  0.00000000000E+00 0. -1.
</event>
<event>
 7    1  0.2184156E-005  0.3673932E+03  0.7561462E-02  0.1055694E+00
          2   -1    0    0  501    0  0.00000000000E+00  0.00000000000E+00  0.20668589338E+03  0.20668589338E+03  0.00000000000E+00 0. -1.
         -2   -1    0    0    0  501 -0.00000000000E+00 -0.00000000000E+00 -0.10889455813E+04  0.10889455813E+04  0.00000000000E+00 0.  1.
         23    2    1    2    0    0 -0.30837622044E+02 -0.13136380829E+03 -0.30257849510E+03  0.34374884465E+03  0.91663042927E+02 0.  0.
          5    1    1    2  502    0 -0.25339613706E+03 -0.11207055390E+02  0.38611109038E+02  0.25659986459E+03  0.41800000000E+01 0. -1.
         -5    1    1    2    0  502  0.28423375911E+03  0.14257086368E+03 -0.61829230182E+03  0.69528276541E+03  0.41800000000E+01 0.  1.
        -11    1    3    3    0    0  0.75547434451E+01  0.12274881671E+02 -0.24920053236E+02  0.28788121193E+02  0.00000000000E+00 0.  1.
         11    1    3    3    0    0 -0.38392365489E+02 -0.14363868996E+03 -0.27765844187E+03  0.31496072346E+03  0.00000000000E+00 0. -1.
</event>
<event>
 8    1  0.2184156E-005  0.1050909E+03  0.7561462E-02  0.1269941E+00
         -2   -1    0    0    0  501 -0.00000000000E+00  0.00000000000E+00  0.57096617093E+02  0.57096617093E+02  0.00000000000E+00 0.  1.
          2   -1    0    0  501    0  0.00000000000E+00 -0.00000000000E+00 -0.29664167091E+03  0.29664167091E+03  0.00000000000E+00 0. -1.
         23    2    1    2    0    0  0.50657688153E+02 -0.18391870146E+02 -0.41642357720E+02  0.11348454059E+03  0.90775507373E+02 0.  0.
         23    2    1    2    0    0 -0.50657688153E+02  0.18391870146E+02 -0.19790269609E+03  0.24025374741E+03  0.12510764872E+03 0.  0.
          5    1    4    4  502    0 -0.78494266912E+02  0.14773834613E+02 -0.61399415422E+02  0.10083142735E+03  0.41800000000E+01 0. -1.
         -5    1    4    4    0  502  0.27836578759E+02  0.36180355325E+01 -0.13650328067E+03  0.13942232006E+03  0.41800000000E+01 0. -1.
        -11    1    3    3    0    0 -0.63924148109E+01 -0.40228512194E+02 -0.22441960386E+01  0.40795006758E+02  0.00000000000E+00 0.  1.
         11    1    3    3    0    0  0.57050102964E+02  0.21836642049E+02 -0.39398161682E+02  0.72689533828E+02  0.00000000000E+00 0. -1.
</event>
<event>
 8    1  0.2184156E-005  0.1039150E+03  0.7561462E-02  0.1272272E+00
          1   -1    0    0  501    0  0.00000000000E+00  0.00000000000E+00  0.16757617247E+03  0.16757617247E+03  0.00000000000E+00 0. -1.
         -1   -1    0    0    0  501 -0.00000000000E+00 -0.00000000000E+00 -0.84505953441E+02  0.84505953441E+02  0.00000000000E+00 0.  1.
         23    2    1    2    0    0  0.17569316422E+02 -0.33283130564E+02  0.20925130897E+01  0.98373855061E+02  0.90865775124E+02 0.  0.
         23    2    1    2    0    0 -0.17569316422E+02  0.33283130564E+02  0.80977705941E+02  0.15370827085E+03  0.12510953604E+03 0.  0.
          5    1    4    4  502    0  0.44618955511E+02 -0.13877922154E+02  0.52782388331E+02  0.70617992269E+02  0.41800000000E+01 0. -1.
         -5    1    4    4    0  502 -0.62188271934E+02  0.47161052718E+02  0.28195317609E+02  0.83090278581E+02  0.41800000000E+01 0. -1.
        -11    1    3    3    0    0 -0.23804705699E+02 -0.33844885390E+02  0.27625310928E+02  0.49752367626E+02  0.00000000000E+00 0. -1.
         11    1    3    3    0    0  0.41374022122E+02  0.56175482602E+00 -0.25532797838E+02  0.48621487436E+02  0.00000000000E+00 0.  1.
</event>
<event>
 8    1  0.2184156E-005  0.1344460E+03  0.7561462E-02  0.1221004E+00
          1   -1    0    0  501    0  0.00000000000E+00  0.00000000000E+00  0.43937758648E+03  0.43937758648E+03  0.00000000000E+00 0. -1.
         -1   -1    0    0    0  501 -0.00000000000E+00 -0.00000000000E+00 -0.53069269170E+02  0.53069269170E+02  0.00000000000E+00 0.  1.
         23    2    1    2    0    0  0.43619773674E+02 -0.75327386480E+02  0.12545201214E+03  0.19033686900E+03  0.11363545460E+03 0.  0.
         23    2    1    2    0    0 -0.43619773674E+02  0.75327386480E+02  0.26085630517E+03  0.30210998665E+03  0.12509009664E+03 0.  0.
          5    1    4    4  502    0 -0.53590058831E+02  0.10233671155E+03  0.23976756263E+03  0.26617786051E+03  0.41800000000E+01 0.  1.
         -5    1    4    4    0  502  0.99702851577E+01 -0.27009325070E+02  0.21088742538E+02  0.35932126137E+02  0.41800000000E+01 0.  1.
        -11    1    3    3    0    0  0.70109778074E+02 -0.42360280704E+02  0.32331909567E+02  0.88063197416E+02  0.00000000000E+00 0.  1.
         11    1    3    3    0    0 -0.26490004401E+02 -0.32967105776E+02  0.93120102574E+02  0.10227367159E+03  0.00000000000E+00 0. -1.
</event>
<event>
 8    1  0.2184156E-005  0.1859843E+03  0.7561462E-02  0.1162134E+00
         -2   -1    0    0    0  501 -0.00000000000E+00  0.00000000000E+00  0.64006672304E+02  0.64006672304E+02  0.00000000000E+00 0. -1.
          2   -1    0    0  501    0  0.00000000000E+00 -0.00000000000E+00 -0.11671581078E+04  0.11671581078E+04  0.00000000000E+00 0.  1.
         23    2    1    2    0    0 -0.13089621952E+03  0.10182723842E+03 -0.11487778174E+03  0.22129641558E+03  0.90953790700E+02 0.  0.
         23    2    1    2    0    0  0.13089621952E+03 -0.10182723842E+03 -0.98827365374E+03  0.10098683645E+04  0.12508673864E+03 0.  0.
          5    1    4    4  502    0  0.32800337781E+02 -0.76897324827E+02 -0.68564064138E+03  0.69073122287E+03  0.41800000000E+01 0.  1.
         -5    1    4    4    0  502  0.98095881741E+02 -0.24929913595E+02 -0.30263301236E+03  0.31913714164E+03  0.41800000000E+01 0.  1.
        -11    1    3    3    0    0  0.29974483283E+01  0.38907160422E+02 -0.11048639551E+02  0.40556433084E+02  0.00000000000E+00 0.  1.
         11    1    3    3    0    0 -0.13389366785E+03  0.62920078000E+02 -0.10382914219E+03  0.18073998250E+03  0.00000000000E+00 0. -1.
</event>
<event>
 8    1  0.2184156E-005  0.1022015E+03  0.7561462E-02  0.1275733E+00
         -2   -1    0    0    0  501 -0.00000000000E+00  0.00000000000E+00  0.38446171724E+02  0.38446171724E+02  0.00000000000E+00 0.  1.
          2   -1    0    0  501    0  0.00000000000E+00 -0.00000000000E+00 -0.39858459381E+03  0.39858459381E+03  0.00000000000E+00 0. -1.
         23    2    1    2    0    0 -0.50986562985E+02  0.27208673866E+02 -0.12685214089E+03  0.16608814734E+03  0.90298756902E+02 0.  0.
         23    2    1    2    0    0  0.50986562985E+02 -0.27208673866E+02 -0.23328628120E+03  0.27094261820E+03  0.12508985500E+03 0.  0.
          5    1    4    4  502    0  0.12724169391E+02 -0.59628573796E+02 -0.44592444117E+02  0.75653352682E+02  0.41800000000E+01 0.  1.
         -5    1    4    4    0  502  0.38262393595E+02  0.32419899930E+02 -0.18869383708E+03  0.19528926552E+03  0.41800000000E+01 0.  1.
        -11    1    3    3    0    0  0.17103403255E+02  0.16997633449E+02 -0.28862821104E+01  0.24285315938E+02  0.00000000000E+00 0.  1.
         11    1    3    3    0    0 -0.68089966241E+02  0.10211040417E+02 -0.12396585878E+03  0.14180283140E+03  0.00000000000E+00 0. -1.
</event>
<event>
 8    1  0.2184156E-005  0.8316300E+02  0.7561462E-02  0.1320308E+00
         -1   -1    0    0    0  501 -0.00000000000E+00  0.00000000000E+00  0.70959155608E+02  0.70959155608E+02  0.00000000000E+00 0.  1.
          1   -1    0    0  501    0  0.00000000000E+00 -0.00000000000E+00 -0.17353040806E+03  0.17353040806E+03  0.00000000000E+00 0. -1.
         23    2    1    2    0    0  0.13094834346E+02  0.20427048042E+01 -0.21684889094E+02  0.94934421235E+02  0.91469462614E+02 0.  0.
         23    2    1    2    0    0 -0.13094834346E+02 -0.20427048042E+01 -0.80886363354E+02  0.14955514243E+03  0.12509392280E+03 0.  0.
          5    1    4    4  502    0 -0.49692687956E+02  0.17886966913E+02 -0.92053541364E+02  0.10621032765E+03  0.41800000000E+01 0. -1.
         -5    1    4    4    0  502  0.36597853610E+02 -0.19929671717E+02  0.11167178010E+02  0.43344814780E+02  0.41800000000E+01 0. -1.
        -11    1    3    3    0    0  0.25948977946E+02 -0.28370196100E+02  0.18713286371E+02  0.42759847638E+02  0.00000000000E+00 0.  1.
         11    1    3    3    0    0 -0.12854143600E+02  0.30412900904E+02 -0.40398175465E+02  0.52174573597E+02  0.00000000000E+00 0. -1.
</event>
<event>
 8    1  0.2184156E-005  0.1947582E+03  0.7561462E-02  0.1154238E+00
          1   -1    0    0  501    0  0.00000000000E+00  0.00000000000E+00  0.11702180159E+04  0.11702180159E+04  0.00000000000E+00 0. -1.
         -1   -1    0    0    0  501 -0.00000000000E+00 -0.00000000000E+00 -0.60907797001E+02  0.60907797001E+02  0.00000000000E+00 0.  1.
         23    2    1    2    0    0  0.17811801718E+03  0.63485911541E+02  0.18705194879E+03  0.28140785311E+03  0.91899179758E+02 0.  0.
         23    2    1    2    0    0 -0.17811801718E+03 -0.63485911541E+02  0.92225827009E+03  0.94971795976E+03  0.12508955730E+03 0.  0.
          5    1    4    4  502    0 -0.59516039045E+02  0.63887934120E+01  0.10498696196E+03  0.12092439856E+03  0.41800000000E+01 0. -1.
         -5    1    4    4    0  502 -0.11860197814E+03 -0.69874704953E+02  0.81727130813E+03  0.82879356121E+03  0.41800000000E+01 0. -1.
        -11    1    3    3    0    0  0.13800090035E+03  0.34346132158E+02  0.18285671920E+03  0.23164732904E+03  0.00000000000E+00 0. -1.
         11    1    3    3    0    0  0.40117116830E+02  0.29139779383E+02  0.41952295853E+01  0.49760524078E+02  0.00000000000E+00 0.  1.
</event>
<event>
 8    1  0.2184156E-005  0.1307713E+03  0.7561462E-02  0.1226316E+00
          1   -1    0    0  501    0  0.00000000000E+00  0.00000000000E+00  0.41861375305E+03  0.41861375305E+03  0.00000000000E+00 0. -1.
         -1   -1    0    0    0  501 -0.00000000000E+00 -0.00000000000E+00 -0.60728718648E+02  0.60728718648E+02  0.00000000000E+00 0.  1.
         23    2    1    2    0    0 -0.45099339733E+02 -0.99009830643E+02  0.10217079101E+03  0.17459038417E+03  0.90587166316E+02 0.  0.
         23    2    1    2    0    0  0.45099339733E+02  0.99009830643E+02  0.25571424339E+03  0.30475208753E+03  0.12508862286E+03 0.  0.
          5    1    4    4  502    0  0.43659550208E+01  0.87453162414E+02  0.64428345185E+02  0.10879154950E+03  0.41800000000E+01 0. -1.
         -5    1    4    4    0  502  0.40733384713E+02  0.11556668229E+02  0.19128589821E+03  0.19596053803E+03  0.41800000000E+01 0. -1.
        -11    1    3    3    0    0  0.20352551055E+02 -0.29696227099E+02  0.60818816268E+02  0.70675460031E+02  0.00000000000E+00 0.  1.
         11    1    3    3    0    0 -0.65451890789E+02 -0.69313603544E+02  0.41351974742E+02  0.10391492414E+03  0.00000000000E+00 0. -1.
</event>
<event>
 8    1  0.2184156E-005  0.8684136E+02  0.7561462E-02  0.1310686E+00
         -1   -1    0    0    0  501 -0.00000000000E+00  0.00000000000E+00  0.50250476316E+03  0.50250476316E+03  0.00000000000E+00 0.  1.
          1   -1    0    0  501    0  0.00000000000E+00 -0.00000000000E+00 -0.30380610974E+02  0.30380610974E+02  0.00000000000E+00 0. -1.
         23    2    1    2    0    0 -0.57145398336E+02  0.34561201424E+00  0.20520145547E+03  0.23261806723E+03  0.93476263702E+02 0.  0.
         23    2    1    2    0    0  0.57145398336E+02 -0.34561201424E+00  0.26692269672E+03  0.30026730691E+03  0.12508802331E+03 0.  0.
          5    1    4    4  502    0  0.50383594426E+02 -0.22630487014E+02  0.31624755349E+02  0.63782780440E+02  0.41800000000E+01 0. -1.
         -5    1    4    4    0  502  0.67618039098E+01  0.22284875000E+02  0.23529794137E+03  0.23648452647E+03  0.41800000000E+01 0. -1.
        -11    1    3    3    0    0  0.13479714010E+02  0.17367060445E+02  0.11359062560E+03  0.11569852075E+03  0.00000000000E+00 0.  1.
         11    1    3    3    0    0 -0.70625112345E+02 -0.17021448431E+02  0.91610829866E+02  0.11691954648E+03  0.00000000000E+00 0. -1.
</event>
<event>
 8    1  0.2184156E-005  0.1015095E+03  0.7561462E-02  0.1277153E+00
         -2   -1    0    0    0  501 -0.00000000000E+00  0.00000000000E+00  0.82622368064E+02  0.82622368064E+02  0.00000000000E+00 0.  1.
          2   -1    0    0  501    0  0.00000000000E+00 -0.00000000000E+00 -0.18466472527E+03  0.18466472527E+03  0.00000000000E+00 0. -1.
         23    2    1    2    0    0  0.31521895998E+02 -0.17614305971E+02  0.61987605835E+01  0.97970177676E+02  0.90861638654E+02 0.  0.
         23    2    1    2    0    0 -0.31521895998E+02  0.17614305971E+02 -0.10824111779E+03  0.16931691565E+03  0.12509270420E+03 0.  0.
          5    1    4    4  502    0 -0.17197552429E+02 -0.45220913810E+02 -0.67611370678E+01  0.49029299707E+02  0.41800000000E+01 0.  1.
         -5    1    4    4    0  502 -0.14324343569E+02  0.62835219781E+02 -0.10147998072E+03  0.12028761595E+03  0.41800000000E+01 0.  1.
        -11    1    3    3    0    0 -0.11644991623E+02  0.26013712276E+02 -0.16023675378E+02  0.32696746457E+02  0.00000000000E+00 0. -1.
         11    1    3    3    0    0  0.43166887621E+02 -0.43628018247E+02  0.22222435961E+02  0.65273431219E+02  0.00000000000E+00 0.  1.
</event>
<event>
 8    1  0.2184156E-005  0.1314210E+03  0.7561462E-02  0.1225362E+00
         -4   -1    0    0    0  501 -0.00000000000E+00  0.00000000000E+00  0.21455455620E+03  0.21455455620E+03  0.00000000000E+00 0.  1.
          4   -1    0    0  501    0  0.00000000000E+00 -0.00000000000E+00 -0.93523838177E+02  0.93523838177E+02  0.00000000000E+00 0. -1.
         23    2    1    2    0    0  0.20260205444E+02  0.79519807878E+02  0.96572735577E+02  0.15648820217E+03  0.91806254653E+02 0.  0.
         23    2    1    2    0    0 -0.20260205444E+02 -0.79519807878E+02  0.24457982444E+02  0.15159019220E+03  0.12509003836E+03 0.  0.
          5    1    4    4  502    0 -0.62485337703E+02 -0.74138356337E+02  0.41499252715E+02  0.10554891607E+03  0.41800000000E+01 0. -1.
         -5    1    4    4    0  502  0.42225132259E+02 -0.53814515402E+01 -0.17041270272E+02  0.46041276128E+02  0.41800000000E+01 0. -1.
        -11    1    3    3    0    0  0.53867794723E+02  0.25973017642E+02  0.43597898848E+02  0.74007524873E+02  0.00000000000E+00 0.  1.
         11    1    3    3    0    0 -0.33607589280E+02  0.53546790235E+02  0.52974836729E+02  0.82480677302E+02  0.00000000000E+00 0. -1.
</event>
<event>
 8    1  0.2184156E-005  0.1057383E+03  0.7561462E-02  0.1268672E+00
          2   -1    0    0  501    0  0.00000000000E+00  0.00000000000E+00  0.78897394617E+03  0.78897394617E+03  0.00000000000E+00 0. -1.
         -2   -1    0    0    0  501 -0.00000000000E+00 -0.00000000000E+00 -0.17490121636E+02  0.17490121636E+02  0.00000000000E+00 0.  1.
         23    2    1    2    0    0  0.42739537618E+02 -0.54986767009E+01  0.26911490941E+03  0.28696327485E+03  0.89823065672E+02 0.  0.
         23    2    1    2    0    0 -0.42739537618E+02  0.54986767009E+01  0.50236891513E+03  0.51950079296E+03  0.12509853506E+03 0.  0.
          5    1    4    4  502    0  0.13503552123E+02 -0.42657696092E+02  0.31160328802E+03  0.31482710567E+03  0.41800000000E+01 0. -1.
         -5    1    4    4    0  502 -0.56243089742E+02  0.48156372793E+02  0.19076562710E+03  0.20467368729E+03  0.41800000000E+01 0. -1.
        -11    1    3    3    0    0  0.42607134357E+02  0.32991314122E+02  0.10076000271E+03  0.11426448640E+03  0.00000000000E+00 0. -1.
         11    1    3    3    0    0  0.13240326136E+00 -0.38489990823E+02  0.16835490670E+03  0.17269878846E+03  0.00000000000E+00 0.  1.
</event>
<event>
 8    1  0.2184156E-005  0.9274968E+02  0.7561462E-02  0.1296326E+00
          4   -1    0    0  501    0  0.00000000000E+00  0.00000000000E+00  0.44686261671E+03  0.44686261671E+03  0.00000000000E+00 0. -1.
         -4   -1    0    0    0  501 -0.00000000000E+00 -0.00000000000E+00 -0.46235220586E+02  0.46235220586E+02  0.00000000000E+00 0.  1.
         23    2    1    2    0    0  0.21713763247E+02 -0.11645604392E+02  0.24468561448E+02  0.95920023478E+02  0.89413828845E+02 0.  0.
         23    2    1    2    0    0 -0.21713763247E+02  0.11645604392E+02  0.37615883467E+03  0.39717781382E+03  0.12509052429E+03 0.  0.
          5    1    4    4  502    0  0.23371652321E+02  0.50525101205E+02  0.26695835051E+03  0.27273293401E+03  0.41800000000E+01 0. -1.
         -5    1    4    4    0  502 -0.45085415568E+02 -0.38879496812E+02  0.10920048416E+03  0.12444487981E+03  0.41800000000E+01 0. -1.
        -11    1    3    3    0    0  0.30936627277E+02  0.20127929040E+02  0.44054892524E+02  0.57472097491E+02  0.00000000000E+00 0. -1.
         11    1    3    3    0    0 -0.92228640298E+01 -0.31773533432E+02 -0.19586331076E+02  0.38447925987E+02  0.00000000000E+00 0.  1.
</event>
<event>
 8    1  0.2184156E-005  0.1218797E+03  0.7561462E-02  0.1240028E+00
          1   -1    0    0  501    0  0.00000000000E+00  0.00000000000E+00  0.10135655397E+03  0.10135655397E+03  0.00000000000E+00 0. -1.
         -1   -1    0    0    0  501 -0.00000000000E+00 -0.00000000000E+00 -0.16106138789E+03  0.16106138789E+03  0.00000000000E+00 0.  1.
         23    2    1    2    0    0 -0.83123278709E+02 -0.10687952726E+02 -0.13545339276E+02  0.10493284216E+03  0.61674251930E+02 0.  0.
         23    2    1    2    0    0  0.83123278709E+02  0.10687952726E+02 -0.46159494637E+02  0.15748509970E+03  0.12508855218E+03 0.  0.
          5    1    4    4  502    0 -0.71211499865E+00  0.53782829385E+02 -0.38775494492E+01  0.54088886420E+02  0.41800000000E+01 0. -1.
         -5    1    4    4    0  502  0.83835393707E+02 -0.43094876659E+02 -0.42281945188E+02  0.10339621328E+03  0.41800000000E+01 0. -1.
        -11    1    3    3    0    0 -0.30479138529E+02 -0.26603649433E+02 -0.26586401188E+02  0.48410420126E+02  0.00000000000E+00 0.  1.
         11    1    3    3    0    0 -0.52644140180E+02  0.15915696707E+02  0.13041061912E+02  0.56522422035E+02  0.00000000000E+00 0. -1.
</event>
<event>
 8    1  0.2184156E-005  0.1059040E+03  0.7561462E-02  0.1268349E+00
          2   -1    0    0  501    0  0.00000000000E+00  0.00000000000E+00  0.34949997287E+03  0.34949997287E+03  0.00000000000E+00 0. -1.
         -2   -1    0    0    0  501 -0.00000000000E+00 -0.00000000000E+00 -0.49662486863E+02  0.49662486863E+02  0.00000000000E+00 0.  1.
         23    2    1    2    0    0 -0.47212409944E+02  0.10171294857E+02  0.50639338385E+02  0.11617832788E+03  0.92739389612E+02 0.  0.
         23    2    1    2    0    0  0.47212409944E+02 -0.10171294857E+02  0.24919814762E+03  0.28298413185E+03  0.12509130749E+03 0.  0.
          5    1    4    4  502    0 -0.12100124287E+02  0.40721070029E+02  0.35883579983E+02  0.55764883793E+02  0.41800000000E+01 0.  1.
         -5    1    4    4    0  502  0.59312534231E+02 -0.50892364886E+02  0.21331456764E+03  0.22721924806E+03  0.41800000000E+01 0.  1.
        -11    1    3    3    0    0  0.15597446240E+01 -0.28543770475E+02  0.45449716216E+02  0.53692237245E+02  0.00000000000E+00 0. -1.
         11    1    3    3    0    0 -0.48772154568E+02  0.38715065333E+02  0.51896221690E+01  0.62486090638E+02  0.00000000000E+00 0.  1.
</event>
<event>
 8    1  0.2184156E-005  0.9872416E+02  0.7561462E-02  0.1283002E+00
         -1   -1    0    0    0  501 -0.00000000000E+00  0.00000000000E+00  0.22618495077E+02  0.22618495077E+02  0.00000000000E+00 0.  1.
          1   -1    0    0  501    0  0.00000000000E+00 -0.00000000000E+00 -0.60932234853E+03  0.60932234853E+03  0.00000000000E+00 0. -1.
         23    2    1    2    0    0  0.16801065762E+02  0.98489804631E+01 -0.13945289821E+03  0.16711829821E+03  0.90011868938E+02 0.  0.
         23    2    1    2    0    0 -0.16801065762E+02 -0.98489804631E+01 -0.44725095524E+03  0.46482254540E+03  0.12508918226E+03 0.  0.
          5    1    4    4  502    0  0.69499392049E+01 -0.61929932846E+02 -0.15731217786E+03  0.16925782682E+03  0.41800000000E+01 0.  1.
         -5    1    4    4    0  502 -0.23751004967E+02  0.52080952383E+02 -0.28993877738E+03  0.29556471858E+03  0.41800000000E+01 0.  1.
        -11    1    3    3    0    0  0.28583990686E+02  0.37725697802E+02 -0.36389539540E+02  0.59703194103E+02  0.00000000000E+00 0.  1.
         11    1    3    3    0    0 -0.11782924924E+02 -0.27876717339E+02 -0.10306335867E+03  0.10741510410E+03  0.00000000000E+00 0. -1.
</event>
<event>
 8    1  0.2184156E-005  0.2359880E+03  0.7561462E-02  0.1122495E+00
          3   -1    0    0  501    0  0.00000000000E+00  0.00000000000E+00  0.11762558461E+04  0.11762558461E+04  0.00000000000E+00 0. -1.
         -3   -1    0    0    0  501 -0.00000000000E+00 -0.00000000000E+00 -0.61865043582E+02  0.61865043582E+02  0.00000000000E+00 0.  1.
         23    2    1    2    0    0  0.12415776454E+03 -0.17743020363E+03  0.27420306990E+03  0.36150241446E+03  0.92736424662E+02 0.  0.
         23    2    1    2    0    0 -0.12415776454E+03  0.17743020363E+03  0.84018773262E+03  0.87661847523E+03  0.12509155610E+03 0.  0.
          5    1    4    4  502    0 -0.30570082104E+02 -0.53384686240E+01  0.24498962651E+03  0.24698262827E+03  0.41800000000E+01 0. -1.
         -5    1    4    4    0  502 -0.93587682436E+02  0.18276867226E+03  0.59519810611E+03  0.62963584696E+03  0.41800000000E+01 0. -1.
        -11    1    3    3    0    0  0.89819405198E+02 -0.17967275992E+03  0.22747960949E+03  0.30347454414E+03  0.00000000000E+00 0. -1.
         11    1    3    3    0    0  0.34338359342E+02  0.22425562852E+01  0.46723460410E+02  0.58027870318E+02  0.00000000000E+00 0.  1.
</event>
<event>
 8    1  0.2184156E-005  0.1310100E+03  0.7561462E-02  0.1225965E+00
          2   -1    0    0  501    0  0.00000000000E+00  0.00000000000E+00  0.15224980611E+03  0.15224980611E+03  0.00000000000E+00 0. -1.
         -2   -1    0    0    0  501 -0.00000000000E+00 -0.00000000000E+00 -0.21590566656E+03  0.21590566656E+03  0.00000000000E+00 0.  1.
         23    2    1    2    0    0 -0.97406968579E+01  0.11161966797E+03 -0.12371083594E+03  0.18980735531E+03  0.90380472146E+02 0.  0.
         23    2    1    2    0    0  0.97406968579E+01 -0.11161966797E+03  0.60054975499E+02  0.17834811736E+03  0.12509044500E+03 0.  0.
          5    1    4    4  502    0 -0.15952911773E+02 -0.11080204426E+03  0.86272635771E+02  0.14139316988E+03  0.41800000000E+01 0.  1.
         -5    1    4    4    0  502  0.25693608631E+02 -0.81762371406E+00 -0.26217660272E+02  0.36954947479E+02  0.41800000000E+01 0.  1.
        -11    1    3    3    0    0  0.14859394172E+02  0.89952617917E+02 -0.39349835008E+02  0.99300979756E+02  0.00000000000E+00 0. -1.
         11    1    3    3    0    0 -0.24600091030E+02  0.21667050057E+02 -0.84361000935E+02  0.90506375552E+02  0.00000000000E+00 0.  1.
</event>
<event>
 8    1  0.2184156E-005  0.2184560E+03  0.7561462E-02  0.1135039E+00
          2   -1    0    0  501    0  0.00000000000E+00  0.00000000000E+00  0.24911976357E+04  0.24911976357E+04  0.00000000000E+00 0. -1.
         -2   -1    0    0    0  501 -0.00000000000E+00 -0.00000000000E+00 -0.40217668748E+02  0.40217668748E+02  0.00000000000E+00 0.  1.
         23    2    1    2    0    0 -0.17198472222E+03  0.99198347488E+02  0.31707329997E+03  0.38464458372E+03  0.89425507575E+02 0.  0.
         23    2    1    2    0    0  0.17198472222E+03 -0.99198347488E+02  0.21339066670E+04  0.21467707207E+04  0.12509119546E+03 0.  0.
          5    1    4    4  502    0  0.20246135616E+02 -0.58630306963E+02  0.31407845870E+03  0.32017209360E+03  0.41800000000E+01 0.  1.
         -5    1    4    4    0  502  0.15173858661E+03 -0.40568040524E+02  0.18198282083E+04  0.18265986271E+04  0.41800000000E+01 0.  1.
        -11    1    3    3    0    0 -0.70229529958E+02  0.91818387220E+02  0.17509789176E+03  0.20981438180E+03  0.00000000000E+00 0. -1.
         11    1    3    3    0    0 -0.10175519227E+03  0.73799602672E+01  0.14197540821E+03  0.17483020192E+03  0.00000000000E+00 0.  1.
</event>
<event>
 8    1  0.2184156E-005  0.9143007E+02  0.7561462E-02  0.1299425E+00
          1   -1    0    0  501    0  0.00000000000E+00  0.00000000000E+00  0.15149797525E+04  0.15149797525E+04  0.00000000000E+00 0. -1.
         -1   -1    0    0    0  501 -0.00000000000E+00 -0.00000000000E+00 -0.10439416477E+02  0.10439416477E+02  0.00000000000E+00 0.  1.
         23    2    1    2    0    0  0.66064492304E+02  0.67197668257E+00  0.56343514065E+03  0.57373903730E+03  0.85745883317E+02 0.  0.
         23    2    1    2    0    0 -0.66064492304E+02 -0.67197668257E+00  0.94110519537E+03  0.95168013167E+03  0.12510441869E+03 0.  0.
          5    1    4    4  502    0 -0.99630599920E+01  0.13377007813E+02  0.12481211300E+02  0.21247586638E+02  0.41800000000E+01 0.  1.
         -5    1    4    4    0  502 -0.56101432311E+02 -0.14048984496E+02  0.92862398407E+03  0.93043254503E+03  0.41800000000E+01 0.  1.
        -11    1    3    3    0    0  0.26963199464E+02  0.42557454966E+02  0.29305001544E+03  0.29734905859E+03  0.00000000000E+00 0. -1.
         11    1    3    3    0    0  0.39101292839E+02 -0.41885478283E+02  0.27038512521E+03  0.27638997870E+03  0.00000000000E+00 0.  1.
</event>
<event>
 8    1  0.2184156E-005  0.9130536E+02  0.7561462E-02  0.1299721E+00
          2   -1    0    0  501    0  0.00000000000E+00  0.00000000000E+00  0.47010216871E+02  0.47010216871E+02  0.00000000000E+00 0. -1.
         -2   -1    0    0    0  501 -0.00000000000E+00 -0.00000000000E+00 -0.25216842549E+03  0.25216842549E+03  0.00000000000E+00 0.  1.
         23    2    1    2    0    0  0.52335877568E+00 -0.84596627226E+01 -0.11978383397E+03  0.14749704002E+03  0.85646775397E+02 0.  0.
         23    2    1    2    0    0 -0.52335877568E+00  0.84596627226E+01 -0.85374374646E+02  0.15168160234E+03  0.12508670930E+03 0.  0.
          5    1    4    4  502    0  0.50281518210E+02 -0.28326259851E+02 -0.61489291967E+02  0.84433485640E+02  0.41800000000E+01 0.  1.
         -5    1    4    4    0  502 -0.50804876986E+02  0.36785922573E+02 -0.23885082679E+02  0.67248116701E+02  0.41800000000E+01 0.  1.
        -11    1    3    3    0    0  0.23455075599E+02  0.15972065529E+02 -0.10848591976E+03  0.11213582048E+03  0.00000000000E+00 0.  1.
         11    1    3    3    0    0 -0.22931716824E+02 -0.24431728251E+02 -0.11297914212E+02  0.35361219540E+02  0.00000000000E+00 0. -1.
</event>
<event>
 8    1  0.2184156E-005  0.1954149E+03  0.7561462E-02  0.1153666E+00
         -1   -1    0    0    0  501 -0.00000000000E+00  0.00000000000E+00  0.66053219103E+02  0.66053219103E+02  0.00000000000E+00 0.  1.
          1   -1    0    0  501    0  0.00000000000E+00 -0.00000000000E+00 -0.65961611511E+03  0.65961611511E+03  0.00000000000E+00 0. -1.
         23    2    1    2    0    0  0.17047499407E+03  0.28961910309E+02 -0.21492139412E+03  0.29102227265E+03  0.92748270504E+02 0.  0.
         23    2    1    2    0    0 -0.17047499407E+03 -0.28961910309E+02 -0.37864150189E+03  0.43464706156E+03  0.12509262695E+03 0.  0.
          5    1    4    4  502    0 -0.45956480973E+02 -0.63819897352E+02 -0.98807018857E+02  0.12635377642E+03  0.41800000000E+01 0.  1.
         -5    1    4    4    0  502 -0.12451851309E+03  0.34857987043E+02 -0.27983448303E+03  0.30829328513E+03  0.41800000000E+01 0.  1.
        -11    1    3    3    0    0  0.97545826718E+02 -0.13241899805E+02 -0.61751801975E+02  0.11620594334E+03  0.00000000000E+00 0.  1.
         11    1    3    3    0    0  0.72929167348E+02  0.42203810114E+02 -0.15316959214E+03  0.17481632931E+03  0.00000000000E+00 0. -1.
</event>
<event>
 7    1  0.2184156E-005  0.1076469E+03  0.7561462E-02  0.1264991E+00
         -2   -1    0    0    0  501 -0.00000000000E+00  0.00000000000E+00  0.13959901942E+03  0.13959901942E+03  0.00000000000E+00 0.  1.
          2   -1    0    0  501    0  0.00000000000E+00 -0.00000000000E+00 -0.16280328062E+03  0.16280328062E+03  0.00000000000E+00 0. -1.
         23    2    1    2    0    0 -0.83387440411E+01 -0.10615703587E+02  0.19096042685E+02  0.93292738932E+02  0.90314165425E+02 0.  0.
          5    1    1    2  502    0 -0.47229977627E+02  0.42452469858E+02 -0.10280283329E+03  0.12090813834E+03  0.41800000000E+01 0. -1.
         -5    1    1    2    0  502  0.55568721668E+02 -0.31836766270E+02  0.60502529407E+02  0.88201422772E+02  0.41800000000E+01 0.  1.
        -11    1    3    3    0    0  0.23269685041E+02  0.28750118605E+02  0.21442275042E+02  0.42752996628E+02  0.00000000000E+00 0. -1.
         11    1    3    3    0    0 -0.31608429082E+02 -0.39365822192E+02 -0.23462323571E+01  0.50539742304E+02  0.00000000000E+00 0.  1.
</event>
<event>
 8    1  0.2184156E-005  0.1331607E+03  0.7561462E-02  0.1222840E+00
          1   -1    0    0  501    0  0.00000000000E+00  0.00000000000E+00  0.85200919331E+03  0.85200919331E+03  0.00000000000E+00 0. -1.
         -1   -1    0    0    0  501 -0.00000000000E+00 -0.00000000000E+00 -0.23080364119E+02  0.23080364119E+02  0.00000000000E+00 0.  1.
         23    2    1    2    0    0  0.74311171773E+02  0.43162822086E+02  0.30556553995E+03  0.33016558456E+03  0.90850616758E+02 0.  0.
         23    2    1    2    0    0 -0.74311171773E+02 -0.43162822086E+02  0.52336328924E+03  0.54492397287E+03  0.12509126355E+03 0.  0.
          5    1    4    4  502    0 -0.90857672211E+02 -0.66318779133E+02  0.31345308968E+03  0.33305196125E+03  0.41800000000E+01 0.  1.
         -5    1    4    4    0  502  0.16546500438E+02  0.23155957047E+02  0.20991019957E+03  0.21187201162E+03  0.41800000000E+01 0.  1.
        -11    1    3    3    0    0  0.55291716642E+02  0.71794660286E+02  0.22620219288E+03  0.24367822890E+03  0.00000000000E+00 0.  1.
         11    1    3    3    0    0  0.19019455131E+02 -0.28631838200E+02  0.79363347066E+02  0.86487355664E+02  0.00000000000E+00 0. -1.
</event>
<event>
 8    1  0.2184156E-005  0.9831673E+02  0.7561462E-02  0.1283876E+00
         -2   -1    0    0    0  501 -0.00000000000E+00  0.00000000000E+00  0.12987181613E+03  0.12987181613E+03  0.00000000000E+00 0. -1.
          2   -1    0    0  501    0  0.00000000000E+00 -0.00000000000E+00 -0.11405324866E+03  0.11405324866E+03  0.00000000000E+00 0.  1.
         23    2    1    2    0    0 -0.47457130753E+02 -0.16552301169E+02  0.27669626474E+02  0.10859275963E+03  0.92198813888E+02 0.  0.
         23    2    1    2    0    0  0.47457130753E+02  0.16552301169E+02 -0.11851058999E+02  0.13533230516E+03  0.12509287464E+03 0.  0.
          5    1    4    4  502    0 -0.28028496515E+02 -0.24512256682E+01 -0.42858538058E+02  0.51438621761E+02  0.41800000000E+01 0.  1.
         -5    1    4    4    0  502  0.75485627268E+02  0.19003526838E+02  0.31007479059E+02  0.83893683397E+02  0.41800000000E+01 0.  1.
        -11    1    3    3    0    0 -0.56530307294E+02 -0.37207292416E+02 -0.61327917267E+01  0.67953435425E+02  0.00000000000E+00 0.  1.
         11    1    3    3    0    0  0.90731765409E+01  0.20654991247E+02  0.33802418200E+02  0.40639324209E+02  0.00000000000E+00 0. -1.
</event>
<event>
 8    1  0.2184156E-005  0.1537256E+03  0.7561462E-02  0.1195968E+00
         -2   -1    0    0    0  501 -0.00000000000E+00  0.00000000000E+00  0.99052330435E+02  0.99052330435E+02  0.00000000000E+00 0.  1.
          2   -1    0    0  501    0  0.00000000000E+00 -0.00000000000E+00 -0.29416900059E+03  0.29416900059E+03  0.00000000000E+00 0. -1.
         23    2    1    2    0    0 -0.93963563868E+02  0.62232444843E+02 -0.18286646403E+02  0.14906664626E+03  0.95835458288E+02 0.  0.
         23    2    1    2    0    0  0.93963563868E+02 -0.62232444843E+02 -0.17683002375E+03  0.24415468476E+03  0.12506248144E+03 0.  0.
          5    1    4    4  502    0  0.61707443676E+02  0.27034324307E+02 -0.43008057006E+02  0.80036420854E+02  0.41800000000E+01 0. -1.
         -5    1    4    4    0  502  0.32256120193E+02 -0.89266769150E+02 -0.13382196675E+03  0.16411826391E+03  0.41800000000E+01 0. -1.
        -11    1    3    3    0    0 -0.10824740255E+03  0.34266449214E+02 -0.17035902191E+01  0.11355435668E+03  0.00000000000E+00 0.  1.
         11    1    3    3    0    0  0.14283838684E+02  0.27965995629E+02 -0.16583056184E+02  0.35512289584E+02  0.00000000000E+00 0. -1.
</event>
<event>
 8    1  0.2184156E-005  0.1535967E+03  0.7561462E-02  0.1196122E+00
         -1   -1    0    0    0  501 -0.00000000000E+00  0.00000000000E+00  0.83188070918E+02  0.83188070918E+02  0.00000000000E+00 0.  1.
          1   -1    0    0  501    0  0.00000000000E+00 -0.00000000000E+00 -0.43273188310E+03  0.43273188310E+03  0.00000000000E+00 0. -1.
         23    2    1    2    0    0 -0.69109088548E+01  0.13610222316E+03 -0.63784343739E+02  0.17551479583E+03  0.90362742536E+02 0.  0.
         23    2    1    2    0    0  0.69109088548E+01 -0.13610222316E+03 -0.28575946844E+03  0.34040515819E+03  0.12508246124E+03 0.  0.
          5    1    4    4  502    0 -0.47708748829E+02 -0.55956844745E+02 -0.61202528917E+02  0.95762806635E+02  0.41800000000E+01 0. -1.
         -5    1    4    4    0  502  0.54619657684E+02 -0.80145378411E+02 -0.22455693952E+03  0.24464235155E+03  0.41800000000E+01 0. -1.
        -11    1    3    3    0    0  0.11039103283E+01  0.43594220242E+02 -0.69978340500E+02  0.82453882842E+02  0.00000000000E+00 0. -1.
         11    1    3    3    0    0 -0.80148191831E+01  0.92508002914E+02  0.61939967612E+01  0.93060912985E+02  0.00000000000E+00 0.  1.
</event>
<event>
 8    1  0.2184156E-005  0.1099779E+03  0.7561462E-02  0.1260611E+00
          1   -1    0    0  501    0  0.00000000000E+00  0.00000000000E+00  0.51171197690E+02  0.51171197690E+02  0.00000000000E+00 0. -1.
         -1   -1    0    0    0  501 -0.00000000000E+00 -0.00000000000E+00 -0.28982983981E+03  0.28982983981E+03  0.00000000000E+00 0.  1.
         23    2    1    2    0    0  0.27562856880E+02 -0.27400556477E+02 -0.15719862084E+03  0.18674767507E+03  0.93020353554E+02 0.  0.
         23    2    1    2    0    0 -0.27562856880E+02  0.27400556477E+02 -0.81460021285E+02  0.15425336243E+03  0.12509141929E+03 0.  0.
          5    1    4    4  502    0 -0.38917786008E+02 -0.41137386016E+02 -0.16704328460E+02  0.59189404333E+02  0.41800000000E+01 0. -1.
         -5    1    4    4    0  502  0.11354929128E+02  0.68537942493E+02 -0.64755692825E+02  0.95063958101E+02  0.41800000000E+01 0. -1.
        -11    1    3    3    0    0  0.25848282767E+01  0.30451303633E+02 -0.88007555524E+02  0.93162723551E+02  0.00000000000E+00 0.  1.
         11    1    3    3    0    0  0.24978028604E+02 -0.57851860111E+02 -0.69191065315E+02  0.93584951518E+02  0.00000000000E+00 0. -1.
</event>
<event>
 7    1  0.2184156E-005  0.1358579E+03  0.7561462E-02  0.1219014E+00
          1   -1    0    0  501    0  0.00000000000E+00  0.00000000000E+00  0.71370081248E+03  0.71370081248E+03  0.00000000000E+00 0. -1.
         -1   -1    0    0    0  501 -0.00000000000E+00 -0.00000000000E+00 -0.17679307387E+03  0.17679307387E+03  0.00000000000E+00 0.  1.
         23    2    1    2    0    0 -0.43004832317E+02 -0.73648769602E+02 -0.14194722092E+03  0.18846839386E+03  0.89987582977E+02 0.  0.
          5    1    1    2  502    0 -0.15830248647E+02  0.10528074189E+03  0.49578515691E+03  0.50710455095E+03  0.41800000000E+01 0. -1.
         -5    1    1    2    0  502  0.58835080964E+02 -0.31631972285E+02  0.18306980262E+03  0.19492094154E+03  0.41800000000E+01 0.  1.
        -11    1    3    3    0    0  0.10926274536E+02 -0.99654870199E+01 -0.87693109168E+02  0.88931298215E+02  0.00000000000E+00 0. -1.
         11    1    3    3    0    0 -0.53931106853E+02 -0.63683282582E+02 -0.54254111749E+02  0.99537095640E+02  0.00000000000E+00 0.  1.
</event>
<event>
 8    1  0.2184156E-005  0.1561898E+03  0.7561462E-02  0.1193067E+00
         -1   -1    0    0    0  501 -0.00000000000E+00  0.00000000000E+00  0.19460791714E+02  0.19460791714E+02  0.00000000000E+00 0.  1.
          1   -1    0    0  501    0  0.00000000000E+00 -0.00000000000E+00 -0.19596688607E+04  0.19596688607E+04  0.00000000000E+00 0. -1.
         23    2    1    2    0    0 -0.14063330659E+03 -0.11229526676E+00 -0.53351097587E+03  0.55989729140E+03  0.95253745370E+02 0.  0.
         23    2    1    2    0    0  0.14063330659E+03  0.11229526676E+00 -0.14066970931E+04  0.14192323610E+04  0.12508414464E+03 0.  0.
          5    1    4    4  502    0  0.13192998743E+03  0.34129131925E+02 -0.80228890096E+03  0.81379068085E+03  0.41800000000E+01 0.  1.
         -5    1    4    4    0  502  0.87033191609E+01 -0.34016836658E+02 -0.60440819212E+03  0.60544168013E+03  0.41800000000E+01 0.  1.
        -11    1    3    3    0    0 -0.10389339226E+03  0.15418221801E+01 -0.49817509102E+03  0.50889550547E+03  0.00000000000E+00 0. -1.
         11    1    3    3    0    0 -0.36739914337E+02 -0.16541174468E+01 -0.35335884847E+02  0.51001785929E+02  0.00000000000E+00 0.  1.
</event>
<event>
 8    1  0.2184156E-005  0.1058498E+03  0.7561462E-02  0.1268454E+00
          4   -1    0    0  501    0  0.00000000000E+00  0.00000000000E+00  0.47582781881E+02  0.47582781881E+02  0.00000000000E+00 0. -1.
         -4   -1    0    0    0  501 -0.00000000000E+00 -0.00000000000E+00 -0.30422855519E+03  0.30422855519E+03  0.00000000000E+00 0.  1.
         23    2    1    2    0    0  0.15685781483E+02 -0.20661328105E+02 -0.18456068473E+03  0.20512406386E+03  0.85675556653E+02 0.  0.
         23    2    1    2    0    0 -0.15685781483E+02  0.20661328105E+02 -0.72085088573E+02  0.14668727320E+03  0.12509181390E+03 0.  0.
          5    1    4    4  502    0  0.35397252514E+02 -0.32573669880E+02 -0.50117079145E+02  0.69593128087E+02  0.41800000000E+01 0.  1.
         -5    1    4    4    0  502 -0.51083033998E+02  0.53234997985E+02 -0.21968009429E+02  0.77094145116E+02  0.41800000000E+01 0.  1.
        -11    1    3    3    0    0  0.28501128147E+02  0.27544524370E+02 -0.82029314101E+02  0.91103367118E+02  0.00000000000E+00 0. -1.
         11    1    3    3    0    0 -0.12815346664E+02 -0.48205852475E+02 -0.10253137063E+03  0.11402069675E+03  0.00000000000E+00 0.  1.
</event>
<event>
 8    1  0.2184156E-005  0.1035348E+03  0.7561462E-02  0.1273034E+00
          1   -1    0    0  501    0  0.00000000000E+00  0.00000000000E+00  0.27468840978E+03  0.27468840978E+03  0.00000000000E+00 0. -1.
         -1   -1    0    0    0  501 -0.00000000000E+00 -0.00000000000E+00 -0.43725415943E+02  0.43725415943E+02  0.00000000000E+00 0.  1.
         23    2    1    2    0    0 -0.10151932510E+02  0.80151113671E+01  0.11560026905E+03  0.14775573629E+03  0.91109997576E+02 0.  0.
         23    2    1    2    0    0  0.10151932510E+02 -0.80151113671E+01  0.11536272478E+03  0.17065808943E+03  0.12509325111E+03 0.  0.
          5    1    4    4  502    0  0.62382760754E+02 -0.29174018813E+02  0.68824572620E+02  0.97452688056E+02  0.41800000000E+01 0. -1.
         -5    1    4    4    0  502 -0.52230828244E+02  0.21158907445E+02  0.46538152163E+02  0.73205401373E+02  0.41800000000E+01 0. -1.
        -11    1    3    3    0    0 -0.30464319556E+02 -0.27247733612E+02  0.92102925683E+02  0.10076439189E+03  0.00000000000E+00 0. -1.
         11    1    3    3    0    0  0.20312387046E+02  0.35262844979E+02  0.23497343366E+02  0.46991344402E+02  0.00000000000E+00 0.  1.
</event>
<event>
 8    1  0.2184156E-005  0.1644245E+03  0.7561462E-02  0.1183790E+00
          1   -1    0    0  501    0  0.00000000000E+00  0.00000000000E+00  0.56319462216E+02  0.56319462216E+02  0.00000000000E+00 0. -1.
         -1   -1    0    0    0  501 -0.00000000000E+00 -0.00000000000E+00 -0.56533626023E+03  0.56533626023E+03  0.00000000000E+00 0.  1.
         23    2    1    2    0    0  0.12385932506E+03  0.65243690406E+02 -0.27113705059E+03  0.31861764688E+03  0.91673513921E+02 0.  0.
         23    2    1    2    0    0 -0.12385932506E+03 -0.65243690406E+02 -0.23787974742E+03  0.30303807557E+03  0.12508968571E+03 0.  0.
          5    1    4    4  502    0 -0.70319613173E+02 -0.97021535060E+02 -0.11984388920E+03  0.16952302628E+03  0.41800000000E+01 0. -1.
         -5    1    4    4    0  502 -0.53539711884E+02  0.31777844654E+02 -0.11803585822E+03  0.13351504929E+03  0.41800000000E+01 0. -1.
        -11    1    3    3    0    0  0.65429246757E+02  0.10092267717E+02 -0.20215802048E+03  0.21272213200E+03  0.00000000000E+00 0.  1.
         11    1    3    3    0    0  0.58430078301E+02  0.55151422689E+02 -0.68979030109E+02  0.10589551487E+03  0.00000000000E+00 0. -1.
</event>
<event>
 8    1  0.2184156E-005  0.1903244E+03  0.7561462E-02  0.1158169E+00
         -1   -1    0    0    0  501 -0.00000000000E+00  0.00000000000E+00  0.95102789194E+02  0.95102789194E+02  0.00000000000E+00 0.  1.
          1   -1    0    0  501    0  0.00000000000E+00 -0.00000000000E+00 -0.47652173217E+03  0.47652173217E+03  0.00000000000E+00 0. -1.
         23    2    1    2    0    0 -0.12971611526E+03  0.10267193700E+03 -0.78482074049E+02  0.20449256204E+03  0.91049298617E+02 0.  0.
         23    2    1    2    0    0  0.12971611526E+03 -0.10267193700E+03 -0.30293686892E+03  0.36713195932E+03  0.12508929528E+03 0.  0.
          5    1    4    4  502    0  0.13337746484E+03 -0.33717970198E+02 -0.18830254123E+03  0.23324186819E+03  0.41800000000E+01 0. -1.
         -5    1    4    4    0  502 -0.36613495749E+01 -0.68953966798E+02 -0.11463432769E+03  0.13389009113E+03  0.41800000000E+01 0. -1.
        -11    1    3    3    0    0 -0.40236985005E+01  0.26624916448E+02  0.14548701111E+02  0.30606225339E+02  0.00000000000E+00 0.  1.
         11    1    3    3    0    0 -0.12569241676E+03  0.76047020548E+02 -0.93030775160E+02  0.17388633670E+03  0.00000000000E+00 0. -1.
</event>
<event>
 8    1  0.2184156E-005  0.1315547E+03  0.7561462E-02  0.1225167E+00
         -2   -1    0    0    0  501 -0.00000000000E+00  0.00000000000E+00  0.23788516433E+02  0.23788516433E+02  0.00000000000E+00 0.  1.
          2   -1    0    0  501    0  0.00000000000E+00 -0.00000000000E+00 -0.13953163987E+04  0.13953163987E+04  0.00000000000E+00 0. -1.
         23    2    1    2    0    0  0.10973085906E+03 -0.81870382794E+01 -0.26501005781E+03  0.30011480839E+03  0.87924276809E+02 0.  0.
         23    2    1    2    0    0 -0.10973085906E+03  0.81870382794E+01 -0.11065178245E+04  0.11189901068E+04  0.12509705876E+03 0.  0.
          5    1    4    4  502    0 -0.63538526244E+02 -0.38080541399E+02 -0.27302123433E+03  0.28292284946E+03  0.41800000000E+01 0.  1.
         -5    1    4    4    0  502 -0.46192332813E+02  0.46267579678E+02 -0.83349659017E+03  0.83606725733E+03  0.41800000000E+01 0.  1.
        -11    1    3    3    0    0  0.84314740493E+02 -0.30420267341E+02 -0.24495611704E+03  0.26084069354E+03  0.00000000000E+00 0. -1.
         11    1    3    3    0    0  0.25416118564E+02  0.22233229061E+02 -0.20053940765E+02  0.39274114854E+02  0.00000000000E+00 0.  1.
</event>
<event>
 8    1  0.2184156E-005  0.1371065E+03  0.7561462E-02  0.1217276E+00
         -1   -1    0    0    0  501 -0.00000000000E+00  0.00000000000E+00  0.10169387118E+03  0.10169387118E+03  0.00000000000E+00 0.  1.
          1   -1    0    0  501    0  0.00000000000E+00 -0.00000000000E+00 -0.20232840566E+03  0.20232840566E+03  0.00000000000E+00 0. -1.
         23    2    1    2    0    0 -0.75942222954E+02 -0.50982905634E+02 -0.23212853411E+02  0.13079362770E+03  0.90563008945E+02 0.  0.
         23    2    1    2    0    0  0.75942222954E+02  0.50982905634E+02 -0.77421681068E+02  0.17322864915E+03  0.12509024859E+03 0.  0.
          5    1    4    4  502    0  0.33034447209E+02 -0.38746554978E+02 -0.76367590571E+01  0.51656197247E+02  0.41800000000E+01 0. -1.
         -5    1    4    4    0  502  0.42907775745E+02  0.89729460612E+02 -0.69784922011E+02  0.12157245190E+03  0.41800000000E+01 0. -1.
        -11    1    3    3    0    0  0.16018904333E+02 -0.21884461527E+02 -0.21021345383E+02  0.34313727778E+02  0.00000000000E+00 0. -1.
         11    1    3    3    0    0 -0.91961127287E+02 -0.29098444107E+02 -0.21915080283E+01  0.96479899921E+02  0.00000000000E+00 0.  1.
</event>
<event>
 7    1  0.2184156E-005  0.1205277E+03  0.7561462E-02  0.1242229E+00
          1   -1    0    0  501    0  0.00000000000E+00  0.00000000000E+00  0.37735404020E+03  0.37735404020E+03  0.00000000000E+00 0. -1.
         -1   -1    0    0    0  501 -0.00000000000E+00 -0.00000000000E+00 -0.64974168671E+02  0.64974168671E+02  0.00000000000E+00 0.  1.
         23    2    1    2    0    0  0.23315834968E+02 -0.11006865820E+02  0.14043357253E+02  0.97195080777E+02  0.92654673864E+02 0.  0.
          5    1    1    2  502    0  0.64487481644E+02  0.41396111592E+01  0.21224070207E+03  0.22189943598E+03  0.41800000000E+01 0. -1.
         -5    1    1    2    0  502 -0.87803316612E+02  0.68672546608E+01  0.86095812204E+02  0.12323369212E+03  0.41800000000E+01 0.  1.
        -11    1    3    3    0    0  0.46754056205E+02 -0.32006498385E+02 -0.10071753674E+02  0.57548222671E+02  0.00000000000E+00 0.  1.
         11    1    3    3    0    0 -0.23438221237E+02  0.20999632566E+02  0.24115110927E+02  0.39646858106E+02  0.00000000000E+00 0. -1.
</event>
<event>
 8    1  0.2184156E-005  0.1040508E+03  0.7561462E-02  0.1272001E+00
          1   -1    0    0  501    0  0.00000000000E+00  0.00000000000E+00  0.25777490960E+03  0.25777490960E+03  0.00000000000E+00 0. -1.
         -1   -1    0    0    0  501 -0.00000000000E+00 -0.00000000000E+00 -0.71856305751E+02  0.71856305751E+02  0.00000000000E+00 0.  1.
         23    2    1    2    0    0 -0.57734321919E+02 -0.40513532419E+02  0.32866934318E+02  0.11975750569E+03  0.91033106945E+02 0.  0.
         23    2    1    2    0    0  0.57734321919E+02  0.40513532419E+02  0.15305166954E+03  0.20987370967E+03  0.12509021635E+03 0.  0.
          5    1    4    4  502    0  0.43622277834E+02  0.62281925167E+02  0.16445305397E+03  0.18122974559E+03  0.41800000000E+01 0.  1.
         -5    1    4    4    0  502  0.14112044085E+02 -0.21768392747E+02 -0.11401384437E+02  0.28643964079E+02  0.41800000000E+01 0.  1.
        -11    1    3    3    0    0 -0.17464913578E+02  0.23962838769E+02  0.32148940028E+02  0.43735514094E+02  0.00000000000E+00 0. -1.
         11    1    3    3    0    0 -0.40269408342E+02 -0.64476371188E+02  0.71799428976E+00  0.76021991592E+02  0.00000000000E+00 0.  1.
</event>
<event>
 8    1  0.2184156E-005  0.1132472E+03  0.7561462E-02  0.1254672E+00
          2   -1    0    0  501    0  0.00000000000E+00  0.00000000000E+00  0.22422091108E+04  0.22422091108E+04  0.00000000000E+00 0. -1.
         -2   -1    0    0    0  501 -0.00000000000E+00 -0.00000000000E+00 -0.13180233101E+02  0.13180233101E+02  0.00000000000E+00 0.  1.
         23    2    1    2    0    0  0.71073972290E+02  0.74150638538E+01  0.30462833573E+03  0.32560402265E+03  0.90072548150E+02 0.  0.
         23    2    1    2    0    0 -0.71073972290E+02 -0.74150638538E+01  0.19244005420E+04  0.19297853213E+04  0.12508975760E+03 0.  0.
          5    1    4    4  502    0 -0.34884991306E+02  0.47032983831E+02  0.43486703671E+03  0.43881189160E+03  0.41800000000E+01 0.  1.
         -5    1    4    4    0  502 -0.36188980984E+02 -0.54448047685E+02  0.14895335053E+04  0.14909734297E+04  0.41800000000E+01 0.  1.
        -11    1    3    3    0    0  0.46149520190E+02  0.40123851934E+02  0.24915803598E+03  0.25655297426E+03  0.00000000000E+00 0. -1.
         11    1    3    3    0    0  0.24924452100E+02 -0.32708788081E+02  0.55470299751E+02  0.69051048396E+02  0.00000000000E+00 0.  1.
</event>
<event>
 6    1  0.2184156E-005  0.8308310E+02  0.7561462E-02  0.1320523E+00
         -4   -1    0    0    0  501 -0.00000000000E+00  0.00000000000E+00  0.17987871358E+02  0.17987871358E+02  0.00000000000E+00 0.  1.
          4   -1    0    0  501    0  0.00000000000E+00 -0.00000000000E+00 -0.78305096699E+03  0.78305096699E+03  0.00000000000E+00 0. -1.
          5    1    1    2  502    0 -0.41818157551E+02 -0.38739504108E+02 -0.58888481576E+03  0.59165218339E+03  0.41800000000E+01 0. -1.
         -5    1    1    2    0  502  0.43319268857E+02 -0.19972175656E+02 -0.90423887054E+02  0.10232007919E+03  0.41800000000E+01 0.  1.
        -11    1    1    2    0    0  0.77456485630E+01  0.27857667589E+02 -0.56888080950E+02  0.63814563145E+02  0.00000000000E+00 0.  1.
         11    1    1    2    0    0 -0.92467598693E+01  0.30854012175E+02 -0.28866311869E+02  0.43252012627E+02  0.00000000000E+00 0. -1.
</event>
<event>
 8    1  0.2184156E-005  0.1090167E+03  0.7561462E-02  0.1262402E+00
         -3   -1    0    0    0  501 -0.00000000000E+00  0.00000000000E+00  0.32941321779E+02  0.32941321779E+02  0.00000000000E+00 0.  1.
          3   -1    0    0  501    0  0.00000000000E+00 -0.00000000000E+00 -0.54916759749E+03  0.54916759749E+03  0.00000000000E+00 0. -1.
         23    2    1    2    0    0 -0.47760783298E+02 -0.11630861025E+02 -0.93562563102E+02  0.13858661243E+03  0.89643329825E+02 0.  0.
         23    2    1    2    0    0  0.47760783298E+02  0.11630861025E+02 -0.42266371261E+03  0.44352230684E+03  0.12510417001E+03 0.  0.
          5    1    4    4  502    0  0.53735144413E+02 -0.37995134988E+02 -0.34374103092E+03  0.35000923526E+03  0.41800000000E+01 0. -1.
         -5    1    4    4    0  502 -0.59743611141E+01  0.49625996012E+02 -0.78922681690E+02  0.93513071578E+02  0.41800000000E+01 0. -1.
        -11    1    3    3    0    0  0.24641266627E+02  0.96540649951E+01 -0.29125298114E+02  0.39353220734E+02  0.00000000000E+00 0. -1.
         11    1    3    3    0    0 -0.72402049925E+02 -0.21284926020E+02 -0.64437264988E+02  0.99233391699E+02  0.00000000000E+00 0.  1.
</event>
<event>
 8    1  0.2184156E-005  0.1287549E+03  0.7561462E-02  0.1229315E+00
         -3   -1    0    0    0  501 -0.00000000000E+00  0.00000000000E+00  0.34960860311E+02  0.34960860311E+02  0.00000000000E+00 0.  1.
          3   -1    0    0  501    0  0.00000000000E+00 -0.00000000000E+00 -0.73968850206E+03  0.73968850206E+03  0.00000000000E+00 0. -1.
         23    2    1    2    0    0  0.48192632854E+02 -0.82677490466E+02 -0.15938155261E+03  0.20699360387E+03  0.91026234893E+02 0.  0.
         23    2    1    2    0    0 -0.48192632854E+02  0.82677490466E+02 -0.54534608914E+03  0.56765575850E+03  0.12519027890E+03 0.  0.
          5    1    4    4  502    0 -0.36526124229E+02 -0.71492473736E+01 -0.42281757125E+02  0.56484412671E+02  0.41800000000E+01 0.  1.
         -5    1    4    4    0  502 -0.11666508625E+02  0.89826737840E+02 -0.50306433201E+03  0.51117134583E+03  0.41800000000E+01 0.  1.
        -11    1    3    3    0    0  0.20655982225E+02 -0.96417120979E+02 -0.10193041814E+03  0.14181939558E+03  0.00000000000E+00 0.  1.
         11    1    3    3    0    0  0.27536650629E+02  0.13739630513E+02 -0.57451134469E+02  0.65174208290E+02  0.00000000000E+00 0. -1.
</event>
<event>
 8    1  0.2184156E-005  0.8116481E+02  0.7561462E-02  0.1325778E+00
          2   -1    0    0  501    0  0.00000000000E+00  0.00000000000E+00  0.34252287883E+03  0.34252287883E+03  0.00000000000E+00 0. -1.
         -2   -1    0    0    0  501 -0.00000000000E+00 -0.00000000000E+00 -0.38121643929E+02  0.38121643929E+02  0.00000000000E+00 0.  1.
         23    2    1    2    0    0 -0.13233278203E+02  0.17244456443E+02  0.68099777024E+02  0.11239489056E+03  0.86732582480E+02 0.  0.
         23    2    1    2    0    0  0.13233278203E+02 -0.17244456443E+02  0.23630145788E+03  0.26824963220E+03  0.12508795006E+03 0.  0.
          5    1    4    4  502    0  0.16073733806E+02 -0.56505397774E+02  0.21575697864E+03  0.22365100297E+03  0.41800000000E+01 0. -1.
         -5    1    4    4    0  502 -0.28404556037E+01  0.39260941331E+02  0.20544479237E+02  0.44598629232E+02  0.41800000000E+01 0. -1.
        -11    1    3    3    0    0 -0.47712593488E+01 -0.22609114985E+02  0.67823753937E+02  0.71651926661E+02  0.00000000000E+00 0. -1.
         11    1    3    3    0    0 -0.84620188538E+01  0.39853571428E+02  0.27602308733E+00  0.40742963900E+02  0.00000000000E+00 0.  1.
</event>
<event>
 8    1  0.2184156E-005  0.1161480E+03  0.7561462E-02  0.1249590E+00
          1   -1    0    0  501    0  0.00000000000E+00  0.00000000000E+00  0.14700023481E+03  0.14700023481E+03  0.00000000000E+00 0. -1.
         -1   -1    0    0    0  501 -0.00000000000E+00 -0.00000000000E+00 -0.24332102437E+03  0.24332102437E+03  0.00000000000E+00 0.  1.
         23    2    1    2    0    0  0.52970983726E+02  0.48571069381E+02 -0.18691608560E+03  0.21996762904E+03  0.91011322756E+02 0.  0.
         23    2    1    2    0    0 -0.52970983726E+02 -0.48571069381E+02  0.90595296045E+02  0.17035363013E+03  0.12509107777E+03 0.  0.
          5    1    4    4  502    0 -0.25120881510E+02 -0.75854951361E+02  0.98867463530E+01  0.80624143327E+02  0.41800000000E+01 0. -1.
         -5    1    4    4    0  502 -0.27850102215E+02  0.27283881980E+02  0.80708549692E+02  0.89729486808E+02  0.41800000000E+01 0. -1.
        -11    1    3    3    0    0 -0.19148250863E+02  0.34693480734E+02 -0.43518954235E+02  0.58857391160E+02  0.00000000000E+00 0. -1.
         11    1    3    3    0    0  0.72119234588E+02  0.13877588647E+02 -0.14339713137E+03  0.16111023788E+03  0.00000000000E+00 0.  1.
</event>
<event>
 8    1  0.2184156E-005  0.2284082E+03  0.7561462E-02  0.1127765E+00
          2   -1    0    0  501    0  0.00000000000E+00  0.00000000000E+00  0.81226003360E+03  0.81226003360E+03  0.00000000000E+00 0. -1.
         -2   -1    0    0    0  501 -0.00000000000E+00 -0.00000000000E+00 -0.74507827262E+02  0.74507827262E+02  0.00000000000E+00 0.  1.
         23    2    1    2    0    0  0.12104572135E+03 -0.18439522936E+03  0.34789208707E+03  0.42169674389E+03  0.90252824297E+02 0.  0.
         23    2    1    2    0    0 -0.12104572135E+03  0.18439522936E+03  0.38986011927E+03  0.46507111697E+03  0.12508622616E+03 0.  0.
          5    1    4    4  502    0 -0.31792729635E+02  0.13500541991E+01  0.92771890029E+01  0.33408665639E+02  0.41800000000E+01 0.  1.
         -5    1    4    4    0  502 -0.89252991719E+02  0.18304517516E+03  0.38058293026E+03  0.43166245133E+03  0.41800000000E+01 0.  1.
        -11    1    3    3    0    0  0.64674417408E+02 -0.85582774382E+02  0.90730679335E+02  0.14049643309E+03  0.00000000000E+00 0.  1.
         11    1    3    3    0    0  0.56371303945E+02 -0.98812454978E+02  0.25716140773E+03  0.28120031080E+03  0.00000000000E+00 0. -1.
</event>
<event>
 8    1  0.2184156E-005  0.9975932E+02  0.7561462E-02  0.1280803E+00
          1   -1    0    0  501    0  0.00000000000E+00  0.00000000000E+00  0.61358336318E+02  0.61358336318E+02  0.00000000000E+00 0. -1.
         -1   -1    0    0    0  501 -0.00000000000E+00 -0.00000000000E+00 -0.23980984600E+03  0.23980984600E+03  0.00000000000E+00 0.  1.
         23    2    1    2    0    0 -0.16780504125E+02  0.12191534887E+02 -0.14159942934E+03  0.16912230266E+03  0.90120674800E+02 0.  0.
         23    2    1    2    0    0  0.16780504125E+02 -0.12191534887E+02 -0.36852080346E+02  0.13204587966E+03  0.12509124537E+03 0.  0.
          5    1    4    4  502    0  0.47703514775E+02  0.28700829562E+02  0.16219795319E+02  0.58137054446E+02  0.41800000000E+01 0.  1.
         -5    1    4    4    0  502 -0.30923010650E+02 -0.40892364449E+02 -0.53071875665E+02  0.73908825214E+02  0.41800000000E+01 0.  1.
        -11    1    3    3    0    0 -0.31578714315E+02  0.45741454242E+02 -0.79475215498E+02  0.96983533202E+02  0.00000000000E+00 0. -1.
         11    1    3    3    0    0  0.14798210190E+02 -0.33549919355E+02 -0.62124213838E+02  0.72138769455E+02  0.00000000000E+00 0.  1.
</event>
<event>
 8    1  0.2184156E-005  0.9938538E+02  0.7561462E-02  0.1281594E+00
          1   -1    0    0  501    0  0.00000000000E+00  0.00000000000E+00  0.44295341888E+03  0.44295341888E+03  0.00000000000E+00 0. -1.
         -1   -1    0    0    0  501 -0.00000000000E+00 -0.00000000000E+00 -0.27337862951E+02  0.27337862951E+02  0.00000000000E+00 0.  1.
         23    2    1    2    0    0  0.10177880972E+00 -0.16817687431E+02  0.15718480658E+03  0.18268561448E+03  0.91564869633E+02 0.  0.
         23    2    1    2    0    0 -0.10177880972E+00  0.16817687431E+02  0.25843074935E+03  0.28760566735E+03  0.12509085782E+03 0.  0.
          5    1    4    4  502    0  0.19237739332E+02  0.67015296579E+02  0.11741128498E+03  0.13661633443E+03  0.41800000000E+01 0. -1.
         -5    1    4    4    0  502 -0.19339518142E+02 -0.50197609148E+02  0.14101946436E+03  0.15098933292E+03  0.41800000000E+01 0. -1.
        -11    1    3    3    0    0 -0.36476459873E+02 -0.81269637473E+01  0.13259746852E+03  0.13776308766E+03  0.00000000000E+00 0. -1.
         11    1    3    3    0    0  0.36578238683E+02 -0.86907236838E+01  0.24587338061E+02  0.44922526823E+02  0.00000000000E+00 0.  1.
</event>
<event>
 8    1  0.2184156E-005  0.1112711E+03  0.7561462E-02  0.1258234E+00
          2   -1    0    0  501    0  0.00000000000E+00  0.00000000000E+00  0.12569214868E+03  0.12569214868E+03  0.00000000000E+00 0. -1.
         -2   -1    0    0    0  501 -0.00000000000E+00 -0.00000000000E+00 -0.16375539654E+03  0.16375539654E+03  0.00000000000E+00 0.  1.
         23    2    1    2    0    0 -0.40585816881E+02 -0.64562377906E+02 -0.81585387581E+02  0.13662301555E+03  0.78703009719E+02 0.  0.
         23    2    1    2    0    0  0.40585816881E+02  0.64562377906E+02  0.43522139722E+02  0.15282452967E+03  0.12508257693E+03 0.  0.
          5    1    4    4  502    0 -0.49200818305E+01 -0.34400318598E+02  0.23065688435E+02  0.41917627651E+02  0.41800000000E+01 0. -1.
         -5    1    4    4    0  502  0.45505898712E+02  0.98962696504E+02  0.20456451287E+02  0.11090690202E+03  0.41800000000E+01 0. -1.
        -11    1    3    3    0    0 -0.31064587130E+02 -0.31945482648E+02  0.38043534217E+01  0.44721309687E+02  0.00000000000E+00 0. -1.
         11    1    3    3    0    0 -0.95212297510E+01 -0.32616895258E+02 -0.85389741002E+02  0.91901705864E+02  0.00000000000E+00 0.  1.
</event>
<event>
 8    1  0.2184156E-005  0.1511093E+03  0.7561462E-02  0.1199117E+00
          1   -1    0    0  501    0  0.00000000000E+00  0.00000000000E+00  0.26071534606E+03  0.26071534606E+03  0.00000000000E+00 0. -1.
         -1   -1    0    0    0  501 -0.00000000000E+00 -0.00000000000E+00 -0.11409717773E+03  0.11409717773E+03  0.00000000000E+00 0.  1.
         23    2    1    2    0    0  0.10763564156E+03 -0.84044167177E+02  0.44286414333E+02  0.16322583185E+03  0.77669378258E+02 0.  0.
         23    2    1    2    0    0 -0.10763564156E+03  0.84044167177E+02  0.10233175401E+03  0.21158669194E+03  0.12509311315E+03 0.  0.
          5    1    4    4  502    0 -0.89495152296E+01  0.38025174783E+02 -0.22986690918E+02  0.45517777840E+02  0.41800000000E+01 0. -1.
         -5    1    4    4    0  502 -0.98686126330E+02  0.46018992395E+02  0.12531844493E+03  0.16606891410E+03  0.41800000000E+01 0. -1.
        -11    1    3    3    0    0  0.15221380307E+02 -0.55036910464E+02  0.94376869440E+00  0.57110792599E+02  0.00000000000E+00 0. -1.
         11    1    3    3    0    0  0.92414261253E+02 -0.29007256713E+02  0.43342645638E+02  0.10611503925E+03  0.00000000000E+00 0.  1.
</event>
<event>
 6    1  0.2184156E-005  0.1350535E+03  0.7561462E-02  0.1220144E+00
          2   -1    0    0  501    0  0.00000000000E+00  0.00000000000E+00  0.89478918367E+03  0.89478918367E+03  0.00000000000E+00 0. -1.
         -2   -1    0    0    0  501 -0.00000000000E+00 -0.00000000000E+00 -0.24591121051E+02  0.24591121051E+02  0.00000000000E+00 0.  1.
          5    1    1    2  502    0  0.32395253026E+01 -0.12186311551E+03  0.55552745022E+03  0.56876122740E+03  0.41800000000E+01 0. -1.
         -5    1    1    2    0  502 -0.26413641380E+02  0.11830360481E+03  0.28898118465E+03  0.31340233063E+03  0.41800000000E+01 0.  1.
        -11    1    1    2    0    0  0.97129042946E+01 -0.49640224289E+01  0.89813805903E+01  0.14129657668E+02  0.00000000000E+00 0. -1.
         11    1    1    2    0    0  0.13461211783E+02  0.85235331337E+01  0.16708047160E+02  0.23087089025E+02  0.00000000000E+00 0.  1.
</event>
<event>
 8    1  0.2184156E-005  0.1508037E+03  0.7561462E-02  0.1199489E+00
         -1   -1    0    0    0  501 -0.00000000000E+00  0.00000000000E+00  0.44407306438E+02  0.44407306438E+02  0.00000000000E+00 0.  1.
          1   -1    0    0  501    0  0.00000000000E+00 -0.00000000000E+00 -0.60223588832E+03  0.60223588832E+03  0.00000000000E+00 0. -1.
         23    2    1    2    0    0  0.90059088361E+01  0.11749777758E+03 -0.20811116524E+03  0.25698149265E+03  0.94034016899E+02 0.  0.
         23    2    1    2    0    0 -0.90059088361E+01 -0.11749777758E+03 -0.34971741664E+03  0.38966170211E+03  0.12508851450E+03 0.  0.
          5    1    4    4  502    0 -0.52519247524E+02 -0.69283521223E+02 -0.28454123217E+03  0.29755615080E+03  0.41800000000E+01 0.  1.
         -5    1    4    4    0  502  0.43513338688E+02 -0.48214256360E+02 -0.65176184465E+02  0.92105551307E+02  0.41800000000E+01 0.  1.
        -11    1    3    3    0    0 -0.35484478018E+02  0.91070435167E+02 -0.15141348111E+03  0.18021935136E+03  0.00000000000E+00 0. -1.
         11    1    3    3    0    0  0.44490386854E+02  0.26427342417E+02 -0.56697684127E+02  0.76762141287E+02  0.00000000000E+00 0.  1.
</event>
<event>
 8    1  0.2184156E-005  0.1022297E+03  0.7561462E-02  0.1275676E+00
         -1   -1    0    0    0  501 -0.00000000000E+00  0.00000000000E+00  0.11441497193E+02  0.11441497193E+02  0.00000000000E+00 0.  1.
          1   -1    0    0  501    0  0.00000000000E+00 -0.00000000000E+00 -0.18463651515E+04  0.18463651515E+04  0.00000000000E+00 0. -1.
         23    2    1    2    0    0  0.52552680796E+01 -0.23676950301E+02 -0.24335142254E+03  0.26114304547E+03  0.91583620400E+02 0.  0.
         23    2    1    2    0    0 -0.52552680796E+01  0.23676950301E+02 -0.15915722318E+04  0.15966636032E+04  0.12507708469E+03 0.  0.
          5    1    4    4  502    0 -0.29902994642E+02 -0.44967950626E+02 -0.72071832861E+03  0.72275077811E+03  0.41800000000E+01 0. -1.
         -5    1    4    4    0  502  0.24647726563E+02  0.68644900926E+02 -0.87085390316E+03  0.87391282512E+03  0.41800000000E+01 0. -1.
        -11    1    3    3    0    0  0.16390202883E+02 -0.47874774063E+02 -0.21992095481E+03  0.22566758542E+03  0.00000000000E+00 0. -1.
         11    1    3    3    0    0 -0.11134934804E+02  0.24197823762E+02 -0.23430467730E+02  0.35475460053E+02  0.00000000000E+00 0.  1.
</event>
<event>
 8    1  0.2184156E-005  0.1002527E+03  0.7561462E-02  0.1279765E+00
          2   -1    0    0  501    0  0.00000000000E+00  0.00000000000E+00  0.28152013814E+03  0.28152013814E+03  0.00000000000E+00 0. -1.
         -2   -1    0    0    0  501 -0.00000000000E+00 -0.00000000000E+00 -0.58801348201E+02  0.58801348201E+02  0.00000000000E+00 0.  1.
         23    2    1    2    0    0 -0.52074709207E+02 -0.45285125732E+02  0.64382226546E+02  0.12705988931E+03  0.85068363238E+02 0.  0.
         23    2    1    2    0    0  0.52074709207E+02  0.45285125732E+02  0.15833656339E+03  0.21326159704E+03  0.12509006160E+03 0.  0.
          5    1    4    4  502    0  0.78748729877E+01 -0.19130875643E+02  0.12739463401E+03  0.12913120925E+03  0.41800000000E+01 0. -1.
         -5    1    4    4    0  502  0.44199836220E+02  0.64416001375E+02  0.30941929383E+02  0.84130387785E+02  0.41800000000E+01 0. -1.
        -11    1    3    3    0    0 -0.62613943767E+02 -0.57515281768E+02  0.31939547805E+02  0.90822069481E+02  0.00000000000E+00 0.  1.
         11    1    3    3    0    0  0.10539234559E+02  0.12230156036E+02  0.32442678741E+02  0.36237819825E+02  0.00000000000E+00 0. -1.
</event>
<event>
 8    1  0.2184156E-005  0.1603740E+03  0.7561462E-02  0.1188275E+00
         -3   -1    0    0    0  501 -0.00000000000E+00  0.00000000000E+00  0.85326044922E+02  0.85326044922E+02  0.00000000000E+00 0.  1.
          3   -1    0    0  501    0  0.00000000000E+00 -0.00000000000E+00 -0.43414464981E+03  0.43414464981E+03  0.00000000000E+00 0. -1.
         23    2    1    2    0    0  0.77187488969E+02 -0.12266750904E+03 -0.86470420404E+02  0.19469335160E+03  0.97072866046E+02 0.  0.
         23    2    1    2    0    0 -0.77187488969E+02  0.12266750904E+03 -0.26234818449E+03  0.32477734314E+03  0.12509407055E+03 0.  0.
          5    1    4    4  502    0 -0.24530241569E+02  0.24967468829E+02 -0.18764252022E+03  0.19092484135E+03  0.41800000000E+01 0.  1.
         -5    1    4    4    0  502 -0.52657247400E+02  0.97700040214E+02 -0.74705664270E+02  0.13385250179E+03  0.41800000000E+01 0.  1.
        -11    1    3    3    0    0  0.54406716181E+02 -0.50632402289E+01 -0.27780936412E+02  0.61298512177E+02  0.00000000000E+00 0. -1.
         11    1    3    3    0    0  0.22780772788E+02 -0.11760426881E+03 -0.58689483992E+02  0.13339483942E+03  0.00000000000E+00 0.  1.
</event>
<event>
 8    1  0.2184156E-005  0.1300571E+03  0.7561462E-02  0.1227371E+00
          1   -1    0    0  501    0  0.00000000000E+00  0.00000000000E+00  0.27522153870E+03  0.27522153870E+03  0.00000000000E+00 0. -1.
         -1   -1    0    0    0  501 -0.00000000000E+00 -0.00000000000E+00 -0.87617985781E+02  0.87617985781E+02  0.00000000000E+00 0.  1.
         23    2    1    2    0    0 -0.42891487368E+02  0.59144535971E+02 -0.10116325755E+02  0.11773084508E+03  0.91763042732E+02 0.  0.
         23    2    1    2    0    0  0.42891487368E+02 -0.59144535971E+02  0.19771987867E+03  0.24510867940E+03  0.12508940192E+03 0.  0.
          5    1    4    4  502    0  0.68487956218E+02 -0.83655105300E+02  0.13567606437E+03  0.17353456034E+03  0.41800000000E+01 0. -1.
         -5    1    4    4    0  502 -0.25596468850E+02  0.24510569329E+02  0.62043814302E+02  0.71574119063E+02  0.41800000000E+01 0. -1.
        -11    1    3    3    0    0 -0.62689765498E+01  0.75759617260E+02 -0.14112802049E+02  0.77317467988E+02  0.00000000000E+00 0.  1.
         11    1    3    3    0    0 -0.36622510818E+02 -0.16615081289E+02  0.39964762938E+01  0.40413377088E+02  0.00000000000E+00 0. -1.
</event>
<event>
 8    1  0.2184156E-005  0.1089974E+03  0.7561462E-02  0.1262438E+00
         -3   -1    0    0    0  501 -0.00000000000E+00  0.00000000000E+00  0.41615029223E+02  0.41615029223E+02  0.00000000000E+00 0.  1.
          3   -1    0    0  501    0  0.00000000000E+00 -0.00000000000E+00 -0.55057173736E+03  0.55057173736E+03  0.00000000000E+00 0. -1.
         23    2    1    2    0    0 -0.16213216246E+02  0.23761706348E+02 -0.35238271143E+02  0.10138685813E+03  0.90609448620E+02 0.  0.
         23    2    1    2    0    0  0.16213216246E+02 -0.23761706348E+02 -0.47371843699E+03  0.49079990845E+03  0.12509158851E+03 0.  0.
          5    1    4    4  502    0  0.54603462223E+02 -0.51680185789E+02 -0.21691233944E+03  0.22961013717E+03  0.41800000000E+01 0.  1.
         -5    1    4    4    0  502 -0.38390245977E+02  0.27918479441E+02 -0.25680609755E+03  0.26118977128E+03  0.41800000000E+01 0.  1.
        -11    1    3    3    0    0 -0.10895194779E+02 -0.34685054278E+02 -0.12423964873E+02  0.38420218150E+02  0.00000000000E+00 0.  1.
         11    1    3    3    0    0 -0.53180214673E+01  0.58446760626E+02 -0.22814306270E+02  0.62966639982E+02  0.00000000000E+00 0. -1.
</event>
<event>
 8    1  0.2184156E-005  0.1009363E+03  0.7561462E-02  0.1278339E+00
         -2   -1    0    0    0  501 -0.00000000000E+00  0.00000000000E+00  0.38998203085E+02  0.38998203085E+02  0.00000000000E+00 0.  1.
          2   -1    0    0  501    0  0.00000000000E+00 -0.00000000000E+00 -0.32466846697E+03  0.32466846697E+03  0.00000000000E+00 0. -1.
         23    2    1    2    0    0  0.18298809509E+01  0.23943754921E+02 -0.96671058777E+02  0.13575443371E+03  0.92235138660E+02 0.  0.
         23    2    1    2    0    0 -0.18298809509E+01 -0.23943754921E+02 -0.18899920511E+03  0.22791223634E+03  0.12508651438E+03 0.  0.
          5    1    4    4  502    0 -0.61820636803E+02 -0.17867307728E+01 -0.76750948465E+02  0.98656799218E+02  0.41800000000E+01 0.  1.
         -5    1    4    4    0  502  0.59990755852E+02 -0.22157024148E+02 -0.11224825664E+03  0.12925543712E+03  0.41800000000E+01 0.  1.
        -11    1    3    3    0    0 -0.31827808807E+02  0.27353426563E+02 -0.10616336800E+02  0.43288866527E+02  0.00000000000E+00 0.  1.
         11    1    3    3    0    0  0.33657689757E+02 -0.34096716417E+01 -0.86054721976E+02  0.92465567186E+02  0.00000000000E+00 0. -1.
</event>
<event>
 8    1  0.2184156E-005  0.1171628E+03  0.7561462E-02  0.1247852E+00
         -2   -1    0    0    0  501 -0.00000000000E+00  0.00000000000E+00  0.11696747933E+03  0.11696747933E+03  0.00000000000E+00 0.  1.
          2   -1    0    0  501    0  0.00000000000E+00 -0.00000000000E+00 -0.15949510426E+03  0.15949510426E+03  0.00000000000E+00 0. -1.
         23    2    1    2    0    0  0.57145588124E+01 -0.68221208506E+02  0.29369421257E+02  0.11676466839E+03  0.89914600635E+02 0.  0.
         23    2    1    2    0    0 -0.57145588124E+01  0.68221208506E+02 -0.71897046194E+02  0.15969791520E+03  0.12508976534E+03 0.  0.
          5    1    4    4  502    0  0.40375245670E+02  0.78924062674E+02 -0.23334076302E+02  0.91766658699E+02  0.41800000000E+01 0. -1.
         -5    1    4    4    0  502 -0.46089804482E+02 -0.10702854168E+02 -0.48562969892E+02  0.67931256497E+02  0.41800000000E+01 0. -1.
        -11    1    3    3    0    0  0.98402664244E+01  0.13247080753E+02 -0.16369460131E+02  0.23243821045E+02  0.00000000000E+00 0. -1.
         11    1    3    3    0    0 -0.41257076120E+01 -0.81468289258E+02  0.45738881388E+02  0.93520847348E+02  0.00000000000E+00 0.  1.
</event>
<event>
 8    1  0.2184156E-005  0.9963839E+02  0.7561462E-02  0.1281058E+00
         -2   -1    0    0    0  501 -0.00000000000E+00  0.00000000000E+00  0.24587471915E+02  0.24587471915E+02  0.00000000000E+00 0. -1.
          2   -1    0    0  501    0  0.00000000000E+00 -0.00000000000E+00 -0.75136834500E+03  0.75136834500E+03  0.00000000000E+00 0.  1.
         23    2    1    2    0    0  0.49800903642E+02  0.34421143087E+01 -0.14725352257E+03  0.18098388914E+03  0.92626076584E+02 0.  0.
         23    2    1    2    0    0 -0.49800903642E+02 -0.34421143087E+01 -0.57952735052E+03  0.59497192778E+03  0.12509063392E+03 0.  0.
          5    1    4    4  502    0 -0.72273932390E+02 -0.19669819570E+02 -0.54661605374E+03  0.55173998017E+03  0.41800000000E+01 0.  1.
         -5    1    4    4    0  502  0.22473028747E+02  0.16227705261E+02 -0.32911296776E+02  0.43231947615E+02  0.41800000000E+01 0.  1.
        -11    1    3    3    0    0  0.41496138534E+02 -0.36599711211E+02 -0.11913135431E+03  0.13135352281E+03  0.00000000000E+00 0.  1.
         11    1    3    3    0    0  0.83047651086E+01  0.40041825520E+02 -0.28122168261E+02  0.49630366332E+02  0.00000000000E+00 0. -1.
</event>
<event>
 8    1  0.2184156E-005  0.9495767E+02  0.7561462E-02  0.1291271E+00
         -2   -1    0    0    0  501 -0.00000000000E+00  0.00000000000E+00  0.14771316250E+02  0.14771316250E+02  0.00000000000E+00 0.  1.
          2   -1    0    0  501    0  0.00000000000E+00 -0.00000000000E+00 -0.99761083459E+03  0.99761083459E+03  0.00000000000E+00 0. -1.
         23    2    1    2    0    0  0.14333787008E+02  0.17583822056E+02 -0.20578693054E+03  0.22646460834E+03  0.91778591185E+02 0.  0.
         23    2    1    2    0    0 -0.14333787008E+02 -0.17583822056E+02 -0.77705258780E+03  0.78591754251E+03  0.11550329502E+03 0.  0.
          5    1    4    4  502    0  0.48832938673E+02 -0.14572683649E+02 -0.25867950630E+03  0.26368461917E+03  0.41800000000E+01 0. -1.
         -5    1    4    4    0  502 -0.63166725681E+02 -0.30111384064E+01 -0.51837308151E+03  0.52223292334E+03  0.41800000000E+01 0.  1.
        -11    1    3    3    0    0  0.43530077134E+02  0.57695926194E+01 -0.18137756399E+03  0.18661719249E+03  0.00000000000E+00 0.  1.
         11    1    3    3    0    0 -0.29196290126E+02  0.11814229436E+02 -0.24409366554E+02  0.39847415849E+02  0.00000000000E+00 0. -1.
</event>
<event>
 8    1  0.2184156E-005  0.1229551E+03  0.7561462E-02  0.1238300E+00
          1   -1    0    0  501    0  0.00000000000E+00  0.00000000000E+00  0.59911193995E+03  0.59911193995E+03  0.00000000000E+00 0. -1.
         -1   -1    0    0    0  501 -0.00000000000E+00 -0.00000000000E+00 -0.39668214905E+02  0.39668214905E+02  0.00000000000E+00 0.  1.
         23    2    1    2    0    0  0.74999847529E+02 -0.66250787949E+02  0.16955732312E+03  0.21726660907E+03  0.91874640445E+02 0.  0.
         23    2    1    2    0    0 -0.74999847529E+02  0.66250787949E+02  0.38988640193E+03  0.42151354579E+03  0.12509244121E+03 0.  0.
          5    1    4    4  502    0 -0.89307265257E+02  0.13104276116E+02  0.31969011228E+03  0.33221491533E+03  0.41800000000E+01 0. -1.
         -5    1    4    4    0  502  0.14307417728E+02  0.53146511833E+02  0.70196289645E+02  0.89298630460E+02  0.41800000000E+01 0. -1.
        -11    1    3    3    0    0  0.42617412618E+02 -0.42559929581E+02  0.21632066259E+02  0.63996388608E+02  0.00000000000E+00 0.  1.
         11    1    3    3    0    0  0.32382434911E+02 -0.23690858368E+02  0.14792525686E+03  0.15327022046E+03  0.00000000000E+00 0. -1.
</event>
<event>
 8    1  0.2184156E-005  0.1085134E+03  0.7561462E-02  0.1263348E+00
         -2   -1    0    0    0  501 -0.00000000000E+00  0.00000000000E+00  0.20146719393E+03  0.20146719393E+03  0.00000000000E+00 0.  1.
          2   -1    0    0  501    0  0.00000000000E+00 -0.00000000000E+00 -0.86486447963E+02  0.86486447963E+02  0.00000000000E+00 0. -1.
         23    2    1    2    0    0 -0.67251283673E+02 -0.26147568267E+02  0.74640676188E+02  0.13804343547E+03  0.90985323275E+02 0.  0.
         23    2    1    2    0    0  0.67251283673E+02  0.26147568267E+02  0.40340069782E+02  0.14991020643E+03  0.12505726001E+03 0.  0.
          5    1    4    4  502    0  0.14219332548E+02  0.72340358418E+02  0.18079962043E+02  0.76024169194E+02  0.41800000000E+01 0.  1.
         -5    1    4    4    0  502  0.53031951125E+02 -0.46192790151E+02  0.22260107740E+02  0.73886037237E+02  0.41800000000E+01 0.  1.
        -11    1    3    3    0    0 -0.25299677094E+02 -0.51536502251E+01 -0.19837267495E+02  0.32559959358E+02  0.00000000000E+00 0.  1.
         11    1    3    3    0    0 -0.41951606579E+02 -0.20993918042E+02  0.94477943683E+02  0.10548347611E+03  0.00000000000E+00 0. -1.
</event>
<event>
 8    1  0.2184156E-005  0.1028192E+03  0.7561462E-02  0.1274477E+00
          4   -1    0    0  501    0  0.00000000000E+00  0.00000000000E+00  0.44064838339E+03  0.44064838339E+03  0.00000000000E+00 0. -1.
         -4   -1    0    0    0  501 -0.00000000000E+00 -0.00000000000E+00 -0.41599046556E+02  0.41599046556E+02  0.00000000000E+00 0.  1.
         23    2    1    2    0    0 -0.52813135336E+02 -0.98240697328E+00  0.76708381248E+02  0.13247267016E+03  0.94205308761E+02 0.  0.
         23    2    1    2    0    0  0.52813135336E+02  0.98240697328E+00  0.32234095558E+03  0.34977475978E+03  0.12509395887E+03 0.  0.
          5    1    4    4  502    0  0.33777817380E+02  0.48741442258E+02  0.26931555123E+03  0.27579885365E+03  0.41800000000E+01 0. -1.
         -5    1    4    4    0  502  0.19035317955E+02 -0.47759035285E+02  0.53025404350E+02  0.73975906128E+02  0.41800000000E+01 0. -1.
        -11    1    3    3    0    0  0.20871644468E+02 -0.14392473961E+01 -0.59378578038E+01  0.21747531611E+02  0.00000000000E+00 0.  1.
         11    1    3    3    0    0 -0.73684779803E+02  0.45684042281E+00  0.82646239052E+02  0.11072513855E+03  0.00000000000E+00 0. -1.
</event>
<event>
 8    1  0.2184156E-005  0.1749056E+03  0.7561462E-02  0.1172827E+00
          2   -1    0    0  501    0  0.00000000000E+00  0.00000000000E+00  0.10508022259E+04  0.10508022259E+04  0.00000000000E+00 0. -1.
         -2   -1    0    0    0  501 -0.00000000000E+00 -0.00000000000E+00 -0.29371836713E+02  0.29371836713E+02  0.00000000000E+00 0.  1.
         23    2    1    2    0    0  0.92889848146E+02 -0.99651880617E+02  0.44096413077E+03  0.47095965162E+03  0.93779569358E+02 0.  0.
         23    2    1    2    0    0 -0.92889848146E+02  0.99651880617E+02  0.58046625840E+03  0.60921441098E+03  0.12506838210E+03 0.  0.
          5    1    4    4  502    0 -0.12279221586E+03  0.92681869427E+02  0.48825920969E+03  0.51193982600E+03  0.41800000000E+01 0.  1.
         -5    1    4    4    0  502  0.29902367713E+02  0.69700111897E+01  0.92207048710E+02  0.97274584978E+02  0.41800000000E+01 0.  1.
        -11    1    3    3    0    0 -0.18405966280E+02 -0.24446678901E+02  0.68844741475E+02  0.75339353148E+02  0.00000000000E+00 0.  1.
         11    1    3    3    0    0  0.11129581443E+03 -0.75205201716E+02  0.37211938930E+03  0.39562029847E+03  0.00000000000E+00 0. -1.
</event>
<event>
 8    1  0.2184156E-005  0.1060763E+03  0.7561462E-02  0.1268013E+00
         -2   -1    0    0    0  501 -0.00000000000E+00  0.00000000000E+00  0.96868152692E+01  0.96868152692E+01  0.00000000000E+00 0.  1.
          2   -1    0    0  501    0  0.00000000000E+00 -0.00000000000E+00 -0.19198559607E+04  0.19198559607E+04  0.00000000000E+00 0. -1.
         23    2    1    2    0    0 -0.26681924698E+02 -0.15257515053E+02 -0.29960027995E+03  0.31385070860E+03  0.88301883729E+02 0.  0.
         23    2    1    2    0    0  0.26681924698E+02  0.15257515053E+02 -0.16105688654E+04  0.16156920673E+04  0.12483616959E+03 0.  0.
          5    1    4    4  502    0  0.11668577230E+02 -0.52521800927E+02 -0.48892916559E+03  0.49189825842E+03  0.41800000000E+01 0. -1.
         -5    1    4    4    0  502  0.15013347467E+02  0.67779315980E+02 -0.11216396999E+04  0.11237938089E+04  0.41800000000E+01 0. -1.
        -11    1    3    3    0    0  0.25239988200E+02 -0.25320982850E+02 -0.74691694515E+02  0.82807357200E+02  0.00000000000E+00 0. -1.
         11    1    3    3    0    0 -0.51921912898E+02  0.10063467797E+02 -0.22490858543E+03  0.23104335140E+03  0.00000000000E+00 0.  1.
</event>
<event>
 8    1  0.2184156E-005  0.3506600E+03  0.7561462E-02  0.1062344E+00
          1   -1    0    0  501    0  0.00000000000E+00  0.00000000000E+00  0.23973351704E+03  0.23973351704E+03  0.00000000000E+00 0. -1.
         -1   -1    0    0    0  501 -0.00000000000E+00 -0.00000000000E+00 -0.52049060051E+03  0.52049060051E+03  0.00000000000E+00 0.  1.
         23    2    1    2    0    0  0.27645915949E+03 -0.18822817384E+03 -0.16811904378E+03  0.38580002220E+03  0.93370937441E+02 0.  0.
         23    2    1    2    0    0 -0.27645915949E+03  0.18822817384E+03 -0.11263803969E+03  0.37442409534E+03  0.12508622185E+03 0.  0.
          5    1    4    4  502    0 -0.14581772714E+01 -0.13702847116E+02 -0.11843865398E+02  0.18645209776E+02  0.41800000000E+01 0. -1.
         -5    1    4    4    0  502 -0.27500098222E+03  0.20193102095E+03 -0.10079417429E+03  0.35577888557E+03  0.41800000000E+01 0. -1.
        -11    1    3    3    0    0  0.15936601590E+03 -0.55576557530E+02 -0.10015000371E+03  0.19625571078E+03  0.00000000000E+00 0.  1.
         11    1    3    3    0    0  0.11709314359E+03 -0.13265161631E+03 -0.67969040068E+02  0.18954431142E+03  0.00000000000E+00 0. -1.
</event>
<event>
 7    1  0.2184156E-005  0.6524535E+02  0.7561462E-02  0.1377051E+00
         -2   -1    0    0    0  501 -0.00000000000E+00  0.00000000000E+00  0.85281343955E+02  0.85281343955E+02  0.00000000000E+00 0.  1.
          2   -1    0    0  501    0  0.00000000000E+00 -0.00000000000E+00 -0.44397482438E+03  0.44397482438E+03  0.00000000000E+00 0. -1.
         23    2    1    2    0    0 -0.16304359748E+02  0.46410683760E+02  0.36171412682E+02  0.83877935111E+02  0.57509592149E+02 0.  0.
          5    1    1    2  502    0  0.37610078235E+02 -0.40476480385E+02 -0.41285939181E+03  0.41656117589E+03  0.41800000000E+01 0. -1.
         -5    1    1    2    0  502 -0.21305718486E+02 -0.59342033746E+01  0.17994498704E+02  0.28817057337E+02  0.41800000000E+01 0.  1.
        -11    1    3    3    0    0 -0.19904122299E+02  0.31729455060E+02 -0.70287184502E+01  0.38109516999E+02  0.00000000000E+00 0. -1.
         11    1    3    3    0    0  0.35997625502E+01  0.14681228700E+02  0.43200131133E+02  0.45768418111E+02  0.00000000000E+00 0.  1.
</event>
<event>
 8    1  0.2184156E-005  0.1408520E+03  0.7561462E-02  0.1212187E+00
         -2   -1    0    0    0  501 -0.00000000000E+00  0.00000000000E+00  0.23249000689E+02  0.23249000689E+02  0.00000000000E+00 0.  1.
          2   -1    0    0  501    0  0.00000000000E+00 -0.00000000000E+00 -0.23295621789E+04  0.23295621789E+04  0.00000000000E+00 0. -1.
         23    2    1    2    0    0 -0.12148211867E+03  0.37332806927E+02 -0.28375288658E+03  0.32240514548E+03  0.85309633449E+02 0.  0.
         23    2    1    2    0    0  0.12148211867E+03 -0.37332806927E+02 -0.20225602916E+04  0.20304060341E+04  0.12508751508E+03 0.  0.
          5    1    4    4  502    0  0.57345405869E+02  0.15854705373E+02 -0.15036351106E+04  0.15048175589E+04  0.41800000000E+01 0.  1.
         -5    1    4    4    0  502  0.64136712805E+02 -0.53187512300E+02 -0.51892518101E+03  0.52558847522E+03  0.41800000000E+01 0.  1.
        -11    1    3    3    0    0 -0.36740562741E+02  0.39393870906E+02 -0.49011455326E+02  0.72827664858E+02  0.00000000000E+00 0.  1.
         11    1    3    3    0    0 -0.84741555932E+02 -0.20610639784E+01 -0.23474143126E+03  0.24957748062E+03  0.00000000000E+00 0. -1.
</event>
<event>
 8    1  0.2184156E-005  0.1139093E+03  0.7561462E-02  0.1253497E+00
         -1   -1    0    0    0  501 -0.00000000000E+00  0.00000000000E+00  0.49926385620E+03  0.49926385620E+03  0.00000000000E+00 0.  1.
          1   -1    0    0  501    0  0.00000000000E+00 -0.00000000000E+00 -0.48677116705E+02  0.48677116705E+02  0.00000000000E+00 0. -1.
         23    2    1    2    0    0 -0.40961692731E+02 -0.55308009881E+02  0.34713616424E+03  0.37162453542E+03  0.11342152606E+03 0.  0.
         23    2    1    2    0    0  0.40961692731E+02  0.55308009881E+02  0.10345057526E+03  0.17631643749E+03  0.12509447781E+03 0.  0.
          5    1    4    4  502    0  0.98255593544E+01  0.82121001534E+02  0.23102483882E+02  0.85974401255E+02  0.41800000000E+01 0. -1.
         -5    1    4    4    0  502  0.31136133376E+02 -0.26812991653E+02  0.80348091380E+02  0.90342036237E+02  0.41800000000E+01 0. -1.
        -11    1    3    3    0    0 -0.31964711108E+02 -0.75287642557E+02  0.33821763909E+03  0.34796715832E+03  0.00000000000E+00 0.  1.
         11    1    3    3    0    0 -0.89969816227E+01  0.19979632676E+02  0.89185251436E+01  0.23657377093E+02  0.00000000000E+00 0. -1.
</event>
<event>
 6    1  0.2184156E-005  0.1701203E+03  0.7561462E-02  0.1177723E+00
         -2   -1    0    0    0  501 -0.00000000000E+00  0.00000000000E+00  0.48362640832E+02  0.48362640832E+02  0.00000000000E+00 0.  1.
          2   -1    0    0  501    0  0.00000000000E+00 -0.00000000000E+00 -0.10829012760E+04  0.10829012760E+04  0.00000000000E+00 0. -1.
          5    1    1    2  502    0  0.24147086435E+02  0.15325712846E+02 -0.57393037469E+03  0.57465773000E+03  0.41800000000E+01 0. -1.
         -5    1    1    2    0  502 -0.57674266812E+02  0.13924963592E+03 -0.21706370045E+03  0.26429321710E+03  0.41800000000E+01 0.  1.
        -11    1    1    2    0    0  0.24577216685E+02 -0.14635948950E+03 -0.21456122992E+03  0.26088629924E+03  0.00000000000E+00 0. -1.
         11    1    1    2    0    0  0.89499636911E+01 -0.82158592590E+01 -0.28983330082E+02  0.31426670458E+02  0.00000000000E+00 0.  1.
</event>
<event>
 8    1  0.2184156E-005  0.1068954E+03  0.7561462E-02  0.1266430E+00
         -2   -1    0    0    0  501 -0.00000000000E+00  0.00000000000E+00  0.18581919322E+03  0.18581919322E+03  0.00000000000E+00 0.  1.
          2   -1    0    0  501    0  0.00000000000E+00 -0.00000000000E+00 -0.10863448570E+03  0.10863448570E+03  0.00000000000E+00 0. -1.
         23    2    1    2    0    0  0.61206354927E+02  0.14967742380E+02  0.97871019167E+02  0.15288364922E+03  0.99118225428E+02 0.  0.
         23    2    1    2    0    0 -0.61206354927E+02 -0.14967742380E+02 -0.20686311648E+02  0.14157002970E+03  0.12507557165E+03 0.  0.
          5    1    4    4  502    0 -0.38759442822E+02  0.27936928538E+02 -0.61579559798E+02  0.78053065083E+02  0.41800000000E+01 0.  1.
         -5    1    4    4    0  502 -0.22446912106E+02 -0.42904670917E+02  0.40893248150E+02  0.63516964615E+02  0.41800000000E+01 0.  1.
        -11    1    3    3    0    0  0.37246087242E+02 -0.41574564463E+02  0.41911384275E+02  0.69801716003E+02  0.00000000000E+00 0.  1.
         11    1    3    3    0    0  0.23960267686E+02  0.56542306843E+02  0.55959634892E+02  0.83081933222E+02  0.00000000000E+00 0. -1.
</event>
<event>
 8    1  0.2184156E-005  0.1662517E+03  0.7561462E-02  0.1181814E+00
         -2   -1    0    0    0  501 -0.00000000000E+00  0.00000000000E+00  0.13522929181E+03  0.13522929181E+03  0.00000000000E+00 0.  1.
          2   -1    0    0  501    0  0.00000000000E+00 -0.00000000000E+00 -0.33740017748E+03  0.33740017748E+03  0.00000000000E+00 0. -1.
         23    2    1    2    0    0 -0.56266157561E+02  0.12399861179E+03  0.39284117650E+02  0.16851967118E+03  0.91181694768E+02 0.  0.
         23    2    1    2    0    0  0.56266157561E+02 -0.12399861179E+03 -0.24145500332E+03  0.30410979811E+03  0.12506284206E+03 0.  0.
          5    1    4    4  502    0 -0.23074612675E+02 -0.98266912632E+02 -0.14137710637E+03  0.17376358212E+03  0.41800000000E+01 0.  1.
         -5    1    4    4    0  502  0.79340770236E+02 -0.25731699163E+02 -0.10007789696E+03  0.13034621599E+03  0.41800000000E+01 0.  1.
        -11    1    3    3    0    0 -0.66820400945E+02  0.88275104352E+02  0.59969231317E+02  0.12591174979E+03  0.00000000000E+00 0.  1.
         11    1    3    3    0    0  0.10554243385E+02  0.35723507443E+02 -0.20685113667E+02  0.42607921387E+02  0.00000000000E+00 0. -1.
</event>
<event>
 8    1  0.2184156E-005  0.1080700E+03  0.7561462E-02  0.1264186E+00
          4   -1    0    0  501    0  0.00000000000E+00  0.00000000000E+00  0.83950045814E+02  0.83950045814E+02  0.00000000000E+00 0.  1.
         -4   -1    0    0    0  501 -0.00000000000E+00 -0.00000000000E+00 -0.23544991791E+03  0.23544991791E+03  0.00000000000E+00 0. -1.
         23    2    1    2    0    0 -0.67865794367E+02 -0.54013538917E+01 -0.13389374784E+03  0.17589886169E+03  0.91531050273E+02 0.  0.
         23    2    1    2    0    0  0.67865794367E+02  0.54013538917E+01 -0.17606124258E+02  0.14350110204E+03  0.12509056721E+03 0.  0.
          5    1    4    4  502    0  0.63429927103E+02 -0.51742369490E+02 -0.24681040980E+02  0.85599384557E+02  0.41800000000E+01 0.  1.
         -5    1    4    4    0  502  0.44358672641E+01  0.57143723382E+02  0.70749167221E+01  0.57901717479E+02  0.41800000000E+01 0.  1.
        -11    1    3    3    0    0 -0.33205502850E+02 -0.20367790980E+02 -0.23285914298E+01  0.39024026791E+02  0.00000000000E+00 0.  1.
         11    1    3    3    0    0 -0.34660291516E+02  0.14966437089E+02 -0.13156515641E+03  0.13687483490E+03  0.00000000000E+00 0. -1.
</event>
<event>
 8    1  0.2184156E-005  0.9774270E+02  0.7561462E-02  0.1285116E+00
          2   -1    0    0  501    0  0.00000000000E+00  0.00000000000E+00  0.10338204067E+04  0.10338204067E+04  0.00000000000E+00 0. -1.
         -2   -1    0    0    0  501 -0.00000000000E+00 -0.00000000000E+00 -0.20763871121E+02  0.20763871121E+02  0.00000000000E+00 0.  1.
         23    2    1    2    0    0  0.71290578228E+01 -0.77732952122E+00  0.11208886174E+03  0.14494593040E+03  0.91618677717E+02 0.  0.
         23    2    1    2    0    0 -0.71290578228E+01  0.77732952122E+00  0.90096767387E+03  0.90963834745E+03  0.12509095127E+03 0.  0.
          5    1    4    4  502    0  0.25842002399E+02 -0.53542945801E+02  0.51725783158E+03  0.52068012528E+03  0.41800000000E+01 0. -1.
         -5    1    4    4    0  502 -0.32971060222E+02  0.54320275322E+02  0.38370984229E+03  0.38895822217E+03  0.41800000000E+01 0. -1.
        -11    1    3    3    0    0 -0.20530800067E+02  0.26389214206E+02  0.98245260047E+02  0.10377878155E+03  0.00000000000E+00 0. -1.
         11    1    3    3    0    0  0.27659857890E+02 -0.27166543727E+02  0.13843601688E+02  0.41167148848E+02  0.00000000000E+00 0.  1.
</event>
<event>
 7    1  0.2184156E-005  0.1487598E+03  0.7561462E-02  0.1202005E+00
          2   -1    0    0  501    0  0.00000000000E+00  0.00000000000E+00  0.73534284566E+03  0.73534284566E+03  0.00000000000E+00 0. -1.
         -2   -1    0    0    0  501 -0.00000000000E+00 -0.00000000000E+00 -0.37021537381E+02  0.37021537381E+02  0.00000000000E+00 0.  1.
         23    2    1    2    0    0  0.12743168990E+02 -0.44787179302E+02  0.15802663496E+03  0.18833685296E+03  0.91269233810E+02 0.  0.
          5    1    1    2  502    0 -0.20460246936E+02  0.12365707378E+03  0.21233634937E+03  0.24660472677E+03  0.41800000000E+01 0. -1.
         -5    1    1    2    0  502  0.77170779462E+01 -0.78869894481E+02  0.32795832395E+03  0.33742280331E+03  0.41800000000E+01 0.  1.
        -11    1    3    3    0    0 -0.23378209024E+02 -0.51000199765E+02  0.53312868548E+02  0.77393946702E+02  0.00000000000E+00 0.  1.
         11    1    3    3    0    0  0.36121378014E+02  0.62130204629E+01  0.10471376641E+03  0.11094290626E+03  0.00000000000E+00 0. -1.
</event>
<event>
 8    1  0.2184156E-005  0.1276504E+03  0.7561462E-02  0.1230984E+00
          1   -1    0    0  501    0  0.00000000000E+00  0.00000000000E+00  0.26535001816E+03  0.26535001816E+03  0.00000000000E+00 0. -1.
         -1   -1    0    0    0  501 -0.00000000000E+00 -0.00000000000E+00 -0.93852073720E+02  0.93852073720E+02  0.00000000000E+00 0.  1.
         23    2    1    2    0    0  0.78892450789E+02 -0.15437408649E+02 -0.13027696665E+02  0.12223154945E+03  0.91150965022E+02 0.  0.
         23    2    1    2    0    0 -0.78892450789E+02  0.15437408649E+02  0.18452564110E+03  0.23697054242E+03  0.12507195279E+03 0.  0.
          5    1    4    4  502    0  0.21120702124E+02  0.32794722291E+02  0.21112070747E+02  0.44550755320E+02  0.41800000000E+01 0. -1.
         -5    1    4    4    0  502 -0.10001315291E+03 -0.17357313642E+02  0.16341357036E+03  0.19241978710E+03  0.41800000000E+01 0. -1.
        -11    1    3    3    0    0  0.58477048160E+02 -0.48261856958E+02  0.11152423166E+02  0.76636470046E+02  0.00000000000E+00 0. -1.
         11    1    3    3    0    0  0.20415402628E+02  0.32824448309E+02 -0.24180119831E+02  0.45595079409E+02  0.00000000000E+00 0.  1.
</event>
<event>
 8    1  0.2184156E-005  0.5389845E+02  0.7561462E-02  0.1425381E+00
         -1   -1    0    0    0  501 -0.00000000000E+00  0.00000000000E+00  0.37076333067E+02  0.37076333067E+02  0.00000000000E+00 0.  1.
          1   -1    0    0  501    0  0.00000000000E+00 -0.00000000000E+00 -0.35183705362E+03  0.35183705362E+03  0.00000000000E+00 0. -1.
         23    2    1    2    0    0  0.13057356248E+02 -0.11938015030E+02 -0.83513564774E+02  0.12540669687E+03  0.91865735518E+02 0.  0.
         23    2    1    2    0    0 -0.13057356248E+02  0.11938015030E+02 -0.23124715578E+03  0.26350668982E+03  0.12509003865E+03 0.  0.
          5    1    4    4  502    0 -0.83691724179E+01  0.95191663283E+01  0.13314629276E+02  0.18852302971E+02  0.41800000000E+01 0.  1.
         -5    1    4    4    0  502 -0.46881838300E+01  0.24188487021E+01 -0.24456178505E+03  0.24465438685E+03  0.41800000000E+01 0.  1.
        -11    1    3    3    0    0  0.29185693027E+02  0.30563845971E+02 -0.18634405083E+02  0.46186517630E+02  0.00000000000E+00 0.  1.
         11    1    3    3    0    0 -0.16128336779E+02 -0.42501861001E+02 -0.64879159691E+02  0.79220179235E+02  0.00000000000E+00 0. -1.
</event>
<event>
 8    1  0.2184156E-005  0.7503186E+02  0.7561462E-02  0.1343772E+00
         -1   -1    0    0    0  501 -0.00000000000E+00  0.00000000000E+00  0.11981569375E+03  0.11981569375E+03  0.00000000000E+00 0.  1.
          1   -1    0    0  501    0  0.00000000000E+00 -0.00000000000E+00 -0.12562080575E+03  0.12562080575E+03  0.00000000000E+00 0. -1.
         23    2    1    2    0    0  0.47969265778E+02 -0.17479331157E+00  0.32271927787E+02  0.10615407470E+03  0.89028811299E+02 0.  0.
         23    2    1    2    0    0 -0.47969265778E+02  0.17479331157E+00 -0.38077039783E+02  0.13928242480E+03  0.12509457177E+03 0.  0.
          5    1    4    4  502    0 -0.42389832118E+02  0.47059668214E+01  0.41273143508E+02  0.59497804713E+02  0.41800000000E+01 0.  1.
         -5    1    4    4    0  502 -0.55794336598E+01 -0.45311735098E+01 -0.79350183291E+02  0.79784620082E+02  0.41800000000E+01 0.  1.
        -11    1    3    3    0    0  0.33534376488E+02 -0.42522246612E+02  0.65554138253E+01  0.54549695818E+02  0.00000000000E+00 0.  1.
         11    1    3    3    0    0  0.14434889290E+02  0.42347453301E+02  0.25716513961E+02  0.51604378886E+02  0.00000000000E+00 0. -1.
</event>
<event>
 8    1  0.2184156E-005  0.9822768E+02  0.7561462E-02  0.1284068E+00
         -1   -1    0    0    0  501 -0.00000000000E+00  0.00000000000E+00  0.32617154290E+03  0.32617154290E+03  0.00000000000E+00 0.  1.
          1   -1    0    0  501    0  0.00000000000E+00 -0.00000000000E+00 -0.44290810471E+02  0.44290810471E+02  0.00000000000E+00 0. -1.
         23    2    1    2    0    0 -0.30761234568E+02 -0.35095577331E+02  0.16993107111E+03  0.19622953409E+03  0.86322117808E+02 0.  0.
         23    2    1    2    0    0  0.30761234568E+02  0.35095577331E+02  0.11194966133E+03  0.17423281928E+03  0.12508555290E+03 0.  0.
          5    1    4    4  502    0  0.60873150087E+02  0.16172755007E+02  0.72014105510E+01  0.63532913674E+02  0.41800000000E+01 0.  1.
         -5    1    4    4    0  502 -0.30111915519E+02  0.18922822324E+02  0.10474825078E+03  0.11069990561E+03  0.41800000000E+01 0.  1.
        -11    1    3    3    0    0 -0.20156369916E+02  0.27466320383E+02  0.49285470297E+02  0.59914402158E+02  0.00000000000E+00 0. -1.
         11    1    3    3    0    0 -0.10604864652E+02 -0.62561897714E+02  0.12064560081E+03  0.13631513193E+03  0.00000000000E+00 0.  1.
</event>
<event>
 8    1  0.2184156E-005  0.6449366E+02  0.7561462E-02  0.1379886E+00
          3   -1    0    0  501    0  0.00000000000E+00  0.00000000000E+00  0.51805219663E+03  0.51805219663E+03  0.00000000000E+00 0. -1.
         -3   -1    0    0    0  501 -0.00000000000E+00 -0.00000000000E+00 -0.36591632215E+02  0.36591632215E+02  0.00000000000E+00 0.  1.
         23    2    1    2    0    0 -0.15690446168E+02  0.44190254890E+01  0.44714314263E+02  0.10140232749E+03  0.89539623815E+02 0.  0.
         23    2    1    2    0    0  0.15690446168E+02 -0.44190254890E+01  0.43674625016E+03  0.45324150136E+03  0.12006187423E+03 0.  0.
          5    1    4    4  502    0 -0.56169940304E+01 -0.21096597067E+02  0.42114120641E+03  0.42172740623E+03  0.41800000000E+01 0. -1.
         -5    1    4    4    0  502  0.21307440198E+02  0.16677571578E+02  0.15605043746E+02  0.31514095130E+02  0.41800000000E+01 0.  1.
        -11    1    3    3    0    0  0.20943436519E+02  0.28627052830E+02  0.45242573351E+02  0.57489356670E+02  0.00000000000E+00 0. -1.
         11    1    3    3    0    0 -0.36633882686E+02 -0.24208027341E+02 -0.52825908772E+00  0.43912970818E+02  0.00000000000E+00 0.  1.
</event>
<event>
 8    1  0.2184156E-005  0.8525271E+02  0.7561462E-02  0.1314773E+00
          2   -1    0    0  501    0  0.00000000000E+00  0.00000000000E+00  0.29716401896E+03  0.29716401896E+03  0.00000000000E+00 0. -1.
         -2   -1    0    0    0  501 -0.00000000000E+00 -0.00000000000E+00 -0.43273056552E+02  0.43273056552E+02  0.00000000000E+00 0.  1.
         23    2    1    2    0    0  0.15904941321E+02  0.89904566043E+01  0.64159297642E+02  0.11245440334E+03  0.90530557754E+02 0.  0.
         23    2    1    2    0    0 -0.15904941321E+02 -0.89904566043E+01  0.18973166477E+03  0.22798267218E+03  0.12507677134E+03 0.  0.
          5    1    4    4  502    0  0.99843559482E+01 -0.46595021423E+02  0.19452360503E+02  0.51639617681E+02  0.41800000000E+01 0.  1.
         -5    1    4    4    0  502 -0.25889297269E+02  0.37604564819E+02  0.17027930427E+03  0.17634305450E+03  0.41800000000E+01 0.  1.
        -11    1    3    3    0    0  0.69207900613E+01 -0.33084450063E+02 -0.16372170717E+01  0.33840192830E+02  0.00000000000E+00 0.  1.
         11    1    3    3    0    0  0.89841512594E+01  0.42074906667E+02  0.65796514713E+02  0.78614210505E+02  0.00000000000E+00 0. -1.
</event>
<event>
 8    1  0.2184156E-005  0.1667989E+03  0.7561462E-02  0.1181228E+00
          3   -1    0    0  501    0  0.00000000000E+00  0.00000000000E+00  0.88001504029E+03  0.88001504029E+03  0.00000000000E+00 0. -1.
         -3   -1    0    0    0  501 -0.00000000000E+00 -0.00000000000E+00 -0.38305252636E+02  0.38305252636E+02  0.00000000000E+00 0.  1.
         23    2    1    2    0    0 -0.31526700784E+02  0.14279941239E+03  0.34380792501E+03  0.38452221225E+03  0.90927649135E+02 0.  0.
         23    2    1    2    0    0  0.31526700784E+02 -0.14279941239E+03  0.49790186264E+03  0.53379808067E+03  0.12509404887E+03 0.  0.
          5    1    4    4  502    0  0.68606265372E+02 -0.12869510724E+03  0.43940683746E+03  0.46299577912E+03  0.41800000000E+01 0. -1.
         -5    1    4    4    0  502 -0.37079564589E+02 -0.14104305150E+02  0.58495025182E+02  0.70802301551E+02  0.41800000000E+01 0. -1.
        -11    1    3    3    0    0 -0.20364445055E+01  0.57823578595E+02  0.24132816590E+03  0.24816727625E+03  0.00000000000E+00 0. -1.
         11    1    3    3    0    0 -0.29490256278E+02  0.84975833792E+02  0.10247975911E+03  0.13635493600E+03  0.00000000000E+00 0.  1.
</event>
<event>
 8    1  0.4630831E-005  0.2898793E+03  0.7561462E-02  0.1090412E+00
         -2   -1    0    0    0  501 -0.00000000000E+00  0.00000000000E+00  0.40625803000E+03  0.40625803000E+03  0.00000000000E+00 0.  1.
          2   -1    0    0  501    0  0.00000000000E+00 -0.00000000000E+00 -0.21122897090E+03  0.21122897090E+03  0.00000000000E+00 0. -1.
         23    2    1    2    0    0  0.26306724458E+03  0.66872429737E+02  0.81557670224E+02  0.29780033593E+03  0.91417118071E+02 0.  0.
         23    2    1    2    0    0 -0.26306724458E+03 -0.66872429737E+02  0.11347138887E+03  0.31968666497E+03  0.12509001012E+03 0.  0.
          5    1    4    4  502    0 -0.26199393982E+03 -0.32571266221E+02  0.96027113434E+02  0.28096332643E+03  0.41800000000E+01 0.  1.
         -5    1    4    4    0  502 -0.10733047674E+01 -0.34301163516E+02  0.17444275440E+02  0.38723338535E+02  0.41800000000E+01 0.  1.
        -11    1    3    3    0    0  0.15672260325E+03  0.23199441593E+01  0.17043532545E+02  0.15766368799E+03  0.00000000000E+00 0. -1.
         11    1    3    3    0    0  0.10634464134E+03  0.64552485578E+02  0.64514137678E+02  0.14013664794E+03  0.00000000000E+00 0.  1.
</event>
<event>
 8    1  0.2184156E-005  0.1110463E+03  0.7561462E-02  0.1258644E+00
         -2   -1    0    0    0  501 -0.00000000000E+00  0.00000000000E+00  0.20147373495E+03  0.20147373495E+03  0.00000000000E+00 0.  1.
          2   -1    0    0  501    0  0.00000000000E+00 -0.00000000000E+00 -0.12481277614E+03  0.12481277614E+03  0.00000000000E+00 0. -1.
         23    2    1    2    0    0  0.40939187545E+02  0.65274272168E+02  0.12107331152E+03  0.17280382691E+03  0.96258340669E+02 0.  0.
         23    2    1    2    0    0 -0.40939187545E+02 -0.65274272168E+02 -0.44412352715E+02  0.15348268418E+03  0.12509088530E+03 0.  0.
          5    1    4    4  502    0 -0.61619419919E+02  0.58400620757E+01 -0.49159326762E+02  0.79152833454E+02  0.41800000000E+01 0. -1.
         -5    1    4    4    0  502  0.20680232374E+02 -0.71114334243E+02  0.47469740467E+01  0.74329850723E+02  0.41800000000E+01 0. -1.
        -11    1    3    3    0    0  0.36122598568E+02  0.21911815121E+02  0.12205841320E+03  0.12916356298E+03  0.00000000000E+00 0.  1.
         11    1    3    3    0    0  0.48165889767E+01  0.43362457047E+02 -0.98510167867E+00  0.43640263929E+02  0.00000000000E+00 0. -1.
</event>
<event>
 8    1  0.2184156E-005  0.1092169E+03  0.7561462E-02  0.1262027E+00
         -1   -1    0    0    0  501 -0.00000000000E+00  0.00000000000E+00  0.12726917642E+03  0.12726917642E+03  0.00000000000E+00 0.  1.
          1   -1    0    0  501    0  0.00000000000E+00 -0.00000000000E+00 -0.15385596521E+03  0.15385596521E+03  0.00000000000E+00 0. -1.
         23    2    1    2    0    0  0.26494215787E+02  0.79202782985E+02  0.29062548842E+02  0.12882290499E+03  0.93678625106E+02 0.  0.
         23    2    1    2    0    0 -0.26494215787E+02 -0.79202782985E+02 -0.55649337629E+02  0.15230223664E+03  0.11456045655E+03 0.  0.
          5    1    4    4  502    0 -0.37754922486E+02 -0.64156216573E+02  0.17564542806E+02  0.76599215798E+02  0.41800000000E+01 0. -1.
         -5    1    4    4    0  502  0.11260706699E+02 -0.15046566412E+02 -0.73213880435E+02  0.75703020841E+02  0.41800000000E+01 0.  1.
        -11    1    3    3    0    0  0.45055523422E+02  0.91751687995E+02  0.29581369170E+02  0.10641160577E+03  0.00000000000E+00 0.  1.
         11    1    3    3    0    0 -0.18561307635E+02 -0.12548905010E+02 -0.51882032749E+00  0.22411299217E+02  0.00000000000E+00 0. -1.
</event>
<event>
 8    1  0.2184156E-005  0.2943291E+03  0.7561462E-02  0.1088110E+00
          3   -1    0    0  501    0  0.00000000000E+00  0.00000000000E+00  0.12224310078E+03  0.12224310078E+03  0.00000000000E+00 0. -1.
         -3   -1    0    0    0  501 -0.00000000000E+00 -0.00000000000E+00 -0.78986587593E+03  0.78986587593E+03  0.00000000000E+00 0.  1.
         23    2    1    2    0    0 -0.13958725193E+03  0.24750350515E+03 -0.41721415094E+03  0.51323930387E+03  0.92759632038E+02 0.  0.
         23    2    1    2    0    0  0.13958725193E+03 -0.24750350515E+03 -0.25040862421E+03  0.39886967283E+03  0.12509976364E+03 0.  0.
          5    1    4    4  502    0 -0.42089823100E+01 -0.35916525954E+01  0.11314430219E+02  0.13270426958E+02  0.41800000000E+01 0. -1.
         -5    1    4    4    0  502  0.14379623424E+03 -0.24391185256E+03 -0.26172305443E+03  0.38559924587E+03  0.41800000000E+01 0. -1.
        -11    1    3    3    0    0 -0.51071296217E+02  0.18035238833E+03 -0.24963852917E+03  0.31217728380E+03  0.00000000000E+00 0. -1.
         11    1    3    3    0    0 -0.88515955714E+02  0.67151116819E+02 -0.16757562177E+03  0.20106202008E+03  0.00000000000E+00 0.  1.
</event>
<event>
 7    1  0.2184156E-005  0.3240346E+03  0.7561462E-02  0.1073807E+00
         -2   -1    0    0    0  501 -0.00000000000E+00  0.00000000000E+00  0.27248036181E+03  0.27248036181E+03  0.00000000000E+00 0.  1.
          2   -1    0    0  501    0  0.00000000000E+00 -0.00000000000E+00 -0.47647926760E+03  0.47647926760E+03  0.00000000000E+00 0. -1.
         23    2    1    2    0    0  0.23872515863E+02  0.15603257869E+03 -0.17191821335E+03  0.25074056169E+03  0.91645483076E+02 0.  0.
          5    1    1    2  502    0 -0.21295257053E+03 -0.17515999162E+03 -0.10435603016E+03  0.29485161250E+03  0.41800000000E+01 0. -1.
         -5    1    1    2    0  502  0.18908005467E+03  0.19127412930E+02  0.72275337721E+02  0.20336745522E+03  0.41800000000E+01 0.  1.
        -11    1    3    3    0    0  0.56647564643E+02  0.69385553042E+02 -0.77187268245E+02  0.11824202269E+03  0.00000000000E+00 0.  1.
         11    1    3    3    0    0 -0.32775048780E+02  0.86647025648E+02 -0.94730945102E+02  0.13249853900E+03  0.00000000000E+00 0. -1.
</event>
<event>
 8    1  0.2184156E-005  0.1218328E+03  0.7561462E-02  0.1240104E+00
          2   -1    0    0  501    0  0.00000000000E+00  0.00000000000E+00  0.85587373900E+02  0.85587373900E+02  0.00000000000E+00 0. -1.
         -2   -1    0    0    0  501 -0.00000000000E+00 -0.00000000000E+00 -0.21998072599E+03  0.21998072599E+03  0.00000000000E+00 0.  1.
         23    2    1    2    0    0 -0.72300279169E+02 -0.48550647011E+01 -0.10613682039E+03  0.15827167799E+03  0.92379637310E+02 0.  0.
         23    2    1    2    0    0  0.72300279169E+02  0.48550647011E+01 -0.28256531705E+02  0.14729642191E+03  0.12508757852E+03 0.  0.
          5    1    4    4  502    0  0.83113925764E+02 -0.35280584743E+02 -0.46572175013E+02  0.10168128737E+03  0.41800000000E+01 0. -1.
         -5    1    4    4    0  502 -0.10813646595E+02  0.40135649444E+02  0.18315643308E+02  0.45615134537E+02  0.41800000000E+01 0. -1.
        -11    1    3    3    0    0 -0.17010956404E+02 -0.41715301898E+02 -0.68256212261E+02  0.81782941757E+02  0.00000000000E+00 0.  1.
         11    1    3    3    0    0 -0.55289322765E+02  0.36860237196E+02 -0.37880608126E+02  0.76488736230E+02  0.00000000000E+00 0. -1.
</event>
<event>
 7    1  0.2184156E-005  0.1026525E+03  0.7561462E-02  0.1274815E+00
         -2   -1    0    0    0  501 -0.00000000000E+00  0.00000000000E+00  0.36546475232E+03  0.36546475232E+03  0.00000000000E+00 0.  1.
          2   -1    0    0  501    0  0.00000000000E+00 -0.00000000000E+00 -0.42024960034E+02  0.42024960034E+02  0.00000000000E+00 0. -1.
         23    2    1    2    0    0 -0.14014011416E+02 -0.42922429271E+01  0.16150622935E+03  0.18866947550E+03  0.96421434339E+02 0.  0.
          5    1    1    2  502    0 -0.47374007123E+02 -0.90294386493E+01  0.37307867934E+01  0.48551194458E+02  0.41800000000E+01 0. -1.
         -5    1    1    2    0  502  0.61388018539E+02  0.13321681576E+02  0.15820277614E+03  0.17026904240E+03  0.41800000000E+01 0.  1.
        -11    1    3    3    0    0  0.12055822773E+02 -0.44454416418E+02  0.53954998499E+02  0.70941383302E+02  0.00000000000E+00 0.  1.
         11    1    3    3    0    0 -0.26069834189E+02  0.40162173491E+02  0.10755123085E+03  0.11772809220E+03  0.00000000000E+00 0. -1.
</event>
<event>
 8    1  0.2184156E-005  0.5830391E+02  0.7561462E-02  0.1405090E+00
          1   -1    0    0  501    0  0.00000000000E+00  0.00000000000E+00  0.12936035638E+03  0.12936035638E+03  0.00000000000E+00 0. -1.
         -1   -1    0    0    0  501 -0.00000000000E+00 -0.00000000000E+00 -0.11095482067E+03  0.11095482067E+03  0.00000000000E+00 0.  1.
         23    2    1    2    0    0 -0.66440465553E+01  0.67215214344E+00 -0.52469728832E+02  0.10925537969E+03  0.95598485363E+02 0.  0.
         23    2    1    2    0    0  0.66440465553E+01 -0.67215214344E+00  0.70875264545E+02  0.13105979736E+03  0.11003986649E+03 0.  0.
          5    1    4    4  502    0 -0.14414604387E+02  0.94444061964E+01  0.95339662999E+02  0.96974746037E+02  0.41800000000E+01 0. -1.
         -5    1    4    4    0  502  0.21058650942E+02 -0.10116558340E+02 -0.24464398454E+02  0.34085051326E+02  0.41800000000E+01 0.  1.
        -11    1    3    3    0    0  0.31456553481E+02  0.14462557947E+02  0.88706149005E+01  0.35740287464E+02  0.00000000000E+00 0.  1.
         11    1    3    3    0    0 -0.38100600037E+02 -0.13790405804E+02 -0.61340343732E+02  0.73515092223E+02  0.00000000000E+00 0. -1.
</event>
<event>
 7    1  0.2184156E-005  0.6625729E+02  0.7561462E-02  0.1373304E+00
          2   -1    0    0  501    0  0.00000000000E+00  0.00000000000E+00  0.51763419894E+02  0.51763419894E+02  0.00000000000E+00 0. -1.
         -2   -1    0    0    0  501 -0.00000000000E+00 -0.00000000000E+00 -0.10730539352E+03  0.10730539352E+03  0.00000000000E+00 0.  1.
         23    2    1    2    0    0 -0.11035993141E+02 -0.13433327990E+02 -0.46703935297E+02  0.12288751707E+03  0.11232914508E+03 0.  0.
          5    1    3    3  502    0  0.41986767350E+02 -0.13437404721E+02  0.97309874851E+01  0.45338912598E+02  0.41800000000E+01 0. -1.
         -5    1    3    3    0  502 -0.53022760491E+02  0.40767306487E-02 -0.56434922782E+02  0.77548604476E+02  0.41800000000E+01 0.  1.
        -11    1    1    2    0    0  0.25857486387E+01  0.22501678722E+02 -0.48804170598E+01  0.23169594559E+02  0.00000000000E+00 0. -1.
         11    1    1    2    0    0  0.84502445022E+01 -0.90683507322E+01 -0.39576212690E+01  0.13011701782E+02  0.00000000000E+00 0.  1.
</event>
<event>
 8    1  0.2184156E-005  0.1288030E+03  0.7561462E-02  0.1229243E+00
          2   -1    0    0  501    0  0.00000000000E+00  0.00000000000E+00  0.20048746976E+03  0.20048746976E+03  0.00000000000E+00 0. -1.
         -2   -1    0    0    0  501 -0.00000000000E+00 -0.00000000000E+00 -0.10775242535E+03  0.10775242535E+03  0.00000000000E+00 0.  1.
         23    2    1    2    0    0  0.65938614148E+01  0.94128887034E+02  0.18968439587E+02  0.13505688463E+03  0.94746155607E+02 0.  0.
         23    2    1    2    0    0 -0.65938614148E+01 -0.94128887034E+02  0.73766604822E+02  0.17318301048E+03  0.12508843571E+03 0.  0.
          5    1    4    4  502    0 -0.40519385668E+02 -0.16710272682E+02  0.76771460760E+02  0.88500753756E+02  0.41800000000E+01 0.  1.
         -5    1    4    4    0  502  0.33925524254E+02 -0.77418614352E+02 -0.30048559385E+01  0.84682256721E+02  0.41800000000E+01 0.  1.
        -11    1    3    3    0    0 -0.24247221306E+02  0.95049572047E+02  0.29534058272E+02  0.10244320127E+03  0.00000000000E+00 0.  1.
         11    1    3    3    0    0  0.30841082721E+02 -0.92068501306E+00 -0.10565618685E+02  0.32613683363E+02  0.00000000000E+00 0. -1.
</event>
<event>
 8    1  0.5597919E-005  0.1646710E+03  0.7561462E-02  0.1183522E+00
          1   -1    0    0  501    0  0.00000000000E+00  0.00000000000E+00  0.13335266650E+04  0.13335266650E+04  0.00000000000E+00 0. -1.
         -1   -1    0    0    0  501 -0.00000000000E+00 -0.00000000000E+00 -0.23686670536E+02  0.23686670536E+02  0.00000000000E+00 0.  1.
         23    2    1    2    0    0  0.21049576109E+02  0.12860360122E+03  0.43390925898E+03  0.46285108115E+03  0.94720153062E+02 0.  0.
         23    2    1    2    0    0 -0.21049576109E+02 -0.12860360122E+03  0.87593073545E+03  0.89436225435E+03  0.12508883960E+03 0.  0.
          5    1    4    4  502    0  0.41311414466E+01 -0.14120568139E+03  0.81432022337E+03  0.82649319984E+03  0.41800000000E+01 0. -1.
         -5    1    4    4    0  502 -0.25180717556E+02  0.12602080173E+02  0.61610512079E+02  0.67869054509E+02  0.41800000000E+01 0. -1.
        -11    1    3    3    0    0  0.42445898889E+02  0.16694043398E+02  0.96783067075E+02  0.10699209078E+03  0.00000000000E+00 0.  1.
         11    1    3    3    0    0 -0.21396322780E+02  0.11190955782E+03  0.33712619190E+03  0.35585899037E+03  0.00000000000E+00 0. -1.
</event>
<event>
 8    1  0.2184156E-005  0.9050751E+02  0.7561462E-02  0.1301627E+00
          2   -1    0    0  501    0  0.00000000000E+00  0.00000000000E+00  0.12851321409E+04  0.12851321409E+04  0.00000000000E+00 0. -1.
         -2   -1    0    0    0  501 -0.00000000000E+00 -0.00000000000E+00 -0.16553508180E+02  0.16553508180E+02  0.00000000000E+00 0.  1.
         23    2    1    2    0    0 -0.13589403600E+02  0.67154925666E+02  0.27015117040E+03  0.29312208717E+03  0.90798938257E+02 0.  0.
         23    2    1    2    0    0  0.13589403600E+02 -0.67154925666E+02  0.99842746233E+03  0.10085635619E+04  0.12509438421E+03 0.  0.
          5    1    4    4  502    0  0.63060169989E+01 -0.15205967570E+02  0.12148454395E+02  0.20881682028E+02  0.41800000000E+01 0. -1.
         -5    1    4    4    0  502  0.72833866011E+01 -0.51948958096E+02  0.98627900794E+03  0.98768187989E+03  0.41800000000E+01 0. -1.
        -11    1    3    3    0    0  0.14301654170E+02 -0.17311765032E+02  0.81740194395E+02  0.84768472324E+02  0.00000000000E+00 0. -1.
         11    1    3    3    0    0 -0.27891057770E+02  0.84466690698E+02  0.18841097600E+03  0.20835361485E+03  0.00000000000E+00 0.  1.
</event>
<event>
 7    1  0.2184156E-005  0.2178862E+03  0.7561462E-02  0.1135469E+00
          2   -1    0    0  501    0  0.00000000000E+00  0.00000000000E+00  0.14233889372E+04  0.14233889372E+04  0.00000000000E+00 0. -1.
         -2   -1    0    0    0  501 -0.00000000000E+00 -0.00000000000E+00 -0.19777306849E+03  0.19777306849E+03  0.00000000000E+00 0.  1.
         23    2    1    2    0    0  0.55762794385E+02 -0.11242618841E+03 -0.14829856801E+03  0.21359554429E+03  0.88777554538E+02 0.  0.
          5    1    1    2  502    0  0.94132706946E+02  0.10231430555E+03  0.89140784830E+03  0.90219432942E+03  0.41800000000E+01 0. -1.
         -5    1    1    2    0  502 -0.14989550133E+03  0.10111882854E+02  0.48250658841E+03  0.50537213195E+03  0.41800000000E+01 0.  1.
        -11    1    3    3    0    0 -0.99093108484E+01 -0.64068740394E+02 -0.34060944630E+02  0.73233502485E+02  0.00000000000E+00 0. -1.
         11    1    3    3    0    0  0.65672105233E+02 -0.48357448011E+02 -0.11423762338E+03  0.14036204181E+03  0.00000000000E+00 0.  1.
</event>
<event>
 8    1  0.2184156E-005  0.1093600E+03  0.7561462E-02  0.1261760E+00
          1   -1    0    0  501    0  0.00000000000E+00  0.00000000000E+00  0.15850947169E+03  0.15850947169E+03  0.00000000000E+00 0. -1.
         -1   -1    0    0    0  501 -0.00000000000E+00 -0.00000000000E+00 -0.84958090707E+02  0.84958090707E+02  0.00000000000E+00 0.  1.
         23    2    1    2    0    0 -0.24557085672E+01  0.31123498185E+02  0.19009470122E+01  0.95968473169E+02  0.90728339558E+02 0.  0.
         23    2    1    2    0    0  0.24557085672E+01 -0.31123498185E+02  0.71650433974E+02  0.14749908923E+03  0.12508994361E+03 0.  0.
          5    1    4    4  502    0 -0.37806289363E+01 -0.79578300541E+02  0.41316641100E+02  0.89841729190E+02  0.41800000000E+01 0. -1.
         -5    1    4    4    0  502  0.62363375035E+01  0.48454802356E+02  0.30333792875E+02  0.57657360041E+02  0.41800000000E+01 0. -1.
        -11    1    3    3    0    0 -0.45765959413E+00 -0.29374629072E+02 -0.15187188496E+02  0.33071573591E+02  0.00000000000E+00 0.  1.
         11    1    3    3    0    0 -0.19980489730E+01  0.60498127257E+02  0.17088135509E+02  0.62896899577E+02  0.00000000000E+00 0. -1.
</event>
<event>
 8    1  0.2184156E-005  0.1217206E+03  0.7561462E-02  0.1240285E+00
          1   -1    0    0  501    0  0.00000000000E+00  0.00000000000E+00  0.69595561147E+03  0.69595561147E+03  0.00000000000E+00 0. -1.
         -1   -1    0    0    0  501 -0.00000000000E+00 -0.00000000000E+00 -0.22242854874E+02  0.22242854874E+02  0.00000000000E+00 0.  1.
         23    2    1    2    0    0  0.40563260982E+02  0.42934091215E+02  0.23850275843E+03  0.26342071500E+03  0.94964166832E+02 0.  0.
         23    2    1    2    0    0 -0.40563260982E+02 -0.42934091215E+02  0.43520999816E+03  0.45477775134E+03  0.11800994146E+03 0.  0.
          5    1    4    4  502    0  0.41858087879E+02 -0.17495660143E+02  0.14454065640E+03  0.15155088715E+03  0.41800000000E+01 0. -1.
         -5    1    4    4    0  502 -0.82421348861E+02 -0.25438431072E+02  0.29066934177E+03  0.30322686419E+03  0.41800000000E+01 0.  1.
        -11    1    3    3    0    0  0.61234537932E+02 -0.28371630501E+01  0.12125611946E+03  0.13587039647E+03  0.00000000000E+00 0. -1.
         11    1    3    3    0    0 -0.20671276949E+02  0.45771254265E+02  0.11724663897E+03  0.12755031853E+03  0.00000000000E+00 0.  1.
</event>
<event>
 8    1  0.2184156E-005  0.9569158E+02  0.7561462E-02  0.1289626E+00
         -1   -1    0    0    0  501 -0.00000000000E+00  0.00000000000E+00  0.57910154342E+02  0.57910154342E+02  0.00000000000E+00 0.  1.
          1   -1    0    0  501    0  0.00000000000E+00 -0.00000000000E+00 -0.21550064124E+03  0.21550064124E+03  0.00000000000E+00 0. -1.
         23    2    1    2    0    0  0.41490460571E+02  0.16333678077E+02 -0.47587992885E+02  0.10097227633E+03  0.77087847048E+02 0.  0.
         23    2    1    2    0    0 -0.41490460571E+02 -0.16333678077E+02 -0.11000249401E+03  0.17243851925E+03  0.12508495863E+03 0.  0.
          5    1    4    4  502    0  0.23524587516E+02 -0.27927440901E+02  0.75683515610E+01  0.37524665467E+02  0.41800000000E+01 0. -1.
         -5    1    4    4    0  502 -0.65015048087E+02  0.11593762825E+02 -0.11757084557E+03  0.13491385378E+03  0.41800000000E+01 0. -1.
        -11    1    3    3    0    0 -0.22716330585E+02  0.36083127395E+01 -0.17662068919E+02  0.29000004734E+02  0.00000000000E+00 0.  1.
         11    1    3    3    0    0  0.64206791156E+02  0.12725365337E+02 -0.29925923966E+02  0.71972271596E+02  0.00000000000E+00 0. -1.
</event>
<event>
 8    1  0.2184156E-005  0.1806949E+03  0.7561462E-02  0.1167132E+00
         -1   -1    0    0    0  501 -0.00000000000E+00  0.00000000000E+00  0.22161711921E+03  0.22161711921E+03  0.00000000000E+00 0.  1.
          1   -1    0    0  501    0  0.00000000000E+00 -0.00000000000E+00 -0.19532445320E+03  0.19532445320E+03  0.00000000000E+00 0. -1.
         23    2    1    2    0    0 -0.12008146956E+03  0.10466655665E+03  0.86644155652E+02  0.20560240982E+03  0.96904560289E+02 0.  0.
         23    2    1    2    0    0  0.12008146956E+03 -0.10466655665E+03 -0.60351489637E+02  0.21133916258E+03  0.12508913593E+03 0.  0.
          5    1    4    4  502    0  0.14365018066E+03 -0.71837619604E+02 -0.57369422710E+02  0.17060111681E+03  0.41800000000E+01 0. -1.
         -5    1    4    4    0  502 -0.23568711099E+02 -0.32828937047E+02 -0.29820669273E+01  0.40738045776E+02  0.41800000000E+01 0. -1.
        -11    1    3    3    0    0 -0.71823545312E+02  0.72791861543E+02  0.10336279807E+03  0.14539994771E+03  0.00000000000E+00 0.  1.
         11    1    3    3    0    0 -0.48257924246E+02  0.31874695108E+02 -0.16718642419E+02  0.60202462118E+02  0.00000000000E+00 0. -1.
</event>
<event>
 7    1  0.2184156E-005  0.1106804E+03  0.7561462E-02  0.1259315E+00
         -3   -1    0    0    0  501 -0.00000000000E+00  0.00000000000E+00  0.45976109653E+02  0.45976109653E+02  0.00000000000E+00 0.  1.
          3   -1    0    0  501    0  0.00000000000E+00 -0.00000000000E+00 -0.42527443719E+03  0.42527443719E+03  0.00000000000E+00 0. -1.
         23    2    1    2    0    0  0.10179939282E+03 -0.31219906911E+02 -0.26446401928E+03  0.30932216909E+03  0.12000494917E+03 0.  0.
          5    1    3    3  502    0  0.88760316068E+02 -0.26519402622E+02 -0.27577623453E+03  0.29094961137E+03  0.41800000000E+01 0. -1.
         -5    1    3    3    0  502  0.13039076756E+02 -0.47005042894E+01  0.11312215247E+02  0.18372557716E+02  0.41800000000E+01 0.  1.
        -11    1    1    2    0    0 -0.12708100324E+02  0.20906709609E+02 -0.23588141491E+02  0.33985095844E+02  0.00000000000E+00 0. -1.
         11    1    1    2    0    0 -0.89091292500E+02  0.10313197302E+02 -0.91246166757E+02  0.12794328191E+03  0.00000000000E+00 0.  1.
</event>
<event>
 8    1  0.2184156E-005  0.1096568E+03  0.7561462E-02  0.1261207E+00
          2   -1    0    0  501    0  0.00000000000E+00  0.00000000000E+00  0.35254503619E+03  0.35254503619E+03  0.00000000000E+00 0.  1.
         -2   -1    0    0    0  501 -0.00000000000E+00 -0.00000000000E+00 -0.37421693951E+02  0.37421693951E+02  0.00000000000E+00 0. -1.
         23    2    1    2    0    0 -0.83420324939E+01  0.37281489234E+02  0.11021092553E+03  0.14686434402E+03  0.89236699259E+02 0.  0.
         23    2    1    2    0    0  0.83420324939E+01 -0.37281489234E+02  0.20491241671E+03  0.24310238612E+03  0.12510065015E+03 0.  0.
          5    1    4    4  502    0 -0.13363480413E+02 -0.76226608598E+02  0.16819846707E+03  0.18519523534E+03  0.41800000000E+01 0.  1.
         -5    1    4    4    0  502  0.21705512907E+02  0.38945119364E+02  0.36713949640E+02  0.57907150776E+02  0.41800000000E+01 0.  1.
        -11    1    3    3    0    0 -0.26806002818E+02 -0.22165003127E+02  0.37505677654E+02  0.51151979503E+02  0.00000000000E+00 0.  1.
         11    1    3    3    0    0  0.18463970324E+02  0.59446492361E+02  0.72705247872E+02  0.95712364521E+02  0.00000000000E+00 0. -1.
</event>
<event>
 8    1  0.2184156E-005  0.1129270E+03  0.7561462E-02  0.1255244E+00
         -1   -1    0    0    0  501 -0.00000000000E+00  0.00000000000E+00  0.15852193186E+02  0.15852193186E+02  0.00000000000E+00 0.  1.
          1   -1    0    0  501    0  0.00000000000E+00 -0.00000000000E+00 -0.10888552449E+04  0.10888552449E+04  0.00000000000E+00 0. -1.
         23    2    1    2    0    0 -0.29122244301E+01 -0.62561606988E+02 -0.32734794108E+03  0.34604357335E+03  0.93096962395E+02 0.  0.
         23    2    1    2    0    0  0.29122244301E+01  0.62561606988E+02 -0.74565511066E+03  0.75866386476E+03  0.12508748908E+03 0.  0.
          5    1    4    4  502    0  0.40495515321E+02  0.74824599415E+02 -0.64235491167E+03  0.64797832709E+03  0.41800000000E+01 0.  1.
         -5    1    4    4    0  502 -0.37583290891E+02 -0.12262992427E+02 -0.10330019899E+03  0.11068553767E+03  0.41800000000E+01 0.  1.
        -11    1    3    3    0    0  0.35792224651E+02 -0.13103630476E+02 -0.20505583152E+03  0.20856817235E+03  0.00000000000E+00 0. -1.
         11    1    3    3    0    0 -0.38704449081E+02 -0.49457976512E+02 -0.12229210956E+03  0.13747540100E+03  0.00000000000E+00 0.  1.
</event>
<event>
 8    1  0.2184156E-005  0.1167005E+03  0.7561462E-02  0.1248642E+00
         -1   -1    0    0    0  501 -0.00000000000E+00  0.00000000000E+00  0.19260156219E+02  0.19260156219E+02  0.00000000000E+00 0.  1.
          1   -1    0    0  501    0  0.00000000000E+00 -0.00000000000E+00 -0.82778304324E+03  0.82778304324E+03  0.00000000000E+00 0. -1.
         23    2    1    2    0    0  0.52343243639E+02  0.14089683032E+02 -0.26828440828E+03  0.28986857944E+03  0.95440742341E+02 0.  0.
         23    2    1    2    0    0 -0.52343243639E+02 -0.14089683032E+02 -0.54023847874E+03  0.55717462002E+03  0.12509040314E+03 0.  0.
          5    1    4    4  502    0 -0.83766394415E+02 -0.31493625244E+02 -0.46675041095E+03  0.47527052905E+03  0.41800000000E+01 0. -1.
         -5    1    4    4    0  502  0.31423150776E+02  0.17403942212E+02 -0.73488067794E+02  0.81904090968E+02  0.41800000000E+01 0. -1.
        -11    1    3    3    0    0 -0.47262102586E+01 -0.33198750060E+02 -0.59215159867E+02  0.68050931125E+02  0.00000000000E+00 0.  1.
         11    1    3    3    0    0  0.57069453897E+02  0.47288433092E+02 -0.20906924841E+03  0.22181764832E+03  0.00000000000E+00 0. -1.
</event>
<event>
 8    1  0.2184156E-005  0.9460229E+02  0.7561462E-02  0.1292074E+00
          2   -1    0    0  501    0  0.00000000000E+00  0.00000000000E+00  0.57741404670E+03  0.57741404670E+03  0.00000000000E+00 0. -1.
         -2   -1    0    0    0  501 -0.00000000000E+00 -0.00000000000E+00 -0.25049609647E+02  0.25049609647E+02  0.00000000000E+00 0.  1.
         23    2    1    2    0    0  0.50611038011E+02  0.17584658983E+01  0.17166227301E+03  0.19854731367E+03  0.85956561238E+02 0.  0.
         23    2    1    2    0    0 -0.50611038011E+02 -0.17584658983E+01  0.38070216404E+03  0.40391634268E+03  0.12509878019E+03 0.  0.
          5    1    4    4  502    0 -0.51579471838E+02  0.28469057913E+02  0.69442054892E+02  0.91162495365E+02  0.41800000000E+01 0. -1.
         -5    1    4    4    0  502  0.96843382687E+00 -0.30227523812E+02  0.31126010915E+03  0.31275384731E+03  0.41800000000E+01 0. -1.
        -11    1    3    3    0    0  0.23095719536E+02 -0.41993991557E+02  0.88109315250E+02  0.10030034407E+03  0.00000000000E+00 0.  1.
         11    1    3    3    0    0  0.27515318475E+02  0.43752457455E+02  0.83552957762E+02  0.98246969597E+02  0.00000000000E+00 0. -1.
</event>
<event>
 7    1  0.2184156E-005  0.1326290E+03  0.7561462E-02  0.1223606E+00
         -4   -1    0    0    0  501 -0.00000000000E+00  0.00000000000E+00  0.14122890203E+03  0.14122890203E+03  0.00000000000E+00 0.  1.
          4   -1    0    0  501    0  0.00000000000E+00 -0.00000000000E+00 -0.17464485436E+03  0.17464485436E+03  0.00000000000E+00 0. -1.
         23    2    1    2    0    0 -0.58440277163E+02  0.58025180397E+02  0.60856613374E+02  0.13617274344E+03  0.89762470503E+02 0.  0.
          5    1    1    2  502    0  0.46557756272E+02 -0.97961780579E+02 -0.82087976728E+02  0.13608836632E+03  0.41800000000E+01 0. -1.
         -5    1    1    2    0  502  0.11882520891E+02  0.39936600183E+02 -0.12184588977E+02  0.43612646622E+02  0.41800000000E+01 0.  1.
        -11    1    3    3    0    0 -0.45424119319E+02 -0.92159256444E+01  0.28792846874E+01  0.46438929593E+02  0.00000000000E+00 0. -1.
         11    1    3    3    0    0 -0.13016157844E+02  0.67241106041E+02  0.57977328687E+02  0.89733813851E+02  0.00000000000E+00 0.  1.
</event>
<event>
 8    1  0.2184156E-005  0.1839449E+03  0.7561462E-02  0.1164039E+00
          1   -1    0    0  501    0  0.00000000000E+00  0.00000000000E+00  0.11400966404E+04  0.11400966404E+04  0.00000000000E+00 0. -1.
         -1   -1    0    0    0  501 -0.00000000000E+00 -0.00000000000E+00 -0.34905615678E+02  0.34905615678E+02  0.00000000000E+00 0.  1.
         23    2    1    2    0    0 -0.52659235551E+02 -0.15348490652E+03  0.41125097734E+03  0.45144755469E+03  0.91361461516E+02 0.  0.
         23    2    1    2    0    0  0.52659235551E+02  0.15348490652E+03  0.69394004739E+03  0.72355470140E+03  0.12509198587E+03 0.  0.
          5    1    4    4  502    0  0.12217172738E+01 -0.12038009895E+02  0.60653174945E+01  0.14165689240E+02  0.41800000000E+01 0.  1.
         -5    1    4    4    0  502  0.51437518277E+02  0.16552291642E+03  0.68787472989E+03  0.70938901216E+03  0.41800000000E+01 0.  1.
        -11    1    3    3    0    0  0.42365372912E+01 -0.11003774636E+03  0.19882207222E+03  0.22728059811E+03  0.00000000000E+00 0. -1.
         11    1    3    3    0    0 -0.56895772842E+02 -0.43447160161E+02  0.21242890512E+03  0.22416695658E+03  0.00000000000E+00 0.  1.
</event>
<event>
 8    1  0.2184156E-005  0.2287912E+03  0.7561462E-02  0.1127493E+00
         -1   -1    0    0    0  501 -0.00000000000E+00  0.00000000000E+00  0.15333607612E+03  0.15333607612E+03  0.00000000000E+00 0.  1.
          1   -1    0    0  501    0  0.00000000000E+00 -0.00000000000E+00 -0.44534064380E+03  0.44534064380E+03  0.00000000000E+00 0. -1.
         23    2    1    2    0    0  0.19008055624E+03 -0.10179080498E+03 -0.30489027983E+02  0.23738721204E+03  0.94504612441E+02 0.  0.
         23    2    1    2    0    0 -0.19008055624E+03  0.10179080498E+03 -0.26151553970E+03  0.36128950789E+03  0.12509094758E+03 0.  0.
          5    1    4    4  502    0 -0.20122278276E+03  0.82964687778E+02 -0.25980181233E+03  0.33895162163E+03  0.41800000000E+01 0.  1.
         -5    1    4    4    0  502  0.11142226518E+02  0.18826117205E+02 -0.17137273689E+01  0.22337886253E+02  0.41800000000E+01 0.  1.
        -11    1    3    3    0    0  0.72490018505E+02 -0.22933491566E+02 -0.54812455172E+02  0.93729147336E+02  0.00000000000E+00 0. -1.
         11    1    3    3    0    0  0.11759053773E+03 -0.78857313417E+02  0.24323427189E+02  0.14365806470E+03  0.00000000000E+00 0.  1.
</event>
<event>
 8    1  0.2184156E-005  0.1146967E+03  0.7561462E-02  0.1252112E+00
         -3   -1    0    0    0  501 -0.00000000000E+00  0.00000000000E+00  0.31805256177E+03  0.31805256177E+03  0.00000000000E+00 0.  1.
          3   -1    0    0  501    0  0.00000000000E+00 -0.00000000000E+00 -0.66551020843E+02  0.66551020843E+02  0.00000000000E+00 0. -1.
         23    2    1    2    0    0  0.62354801995E+02  0.67157002181E+02  0.12433520202E+03  0.18406186582E+03  0.10010666170E+03 0.  0.
         23    2    1    2    0    0 -0.62354801995E+02 -0.67157002181E+02  0.12716633891E+03  0.20054171679E+03  0.12509004016E+03 0.  0.
          5    1    4    4  502    0 -0.86529240638E+02 -0.27366532052E+02  0.35301524443E+02  0.97467464264E+02  0.41800000000E+01 0.  1.
         -5    1    4    4    0  502  0.24174438643E+02 -0.39790470129E+02  0.91864814464E+02  0.10307425252E+03  0.41800000000E+01 0.  1.
        -11    1    3    3    0    0  0.46009382038E+02  0.45980294707E+02  0.90015260406E+01  0.65666416134E+02  0.00000000000E+00 0. -1.
         11    1    3    3    0    0  0.16345419957E+02  0.21176707474E+02  0.11533367598E+03  0.11839544969E+03  0.00000000000E+00 0.  1.
</event>
<event>
 8    1  0.2184156E-005  0.9730782E+02  0.7561462E-02  0.1286061E+00
          1   -1    0    0  501    0  0.00000000000E+00  0.00000000000E+00  0.70967929018E+02  0.70967929018E+02  0.00000000000E+00 0. -1.
         -1   -1    0    0    0  501 -0.00000000000E+00 -0.00000000000E+00 -0.20304847951E+03  0.20304847951E+03  0.00000000000E+00 0.  1.
         23    2    1    2    0    0 -0.36730041344E+02  0.32330010213E+02 -0.72980352450E+02  0.12727111148E+03  0.92073223443E+02 0.  0.
         23    2    1    2    0    0  0.36730041344E+02 -0.32330010213E+02 -0.59100198038E+02  0.14674529705E+03  0.12508806218E+03 0.  0.
          5    1    4    4  502    0 -0.95127352871E+01 -0.42973416783E+02 -0.82555090782E+02  0.93648396125E+02  0.41800000000E+01 0.  1.
         -5    1    4    4    0  502  0.46242776631E+02  0.10643406570E+02  0.23454892744E+02  0.53096900923E+02  0.41800000000E+01 0.  1.
        -11    1    3    3    0    0 -0.21323007900E+02  0.64049141512E+02 -0.57838431339E+02  0.88894585516E+02  0.00000000000E+00 0.  1.
         11    1    3    3    0    0 -0.15407033444E+02 -0.31719131298E+02 -0.15141921110E+02  0.38376525960E+02  0.00000000000E+00 0. -1.
</event>
<event>
 8    1  0.2184156E-005  0.1124993E+03  0.7561462E-02  0.1256010E+00
          3   -1    0    0  501    0  0.00000000000E+00  0.00000000000E+00  0.43176569171E+03  0.43176569171E+03  0.00000000000E+00 0. -1.
         -3   -1    0    0    0  501 -0.00000000000E+00 -0.00000000000E+00 -0.31651651145E+02  0.31651651145E+02  0.00000000000E+00 0.  1.
         23    2    1    2    0    0  0.32137326359E+02 -0.25523896153E+02  0.20722326433E+03  0.22988008793E+03  0.90659233004E+02 0.  0.
         23    2    1    2    0    0 -0.32137326359E+02  0.25523896153E+02  0.19289077624E+03  0.23353725492E+03  0.12509404806E+03 0.  0.
          5    1    4    4  502    0 -0.26567195467E+02 -0.49417938403E+02  0.87618035385E+02  0.10412656258E+03  0.41800000000E+01 0. -1.
         -5    1    4    4    0  502 -0.55701308915E+01  0.74941834556E+02  0.10527274085E+03  0.12941069234E+03  0.41800000000E+01 0. -1.
        -11    1    3    3    0    0  0.10828841106E+02 -0.55581965622E+02  0.84298443163E+02  0.10155218472E+03  0.00000000000E+00 0.  1.
         11    1    3    3    0    0  0.21308485253E+02  0.30058069469E+02  0.12292482117E+03  0.12832790321E+03  0.00000000000E+00 0. -1.
</event>
<event>
 8    1  0.2184156E-005  0.2069088E+03  0.7561462E-02  0.1144038E+00
          1   -1    0    0  501    0  0.00000000000E+00  0.00000000000E+00  0.12981585921E+03  0.12981585921E+03  0.00000000000E+00 0. -1.
         -1   -1    0    0    0  501 -0.00000000000E+00 -0.00000000000E+00 -0.41398542156E+03  0.41398542156E+03  0.00000000000E+00 0.  1.
         23    2    1    2    0    0  0.74201156444E+02  0.18409620553E+03 -0.19566385500E+03  0.29304560789E+03  0.90521597645E+02 0.  0.
         23    2    1    2    0    0 -0.74201156444E+02 -0.18409620553E+03 -0.88505707348E+02  0.25075567288E+03  0.12509165735E+03 0.  0.
          5    1    4    4  502    0 -0.11218857731E+02 -0.10073799454E+03  0.16257798180E+02  0.10274139728E+03  0.41800000000E+01 0.  1.
         -5    1    4    4    0  502 -0.62982298712E+02 -0.83358210986E+02 -0.10476350553E+03  0.14801427560E+03  0.41800000000E+01 0.  1.
        -11    1    3    3    0    0  0.21300960498E+02  0.61549366411E+01  0.15225974413E+01  0.22224591473E+02  0.00000000000E+00 0. -1.
         11    1    3    3    0    0  0.52900195946E+02  0.17794126889E+03 -0.19718645244E+03  0.27082101641E+03  0.00000000000E+00 0.  1.
</event>
<event>
 8    1  0.2184156E-005  0.1506455E+03  0.7561462E-02  0.1199682E+00
          1   -1    0    0  501    0  0.00000000000E+00  0.00000000000E+00  0.10540452163E+04  0.10540452163E+04  0.00000000000E+00 0. -1.
         -1   -1    0    0    0  501 -0.00000000000E+00 -0.00000000000E+00 -0.22296051126E+02  0.22296051126E+02  0.00000000000E+00 0.  1.
         23    2    1    2    0    0  0.10537333593E+03  0.40966336020E+01  0.40247130107E+03  0.42614268231E+03  0.92163524046E+02 0.  0.
         23    2    1    2    0    0 -0.10537333593E+03 -0.40966336020E+01  0.62927786407E+03  0.65019858509E+03  0.12508895839E+03 0.  0.
          5    1    4    4  502    0  0.22922484802E+02 -0.24191662867E+02  0.13831780833E+03  0.14233750512E+03  0.41800000000E+01 0. -1.
         -5    1    4    4    0  502 -0.12829582073E+03  0.20095029265E+02  0.49096005574E+03  0.50786107997E+03  0.41800000000E+01 0. -1.
        -11    1    3    3    0    0  0.82944076291E+02  0.42578602305E+02  0.23419585977E+03  0.25207212837E+03  0.00000000000E+00 0. -1.
         11    1    3    3    0    0  0.22429259634E+02 -0.38481968702E+02  0.16827544130E+03  0.17407055394E+03  0.00000000000E+00 0.  1.
</event>
<event>
 8    1  0.2184156E-005  0.1090105E+03  0.7561462E-02  0.1262413E+00
         -1   -1    0    0    0  501 -0.00000000000E+00  0.00000000000E+00  0.26597586404E+02  0.26597586404E+02  0.00000000000E+00 0.  1.
          1   -1    0    0  501    0  0.00000000000E+00 -0.00000000000E+00 -0.63223232659E+03  0.63223232659E+03  0.00000000000E+00 0. -1.
         23    2    1    2    0    0  0.52277922825E+02 -0.45789197644E+02 -0.27897408815E+03  0.30220141560E+03  0.93110267417E+02 0.  0.
         23    2    1    2    0    0 -0.52277922825E+02  0.45789197644E+02 -0.32666065204E+03  0.35662849739E+03  0.12508825575E+03 0.  0.
          5    1    4    4  502    0 -0.82461125600E+02  0.19342040868E+02 -0.28988897293E+03  0.30203814462E+03  0.41800000000E+01 0.  1.
         -5    1    4    4    0  502  0.30183202775E+02  0.26447156776E+02 -0.36771679113E+02  0.54590352775E+02  0.41800000000E+01 0.  1.
        -11    1    3    3    0    0  0.52565372585E+02 -0.58042092423E+01 -0.61631298683E+02  0.81210985816E+02  0.00000000000E+00 0.  1.
         11    1    3    3    0    0 -0.28744975946E+00 -0.39984988402E+02 -0.21734278946E+03  0.22099042979E+03  0.00000000000E+00 0. -1.
</event>
<event>
 8    1  0.2184156E-005  0.2788929E+03  0.7561462E-02  0.1096295E+00
          2   -1    0    0  501    0  0.00000000000E+00  0.00000000000E+00  0.64771866572E+03  0.64771866572E+03  0.00000000000E+00 0. -1.
         -2   -1    0    0    0  501 -0.00000000000E+00 -0.00000000000E+00 -0.14510272860E+03  0.14510272860E+03  0.00000000000E+00 0.  1.
         23    2    1    2    0    0  0.16962213074E+03  0.21037395672E+03  0.12152005649E+03  0.30893984457E+03  0.87451898392E+02 0.  0.
         23    2    1    2    0    0 -0.16962213074E+03 -0.21037395672E+03  0.38109588064E+03  0.48388154976E+03  0.12600958320E+03 0.  0.
          5    1    4    4  502    0 -0.10231308467E+03 -0.19166246308E+03  0.33757057035E+03  0.40146460543E+03  0.41800000000E+01 0. -1.
         -5    1    4    4    0  502 -0.67309046065E+02 -0.18711493635E+02  0.43525310284E+02  0.82416944323E+02  0.41800000000E+01 0.  1.
        -11    1    3    3    0    0  0.71870001656E+02  0.98524289685E+02  0.84277404375E+01  0.12224303500E+03  0.00000000000E+00 0.  1.
         11    1    3    3    0    0  0.97752129082E+02  0.11184966703E+03  0.11309231605E+03  0.18669680957E+03  0.00000000000E+00 0. -1.
</event>
<event>
 8    1  0.2184156E-005  0.9784249E+02  0.7561462E-02  0.1284899E+00
         -2   -1    0    0    0  501 -0.00000000000E+00  0.00000000000E+00  0.13945394988E+02  0.13945394988E+02  0.00000000000E+00 0.  1.
          2   -1    0    0  501    0  0.00000000000E+00 -0.00000000000E+00 -0.10220058766E+04  0.10220058766E+04  0.00000000000E+00 0. -1.
         23    2    1    2    0    0  0.13966615701E+02  0.45998979979E+02 -0.45048254188E+03  0.46249550582E+03  0.93040850426E+02 0.  0.
         23    2    1    2    0    0 -0.13966615701E+02 -0.45998979979E+02 -0.55757793974E+03  0.57345576578E+03  0.12508950359E+03 0.  0.
          5    1    4    4  502    0  0.32608153824E+01 -0.65125251555E+02 -0.53495991590E+03  0.53893553912E+03  0.41800000000E+01 0. -1.
         -5    1    4    4    0  502 -0.17227431083E+02  0.19126271576E+02 -0.22618023833E+02  0.34520226653E+02  0.41800000000E+01 0. -1.
        -11    1    3    3    0    0 -0.11051704829E+02  0.69241220616E+02 -0.28192836577E+03  0.29051693623E+03  0.00000000000E+00 0. -1.
         11    1    3    3    0    0  0.25018320530E+02 -0.23242240636E+02 -0.16855417611E+03  0.17197856958E+03  0.00000000000E+00 0.  1.
</event>
<event>
 8    1  0.2184156E-005  0.1306381E+03  0.7561462E-02  0.1226512E+00
          4   -1    0    0  501    0  0.00000000000E+00  0.00000000000E+00  0.45908283786E+03  0.45908283786E+03  0.00000000000E+00 0. -1.
         -4   -1    0    0    0  501 -0.00000000000E+00 -0.00000000000E+00 -0.58844373023E+02  0.58844373023E+02  0.00000000000E+00 0.  1.
         23    2    1    2    0    0 -0.43045302862E+02 -0.93782651020E+02  0.84428468101E+02  0.16290382956E+03  0.93602391674E+02 0.  0.
         23    2    1    2    0    0  0.43045302862E+02  0.93782651020E+02  0.31580999674E+03  0.35502338133E+03  0.12513018629E+03 0.  0.
          5    1    4    4  502    0  0.66490227785E+02  0.53886183152E+02  0.89158310389E+02  0.12365818953E+03  0.41800000000E+01 0. -1.
         -5    1    4    4    0  502 -0.23444924923E+02  0.39896467868E+02  0.22665168635E+03  0.23136519181E+03  0.41800000000E+01 0. -1.
        -11    1    3    3    0    0 -0.63123348585E+02 -0.87875604199E+02  0.42885263021E+02  0.11638653158E+03  0.00000000000E+00 0.  1.
         11    1    3    3    0    0  0.20078045723E+02 -0.59070468211E+01  0.41543205079E+02  0.46517297970E+02  0.00000000000E+00 0. -1.
</event>
<event>
 8    1  0.2184156E-005  0.8742440E+02  0.7561462E-02  0.1309212E+00
         -2   -1    0    0    0  501 -0.00000000000E+00  0.00000000000E+00  0.29809553295E+02  0.29809553295E+02  0.00000000000E+00 0.  1.
          2   -1    0    0  501    0  0.00000000000E+00 -0.00000000000E+00 -0.44563368820E+03  0.44563368820E+03  0.00000000000E+00 0. -1.
         23    2    1    2    0    0 -0.33182594788E+02  0.25310525033E+01 -0.14099254398E+03  0.17165504959E+03  0.92081853633E+02 0.  0.
         23    2    1    2    0    0  0.33182594788E+02 -0.25310525033E+01 -0.27483159093E+03  0.30378819191E+03  0.12508945338E+03 0.  0.
          5    1    4    4  502    0  0.84027657502E+01 -0.40362555082E+02 -0.24714966097E+03  0.25059962020E+03  0.41800000000E+01 0.  1.
         -5    1    4    4    0  502  0.24779829038E+02  0.37831502578E+02 -0.27681929958E+02  0.53188571711E+02  0.41800000000E+01 0.  1.
        -11    1    3    3    0    0  0.11162761963E+01  0.38369446407E+02 -0.25842069816E+02  0.46273891801E+02  0.00000000000E+00 0.  1.
         11    1    3    3    0    0 -0.34298870984E+02 -0.35838393903E+02 -0.11515047416E+03  0.12538115779E+03  0.00000000000E+00 0. -1.
</event>
<event>
 8    1  0.2184156E-005  0.1241884E+03  0.7561462E-02  0.1236343E+00
         -1   -1    0    0    0  501 -0.00000000000E+00  0.00000000000E+00  0.44974687149E+02  0.44974687149E+02  0.00000000000E+00 0.  1.
          1   -1    0    0  501    0  0.00000000000E+00 -0.00000000000E+00 -0.40253302113E+03  0.40253302113E+03  0.00000000000E+00 0. -1.
         23    2    1    2    0    0 -0.84750474933E+02 -0.19772130816E+01 -0.12460140275E+03  0.16983325598E+03  0.78302445031E+02 0.  0.
         23    2    1    2    0    0  0.84750474933E+02  0.19772130816E+01 -0.23295693124E+03  0.27767445230E+03  0.12509043639E+03 0.  0.
          5    1    4    4  502    0 -0.25765669640E+02  0.12060850507E+02 -0.10196854916E+03  0.10594522767E+03  0.41800000000E+01 0. -1.
         -5    1    4    4    0  502  0.11051614457E+03 -0.10083637426E+02 -0.13098838207E+03  0.17172922463E+03  0.41800000000E+01 0. -1.
        -11    1    3    3    0    0 -0.11502156911E+02 -0.28446918903E+02 -0.64599112171E+02  0.71516236632E+02  0.00000000000E+00 0. -1.
         11    1    3    3    0    0 -0.73248318022E+02  0.26469705822E+02 -0.60002290575E+02  0.98317019349E+02  0.00000000000E+00 0.  1.
</event>
<event>
 8    1  0.2184156E-005  0.1155720E+03  0.7561462E-02  0.1250586E+00
          2   -1    0    0  501    0  0.00000000000E+00  0.00000000000E+00  0.24387430451E+02  0.24387430451E+02  0.00000000000E+00 0. -1.
         -2   -1    0    0    0  501 -0.00000000000E+00 -0.00000000000E+00 -0.85197142561E+03  0.85197142561E+03  0.00000000000E+00 0.  1.
         23    2    1    2    0    0  0.62993905250E+02  0.38427703157E+02 -0.55424043869E+03  0.56682912327E+03  0.93101399810E+02 0.  0.
         23    2    1    2    0    0 -0.62993905250E+02 -0.38427703157E+02 -0.27334355647E+03  0.30952973279E+03  0.12508810953E+03 0.  0.
          5    1    4    4  502    0 -0.79975205540E+02 -0.50291161804E+02 -0.11101849942E+03  0.14583488633E+03  0.41800000000E+01 0.  1.
         -5    1    4    4    0  502  0.16981300290E+02  0.11863458647E+02 -0.16232505706E+03  0.16369484646E+03  0.41800000000E+01 0.  1.
        -11    1    3    3    0    0  0.80764407566E+02  0.49291250410E+02 -0.49678074044E+03  0.50571100539E+03  0.00000000000E+00 0.  1.
         11    1    3    3    0    0 -0.17770502316E+02 -0.10863547253E+02 -0.57459698246E+02  0.61118117887E+02  0.00000000000E+00 0. -1.
</event>
<event>
 7    1  0.2844047E-005  0.1629712E+03  0.7561462E-02  0.1185383E+00
         -1   -1    0    0    0  501 -0.00000000000E+00  0.00000000000E+00  0.28054926896E+02  0.28054926896E+02  0.00000000000E+00 0.  1.
          1   -1    0    0  501    0  0.00000000000E+00 -0.00000000000E+00 -0.10487757643E+04  0.10487757643E+04  0.00000000000E+00 0. -1.
         23    2    1    2    0    0 -0.10061542275E+03 -0.31557167799E+02 -0.64559138919E+03  0.66599921818E+03  0.12508956266E+03 0.  0.
          5    1    3    3  502    0 -0.13650762306E+01 -0.59536224451E+02 -0.26706889345E+03  0.27365981018E+03  0.41800000000E+01 0.  1.
         -5    1    3    3    0  502 -0.99250346523E+02  0.27979056652E+02 -0.37852249573E+03  0.39233940800E+03  0.41800000000E+01 0.  1.
        -11    1    1    2    0    0  0.87917325823E+02 -0.35483604251E+02 -0.16997792433E+03  0.19463051433E+03  0.00000000000E+00 0.  1.
         11    1    1    2    0    0  0.12698096930E+02  0.67040772050E+02 -0.20515152391E+03  0.21620095871E+03  0.00000000000E+00 0. -1.
</event>
<event>
 8    1  0.2184156E-005  0.1851488E+03  0.7561462E-02  0.1162911E+00
         -2   -1    0    0    0  501 -0.00000000000E+00  0.00000000000E+00  0.10289908686E+03  0.10289908686E+03  0.00000000000E+00 0. -1.
          2   -1    0    0  501    0  0.00000000000E+00 -0.00000000000E+00 -0.33894835951E+03  0.33894835951E+03  0.00000000000E+00 0.  1.
         23    2    1    2    0    0 -0.15117310469E+03  0.47462686075E+00 -0.12742054954E+03  0.21757331006E+03  0.90821891382E+02 0.  0.
         23    2    1    2    0    0  0.15117310469E+03 -0.47462686075E+00 -0.10862872311E+03  0.22427413630E+03  0.12508059752E+03 0.  0.
          5    1    4    4  502    0  0.79801528614E+02  0.60559938838E+02 -0.40301995261E+02  0.10806254385E+03  0.41800000000E+01 0. -1.
         -5    1    4    4    0  502  0.71371576077E+02 -0.61034565699E+02 -0.68326727853E+02  0.11621159245E+03  0.41800000000E+01 0. -1.
        -11    1    3    3    0    0 -0.10927018852E+03  0.41972933474E+02 -0.78376868739E+02  0.14087098636E+03  0.00000000000E+00 0.  1.
         11    1    3    3    0    0 -0.41902916168E+02 -0.41498306614E+02 -0.49043680802E+02  0.76702323705E+02  0.00000000000E+00 0. -1.
</event>
<event>
 8    1  0.2184156E-005  0.1095358E+03  0.7561462E-02  0.1261432E+00
          1   -1    0    0  501    0  0.00000000000E+00  0.00000000000E+00  0.60570138465E+03  0.60570138465E+03  0.00000000000E+00 0. -1.
         -1   -1    0    0    0  501 -0.00000000000E+00 -0.00000000000E+00 -0.22335075340E+02  0.22335075340E+02  0.00000000000E+00 0.  1.
         23    2    1    2    0    0 -0.31672904138E+02 -0.27916448185E+02  0.26196465552E+03  0.28057272977E+03  0.91176066017E+02 0.  0.
         23    2    1    2    0    0  0.31672904138E+02  0.27916448185E+02  0.32140165379E+03  0.34746373022E+03  0.12509804084E+03 0.  0.
          5    1    4    4  502    0  0.12976779241E+01  0.72067481841E+02  0.23370827989E+03  0.24460670145E+03  0.41800000000E+01 0. -1.
         -5    1    4    4    0  502  0.30375226214E+02 -0.44151033656E+02  0.87693373906E+02  0.10285702877E+03  0.41800000000E+01 0. -1.
        -11    1    3    3    0    0 -0.55139931430E+02  0.19017605554E+01  0.99876695966E+02  0.11410251149E+03  0.00000000000E+00 0.  1.
         11    1    3    3    0    0  0.23467027292E+02 -0.29818208740E+02  0.16208795956E+03  0.16647021828E+03  0.00000000000E+00 0. -1.
</event>
<event>
 8    1  0.2184156E-005  0.1815663E+03  0.7561462E-02  0.1166296E+00
          1   -1    0    0  501    0  0.00000000000E+00  0.00000000000E+00  0.59887902882E+03  0.59887902882E+03  0.00000000000E+00 0.  1.
         -1   -1    0    0    0  501 -0.00000000000E+00 -0.00000000000E+00 -0.57206893079E+02  0.57206893079E+02  0.00000000000E+00 0. -1.
         23    2    1    2    0    0 -0.26072100119E+02  0.14616597400E+03  0.25633635249E+03  0.31095387991E+03  0.94550216609E+02 0.  0.
         23    2    1    2    0    0  0.26072100119E+02 -0.14616597400E+03  0.28533578325E+03  0.34513204200E+03  0.12512142441E+03 0.  0.
          5    1    4    4  502    0 -0.81533636863E+01  0.21102385667E+02  0.27355368819E+02  0.35743203878E+02  0.41800000000E+01 0.  1.
         -5    1    4    4    0  502  0.34225463805E+02 -0.16726835967E+03  0.25798041443E+03  0.30938883812E+03  0.41800000000E+01 0.  1.
        -11    1    3    3    0    0  0.23039390733E+02  0.97562198871E+02  0.19174707810E+03  0.21637037258E+03  0.00000000000E+00 0.  1.
         11    1    3    3    0    0 -0.49111490852E+02  0.48603775131E+02  0.64589274392E+02  0.94583507321E+02  0.00000000000E+00 0. -1.
</event>
<event>
 8    1  0.2184156E-005  0.1187333E+03  0.7561462E-02  0.1245201E+00
         -1   -1    0    0    0  501 -0.00000000000E+00  0.00000000000E+00  0.41612080040E+02  0.41612080040E+02  0.00000000000E+00 0.  1.
          1   -1    0    0  501    0  0.00000000000E+00 -0.00000000000E+00 -0.63596281916E+03  0.63596281916E+03  0.00000000000E+00 0. -1.
         23    2    1    2    0    0  0.71128714676E+02 -0.25571379584E+02 -0.79263737166E+02  0.14215385525E+03  0.90618922016E+02 0.  0.
         23    2    1    2    0    0 -0.71128714676E+02  0.25571379584E+02 -0.51508700195E+03  0.53542104395E+03  0.12509150738E+03 0.  0.
          5    1    4    4  502    0 -0.82523958169E+02 -0.14183852568E+02 -0.18983806958E+03  0.20752674625E+03  0.41800000000E+01 0.  1.
         -5    1    4    4    0  502  0.11395243493E+02  0.39755232152E+02 -0.32524893237E+03  0.32789429770E+03  0.41800000000E+01 0.  1.
        -11    1    3    3    0    0  0.34940477483E+02 -0.55174576300E+02 -0.23554947425E+02  0.69425545621E+02  0.00000000000E+00 0.  1.
         11    1    3    3    0    0  0.36188237193E+02  0.29603196716E+02 -0.55708789740E+02  0.72728309627E+02  0.00000000000E+00 0. -1.
</event>
<event>
 8    1  0.2184156E-005  0.1067995E+03  0.7561462E-02  0.1266614E+00
         -2   -1    0    0    0  501 -0.00000000000E+00  0.00000000000E+00  0.78980431546E+02  0.78980431546E+02  0.00000000000E+00 0.  1.
          2   -1    0    0  501    0  0.00000000000E+00 -0.00000000000E+00 -0.19324998558E+03  0.19324998558E+03  0.00000000000E+00 0. -1.
         23    2    1    2    0    0  0.40801635154E+02 -0.25996102717E+02 -0.11622869529E+02  0.10333454622E+03  0.90566917568E+02 0.  0.
         23    2    1    2    0    0 -0.40801635154E+02  0.25996102717E+02 -0.10264668451E+03  0.16889587091E+03  0.12509557379E+03 0.  0.
          5    1    4    4  502    0  0.30007949229E+02  0.33698226326E+02 -0.83528524593E+02  0.95029123405E+02  0.41800000000E+01 0.  1.
         -5    1    4    4    0  502 -0.70809584384E+02 -0.77021236090E+01 -0.19118159914E+02  0.73866747506E+02  0.41800000000E+01 0.  1.
        -11    1    3    3    0    0  0.67000164494E+02 -0.15931875495E+02 -0.23628985219E+02  0.72809172784E+02  0.00000000000E+00 0. -1.
         11    1    3    3    0    0 -0.26198529340E+02 -0.10064227223E+02  0.12006115690E+02  0.30525373431E+02  0.00000000000E+00 0.  1.
</event>
<event>
 7    1  0.2184156E-005  0.1769416E+03  0.7561462E-02  0.1170796E+00
         -2   -1    0    0    0  501 -0.00000000000E+00  0.00000000000E+00  0.11399907246E+03  0.11399907246E+03  0.00000000000E+00 0.  1.
          2   -1    0    0  501    0  0.00000000000E+00 -0.00000000000E+00 -0.43662051902E+03  0.43662051902E+03  0.00000000000E+00 0. -1.
         23    2    1    2    0    0  0.24525836277E+02  0.37437674472E+02 -0.28917822471E+03  0.31803625592E+03  0.12457896419E+03 0.  0.
          5    1    3    3  502    0  0.68531381350E+02  0.44507698901E+02 -0.13865462556E+03  0.16099709028E+03  0.41800000000E+01 0. -1.
         -5    1    3    3    0  502 -0.44005545073E+02 -0.70700244286E+01 -0.15052359915E+03  0.15703916564E+03  0.41800000000E+01 0.  1.
        -11    1    1    2    0    0  0.80863875785E+02  0.45858704833E+02  0.42599225246E+01  0.93059841800E+02  0.00000000000E+00 0.  1.
         11    1    1    2    0    0 -0.10538971206E+03 -0.83296379306E+02 -0.37703144373E+02  0.13952349375E+03  0.00000000000E+00 0. -1.
</event>
<event>
 8    1  0.2184156E-005  0.1015674E+03  0.7561462E-02  0.1277034E+00
          1   -1    0    0  501    0  0.00000000000E+00  0.00000000000E+00  0.72590314258E+03  0.72590314258E+03  0.00000000000E+00 0. -1.
         -1   -1    0    0    0  501 -0.00000000000E+00 -0.00000000000E+00 -0.16222872456E+02  0.16222872456E+02  0.00000000000E+00 0.  1.
         23    2    1    2    0    0  0.21151544734E+02  0.16161572564E+01  0.26632018432E+03  0.28173269189E+03  0.89425216199E+02 0.  0.
         23    2    1    2    0    0 -0.21151544734E+02 -0.16161572564E+01  0.44336008579E+03  0.46039332314E+03  0.12224502651E+03 0.  0.
          5    1    4    4  502    0  0.35816768647E+02  0.32129576776E+02  0.27897615955E+03  0.28312598011E+03  0.41800000000E+01 0. -1.
         -5    1    4    4    0  502 -0.56968313381E+02 -0.33745734032E+02  0.16438392625E+03  0.17726734303E+03  0.41800000000E+01 0.  1.
        -11    1    3    3    0    0  0.47078671703E+02 -0.23304461468E+02  0.19368909011E+03  0.20068622992E+03  0.00000000000E+00 0.  1.
         11    1    3    3    0    0 -0.25927126969E+02  0.24920618724E+02  0.72631094219E+02  0.81046461971E+02  0.00000000000E+00 0. -1.
</event>
<event>
 8    1  0.2184156E-005  0.1317212E+03  0.7561462E-02  0.1224924E+00
         -2   -1    0    0    0  501 -0.00000000000E+00  0.00000000000E+00  0.31968264803E+02  0.31968264803E+02  0.00000000000E+00 0.  1.
          2   -1    0    0  501    0  0.00000000000E+00 -0.00000000000E+00 -0.13149550438E+04  0.13149550438E+04  0.00000000000E+00 0. -1.
         23    2    1    2    0    0 -0.49674727520E+02  0.10578858292E+03 -0.19797646623E+03  0.24848935356E+03  0.94305221590E+02 0.  0.
         23    2    1    2    0    0  0.49674727520E+02 -0.10578858292E+03 -0.10850103127E+04  0.10984339550E+04  0.12510384467E+03 0.  0.
          5    1    4    4  502    0  0.58188067299E+01 -0.96698459635E+02 -0.38652061938E+03  0.39849731770E+03  0.41800000000E+01 0. -1.
         -5    1    4    4    0  502  0.43855920790E+02 -0.90901232901E+01 -0.69848969334E+03  0.69993663730E+03  0.41800000000E+01 0. -1.
        -11    1    3    3    0    0  0.37113971997E+01  0.20818664451E+02  0.52929299239E+01  0.21799228561E+02  0.00000000000E+00 0.  1.
         11    1    3    3    0    0 -0.53386124720E+02  0.84969918474E+02 -0.20326939615E+03  0.22669012499E+03  0.00000000000E+00 0. -1.
</event>
<event>
 8    1  0.2184156E-005  0.1098736E+03  0.7561462E-02  0.1260804E+00
          2   -1    0    0  501    0  0.00000000000E+00  0.00000000000E+00  0.91194476829E+02  0.91194476829E+02  0.00000000000E+00 0. -1.
         -2   -1    0    0    0  501 -0.00000000000E+00 -0.00000000000E+00 -0.16986667392E+03  0.16986667392E+03  0.00000000000E+00 0.  1.
         23    2    1    2    0    0 -0.58880739377E+02 -0.11417514427E+02 -0.34566250485E+02  0.11549054815E+03  0.92444253121E+02 0.  0.
         23    2    1    2    0    0  0.58880739377E+02  0.11417514427E+02 -0.44105946606E+02  0.14557060259E+03  0.12509262452E+03 0.  0.
          5    1    4    4  502    0  0.51537054950E+02 -0.45264003712E+02 -0.54021695353E+02  0.87411177968E+02  0.41800000000E+01 0.  1.
         -5    1    4    4    0  502  0.73436844272E+01  0.56681518140E+02  0.99157487471E+01  0.58159424626E+02  0.41800000000E+01 0.  1.
        -11    1    3    3    0    0 -0.37331560823E+02  0.29429699149E+02 -0.47835906068E+02  0.67439057932E+02  0.00000000000E+00 0.  1.
         11    1    3    3    0    0 -0.21549178554E+02 -0.40847213576E+02  0.13269655583E+02  0.48051490222E+02  0.00000000000E+00 0. -1.
</event>
<event>
 8    1  0.2184156E-005  0.1383093E+03  0.7561462E-02  0.1215622E+00
          2   -1    0    0  501    0  0.00000000000E+00  0.00000000000E+00  0.33878307631E+03  0.33878307631E+03  0.00000000000E+00 0.  1.
         -2   -1    0    0    0  501 -0.00000000000E+00 -0.00000000000E+00 -0.81609579808E+02  0.81609579808E+02  0.00000000000E+00 0. -1.
         23    2    1    2    0    0 -0.13454292174E+02 -0.89422065941E+02  0.14016340014E+02  0.13238268048E+03  0.95662910520E+02 0.  0.
         23    2    1    2    0    0  0.13454292174E+02  0.89422065941E+02  0.24315715649E+03  0.28800997564E+03  0.12508804683E+03 0.  0.
          5    1    4    4  502    0 -0.21478389123E+02  0.10624468992E+03  0.13590149229E+03  0.17388485657E+03  0.41800000000E+01 0.  1.
         -5    1    4    4    0  502  0.34932681298E+02 -0.16822623983E+02  0.10725566419E+03  0.11412511907E+03  0.41800000000E+01 0.  1.
        -11    1    3    3    0    0 -0.23654966183E+02 -0.10658673498E+03  0.22429530675E+01  0.10920311505E+03  0.00000000000E+00 0.  1.
         11    1    3    3    0    0  0.10200674008E+02  0.17164669037E+02  0.11773386946E+02  0.23179565431E+02  0.00000000000E+00 0. -1.
</event>
<event>
 8    1  0.2184156E-005  0.1584615E+03  0.7561462E-02  0.1190445E+00
         -1   -1    0    0    0  501 -0.00000000000E+00  0.00000000000E+00  0.63741325281E+02  0.63741325281E+02  0.00000000000E+00 0.  1.
          1   -1    0    0  501    0  0.00000000000E+00 -0.00000000000E+00 -0.52590215045E+03  0.52590215045E+03  0.00000000000E+00 0. -1.
         23    2    1    2    0    0  0.98121602031E+02 -0.98232472442E+02 -0.14681327593E+03  0.22308011022E+03  0.94515237695E+02 0.  0.
         23    2    1    2    0    0 -0.98121602031E+02  0.98232472442E+02 -0.31534754923E+03  0.36656336551E+03  0.12508859541E+03 0.  0.
          5    1    4    4  502    0 -0.75255023397E+02  0.19271070242E+02 -0.59907815999E+02  0.98189161889E+02  0.41800000000E+01 0. -1.
         -5    1    4    4    0  502 -0.22866578634E+02  0.78961402199E+02 -0.25543973324E+03  0.26837420363E+03  0.41800000000E+01 0. -1.
        -11    1    3    3    0    0  0.52252085756E+02 -0.97869137163E+02 -0.13679255751E+03  0.17612737511E+03  0.00000000000E+00 0. -1.
         11    1    3    3    0    0  0.45869516276E+02 -0.36333527845E+00 -0.10020718426E+02  0.46952735103E+02  0.00000000000E+00 0.  1.
</event>
<event>
 8    1  0.2184156E-005  0.1291536E+03  0.7561462E-02  0.1228717E+00
         -1   -1    0    0    0  501 -0.00000000000E+00  0.00000000000E+00  0.21574852508E+02  0.21574852508E+02  0.00000000000E+00 0.  1.
          1   -1    0    0  501    0  0.00000000000E+00 -0.00000000000E+00 -0.14833663968E+04  0.14833663968E+04  0.00000000000E+00 0. -1.
         23    2    1    2    0    0  0.10549861558E+03  0.26563453531E+02 -0.31013638496E+03  0.34141318726E+03  0.92427334745E+02 0.  0.
         23    2    1    2    0    0 -0.10549861558E+03 -0.26563453531E+02 -0.11516551594E+04  0.11635280621E+04  0.12510943289E+03 0.  0.
          5    1    4    4  502    0 -0.21204573057E+02  0.11876934783E+02 -0.33840818685E+02  0.41873248115E+02  0.41800000000E+01 0. -1.
         -5    1    4    4    0  502 -0.84294042522E+02 -0.38440388314E+02 -0.11178143407E+04  0.11216548140E+04  0.41800000000E+01 0. -1.
        -11    1    3    3    0    0  0.12193845939E+03  0.23638626881E+02 -0.28834698208E+03  0.31396139036E+03  0.00000000000E+00 0. -1.
         11    1    3    3    0    0 -0.16439843813E+02  0.29248266494E+01 -0.21789402879E+02  0.27451796906E+02  0.00000000000E+00 0.  1.
</event>
<event>
 8    1  0.2184156E-005  0.1144969E+03  0.7561462E-02  0.1252462E+00
          1   -1    0    0  501    0  0.00000000000E+00  0.00000000000E+00  0.54355088947E+03  0.54355088947E+03  0.00000000000E+00 0. -1.
         -1   -1    0    0    0  501 -0.00000000000E+00 -0.00000000000E+00 -0.32107976703E+02  0.32107976703E+02  0.00000000000E+00 0.  1.
         23    2    1    2    0    0 -0.42014229935E+02  0.60349067318E+02  0.18949277904E+03  0.22252070490E+03  0.90557966854E+02 0.  0.
         23    2    1    2    0    0  0.42014229935E+02 -0.60349067318E+02  0.32195013373E+03  0.35313816126E+03  0.12508983529E+03 0.  0.
          5    1    4    4  502    0 -0.35345205243E+02  0.95694698614E+01  0.12403920185E+03  0.12939881871E+03  0.41800000000E+01 0.  1.
         -5    1    4    4    0  502  0.77359435178E+02 -0.69918537179E+02  0.19791093188E+03  0.22373934256E+03  0.41800000000E+01 0.  1.
        -11    1    3    3    0    0 -0.37317384926E+02  0.11993574253E+02  0.15971268303E+02  0.42326285595E+02  0.00000000000E+00 0.  1.
         11    1    3    3    0    0 -0.46968450087E+01  0.48355493064E+02  0.17352151073E+03  0.18019441931E+03  0.00000000000E+00 0. -1.
</event>
<event>
 8    1  0.2184156E-005  0.7768294E+02  0.7561462E-02  0.1335759E+00
         -2   -1    0    0    0  501 -0.00000000000E+00  0.00000000000E+00  0.33705788625E+02  0.33705788625E+02  0.00000000000E+00 0.  1.
          2   -1    0    0  501    0  0.00000000000E+00 -0.00000000000E+00 -0.45951351432E+03  0.45951351432E+03  0.00000000000E+00 0. -1.
         23    2    1    2    0    0 -0.58892801485E+02  0.19684478735E+02 -0.19578740530E+03  0.22412358196E+03  0.89681832857E+02 0.  0.
         23    2    1    2    0    0  0.58892801485E+02 -0.19684478735E+02 -0.23002032040E+03  0.26909572099E+03  0.12508924211E+03 0.  0.
          5    1    4    4  502    0  0.18223161700E+02  0.89093614310E+01 -0.21638668857E+03  0.21737555459E+03  0.41800000000E+01 0.  1.
         -5    1    4    4    0  502  0.40669639786E+02 -0.28593840166E+02 -0.13633631828E+02  0.51720166401E+02  0.41800000000E+01 0.  1.
        -11    1    3    3    0    0 -0.46338149258E+02  0.39778893583E+02 -0.57696564135E+02  0.84014748493E+02  0.00000000000E+00 0.  1.
         11    1    3    3    0    0 -0.12554652227E+02 -0.20094414848E+02 -0.13809084117E+03  0.14010883346E+03  0.00000000000E+00 0. -1.
</event>
<event>
 8    1  0.2184156E-005  0.8925949E+02  0.7561462E-02  0.1304655E+00
          1   -1    0    0  501    0  0.00000000000E+00  0.00000000000E+00  0.33083450370E+03  0.33083450370E+03  0.00000000000E+00 0. -1.
         -1   -1    0    0    0  501 -0.00000000000E+00 -0.00000000000E+00 -0.44721857187E+02  0.44721857187E+02  0.00000000000E+00 0.  1.
         23    2    1    2    0    0 -0.42410107511E+02 -0.37585684234E+02  0.93421731286E+02  0.14152589046E+03  0.89948079000E+02 0.  0.
         23    2    1    2    0    0  0.42410107511E+02  0.37585684234E+02  0.19269091523E+03  0.23403047043E+03  0.12012148600E+03 0.  0.
          5    1    4    4  502    0  0.36842727461E+02  0.47215807638E-01 -0.52085586041E+00  0.37082778846E+02  0.41800000000E+01 0.  1.
         -5    1    4    4    0  502  0.55673800500E+01  0.37538468426E+02  0.19321177109E+03  0.19694769158E+03  0.41800000000E+01 0. -1.
        -11    1    3    3    0    0  0.19451864492E+02  0.12961213026E+02  0.36845228918E+02  0.43634149119E+02  0.00000000000E+00 0. -1.
         11    1    3    3    0    0 -0.61861972003E+02 -0.50546897260E+02  0.56576502369E+02  0.97891741342E+02  0.00000000000E+00 0.  1.
</event>
<event>
 8    1  0.2184156E-005  0.1175989E+03  0.7561462E-02  0.1247112E+00
          2   -1    0    0  501    0  0.00000000000E+00  0.00000000000E+00  0.46435052808E+03  0.46435052808E+03  0.00000000000E+00 0. -1.
         -2   -1    0    0    0  501 -0.00000000000E+00 -0.00000000000E+00 -0.40407666260E+02  0.40407666260E+02  0.00000000000E+00 0.  1.
         23    2    1    2    0    0  0.75003694650E+02  0.30245768762E+02  0.18546901678E+03  0.22358386796E+03  0.95134794311E+02 0.  0.
         23    2    1    2    0    0 -0.75003694650E+02 -0.30245768762E+02  0.23847384504E+03  0.28117432638E+03  0.12509542880E+03 0.  0.
          5    1    4    4  502    0 -0.12052345303E+01  0.40113450171E+02  0.10958531275E+03  0.11677737214E+03  0.41800000000E+01 0. -1.
         -5    1    4    4    0  502 -0.73798460120E+02 -0.70359218933E+02  0.12888853229E+03  0.16439695423E+03  0.41800000000E+01 0. -1.
        -11    1    3    3    0    0  0.46651650746E+02 -0.57216296104E+01  0.16819076057E+03  0.17463460569E+03  0.00000000000E+00 0. -1.
         11    1    3    3    0    0  0.28352043904E+02  0.35967398372E+02  0.17278256204E+02  0.48949262269E+02  0.00000000000E+00 0.  1.
</event>
<event>
 8    1  0.2184156E-005  0.1434175E+03  0.7561462E-02  0.1208803E+00
          1   -1    0    0  501    0  0.00000000000E+00  0.00000000000E+00  0.70326956149E+03  0.70326956149E+03  0.00000000000E+00 0. -1.
         -1   -1    0    0    0  501 -0.00000000000E+00 -0.00000000000E+00 -0.52934573074E+02  0.52934573074E+02  0.00000000000E+00 0.  1.
         23    2    1    2    0    0 -0.34146054178E+02 -0.89079906418E+02  0.60599993174E+02  0.14584700387E+03  0.92183548544E+02 0.  0.
         23    2    1    2    0    0  0.34146054178E+02  0.89079906418E+02  0.58973499524E+03  0.61035713070E+03  0.12508908678E+03 0.  0.
          5    1    4    4  502    0 -0.31394803999E+02  0.83464697833E+02  0.38756162519E+03  0.39771029057E+03  0.41800000000E+01 0.  1.
         -5    1    4    4    0  502  0.65540858176E+02  0.56152085851E+01  0.20217337005E+03  0.21264684013E+03  0.41800000000E+01 0.  1.
        -11    1    3    3    0    0 -0.60547861318E+02 -0.31380813298E+02  0.40358672680E+02  0.79244062326E+02  0.00000000000E+00 0. -1.
         11    1    3    3    0    0  0.26401807140E+02 -0.57699093120E+02  0.20241320495E+02  0.66602941545E+02  0.00000000000E+00 0.  1.
</event>
<event>
 8    1  0.2184156E-005  0.1147414E+03  0.7561462E-02  0.1252033E+00
          2   -1    0    0  501    0  0.00000000000E+00  0.00000000000E+00  0.18620442436E+03  0.18620442436E+03  0.00000000000E+00 0. -1.
         -2   -1    0    0    0  501 -0.00000000000E+00 -0.00000000000E+00 -0.87509111667E+02  0.87509111667E+02  0.00000000000E+00 0.  1.
         23    2    1    2    0    0  0.45783628221E+02 -0.48120779070E+02  0.30508648503E+02  0.11659874125E+03  0.90844586167E+02 0.  0.
         23    2    1    2    0    0 -0.45783628221E+02  0.48120779070E+02  0.68186664195E+02  0.15711479478E+03  0.12499555022E+03 0.  0.
          5    1    4    4  502    0 -0.18077453366E+02 -0.29953054562E+02  0.65200168917E+02  0.74111498599E+02  0.41800000000E+01 0.  1.
         -5    1    4    4    0  502 -0.27706174855E+02  0.78073833633E+02  0.29864952773E+01  0.83003296183E+02  0.41800000000E+01 0.  1.
        -11    1    3    3    0    0  0.37625733950E+02 -0.74621680862E+02  0.30226474420E+02  0.88869178379E+02  0.00000000000E+00 0.  1.
         11    1    3    3    0    0  0.81578942711E+01  0.26500901791E+02  0.28217408237E+00  0.27729562869E+02  0.00000000000E+00 0. -1.
</event>
<event>
 8    1  0.2184156E-005  0.1187758E+03  0.7561462E-02  0.1245130E+00
         -1   -1    0    0    0  501 -0.00000000000E+00  0.00000000000E+00  0.84051908507E+03  0.84051908507E+03  0.00000000000E+00 0.  1.
          1   -1    0    0  501    0  0.00000000000E+00 -0.00000000000E+00 -0.18986270077E+02  0.18986270077E+02  0.00000000000E+00 0. -1.
         23    2    1    2    0    0  0.33128647940E+02  0.53227500676E+02  0.43466455863E+03  0.44811489235E+03  0.89123532691E+02 0.  0.
         23    2    1    2    0    0 -0.33128647940E+02 -0.53227500676E+02  0.38686825636E+03  0.41139046279E+03  0.12507753976E+03 0.  0.
          5    1    4    4  502    0 -0.13199972103E+02  0.37944173069E+02  0.67719586082E+02  0.78850581941E+02  0.41800000000E+01 0.  1.
         -5    1    4    4    0  502 -0.19928675837E+02 -0.91171673745E+02  0.31914867028E+03  0.33253988085E+03  0.41800000000E+01 0.  1.
        -11    1    3    3    0    0  0.61067343455E+02  0.35059635583E+02  0.35221171296E+03  0.35918169390E+03  0.00000000000E+00 0.  1.
         11    1    3    3    0    0 -0.27938695514E+02  0.18167865093E+02  0.82452845661E+02  0.88933198451E+02  0.00000000000E+00 0. -1.
</event>
<event>
 8    1  0.2184156E-005  0.9349115E+02  0.7561462E-02  0.1294611E+00
          1   -1    0    0  501    0  0.00000000000E+00  0.00000000000E+00  0.36407355096E+03  0.36407355096E+03  0.00000000000E+00 0.  1.
         -1   -1    0    0    0  501 -0.00000000000E+00 -0.00000000000E+00 -0.48127380689E+02  0.48127380689E+02  0.00000000000E+00 0. -1.
         23    2    1    2    0    0  0.25215797996E+02 -0.57266185560E+02  0.67495372621E+02  0.12708494823E+03  0.87633933286E+02 0.  0.
         23    2    1    2    0    0 -0.25215797996E+02  0.57266185560E+02  0.24845079765E+03  0.28511598342E+03  0.12509225665E+03 0.  0.
          5    1    4    4  502    0 -0.13585479758E+02  0.77045054998E+02  0.69736831188E+02  0.10488662348E+03  0.41800000000E+01 0. -1.
         -5    1    4    4    0  502 -0.11630318238E+02 -0.19778869438E+02  0.17871396646E+03  0.18022935995E+03  0.41800000000E+01 0. -1.
        -11    1    3    3    0    0 -0.17492575606E+02 -0.57853656726E+01  0.56333595053E+02  0.59270014247E+02  0.00000000000E+00 0.  1.
         11    1    3    3    0    0  0.42708373602E+02 -0.51480819887E+02  0.11161777568E+02  0.67814933978E+02  0.00000000000E+00 0. -1.
</event>
<event>
 8    1  0.2184156E-005  0.1407476E+03  0.7561462E-02  0.1212326E+00
         -1   -1    0    0    0  501 -0.00000000000E+00  0.00000000000E+00  0.27700166602E+03  0.27700166602E+03  0.00000000000E+00 0.  1.
          1   -1    0    0  501    0  0.00000000000E+00 -0.00000000000E+00 -0.84770862582E+02  0.84770862582E+02  0.00000000000E+00 0. -1.
         23    2    1    2    0    0 -0.60010447253E+02  0.91645872845E+02  0.10496505242E+03  0.17400033380E+03  0.85195270655E+02 0.  0.
         23    2    1    2    0    0  0.60010447253E+02 -0.91645872845E+02  0.87265751014E+02  0.18777219480E+03  0.12507144379E+03 0.  0.
          5    1    4    4  502    0 -0.28357879119E+02 -0.66004312736E+02  0.53505304302E+02  0.89671782610E+02  0.41800000000E+01 0.  1.
         -5    1    4    4    0  502  0.88368326372E+02 -0.25641560109E+02  0.33760446712E+02  0.98100412195E+02  0.41800000000E+01 0.  1.
        -11    1    3    3    0    0 -0.39130541569E+02  0.87896698972E+02  0.37473818777E+02  0.10325364917E+03  0.00000000000E+00 0. -1.
         11    1    3    3    0    0 -0.20879905683E+02  0.37491738730E+01  0.67491233647E+02  0.70746684624E+02  0.00000000000E+00 0.  1.
</event>
<event>
 8    1  0.2184156E-005  0.8903264E+02  0.7561462E-02  0.1305211E+00
         -3   -1    0    0    0  501 -0.00000000000E+00  0.00000000000E+00  0.52414926015E+03  0.52414926015E+03  0.00000000000E+00 0.  1.
          3   -1    0    0  501    0  0.00000000000E+00 -0.00000000000E+00 -0.20437049306E+02  0.20437049306E+02  0.00000000000E+00 0. -1.
         23    2    1    2    0    0  0.24932171478E+01 -0.28259966983E+02  0.22205613091E+03  0.24051562643E+03  0.87943160150E+02 0.  0.
         23    2    1    2    0    0 -0.24932171478E+01  0.28259966983E+02  0.28165607993E+03  0.30407068302E+03  0.11101347236E+03 0.  0.
          5    1    4    4  502    0  0.72735840886E+00  0.64317720125E+02  0.24100845785E+03  0.24947915209E+03  0.41800000000E+01 0. -1.
         -5    1    4    4    0  502 -0.32205755567E+01 -0.36057753143E+02  0.40647622083E+02  0.54591530933E+02  0.41800000000E+01 0.  1.
        -11    1    3    3    0    0 -0.34638468296E+02 -0.14840782872E+02  0.43078384252E+02  0.57234775372E+02  0.00000000000E+00 0. -1.
         11    1    3    3    0    0  0.37131685444E+02 -0.13419184111E+02  0.17897774666E+03  0.18328085106E+03  0.00000000000E+00 0.  1.
</event>
<event>
 8    1  0.2184156E-005  0.9995791E+02  0.7561462E-02  0.1280384E+00
          1   -1    0    0  501    0  0.00000000000E+00  0.00000000000E+00  0.68727979515E+03  0.68727979515E+03  0.00000000000E+00 0. -1.
         -1   -1    0    0    0  501 -0.00000000000E+00 -0.00000000000E+00 -0.23093638961E+02  0.23093638961E+02  0.00000000000E+00 0.  1.
         23    2    1    2    0    0 -0.47413820651E+02 -0.37104173932E+02  0.19431771109E+03  0.22042885046E+03  0.84880593550E+02 0.  0.
         23    2    1    2    0    0  0.47413820651E+02  0.37104173932E+02  0.46986844510E+03  0.48994458365E+03  0.12507817249E+03 0.  0.
          5    1    4    4  502    0  0.32619405647E+02 -0.19090353785E+02  0.38575860348E+03  0.38762822367E+03  0.41800000000E+01 0.  1.
         -5    1    4    4    0  502  0.14794415004E+02  0.56194527718E+02  0.84109841629E+02  0.10231635998E+03  0.41800000000E+01 0.  1.
        -11    1    3    3    0    0 -0.70910626344E+02 -0.17520885428E+02  0.12744983456E+03  0.14689710237E+03  0.00000000000E+00 0. -1.
         11    1    3    3    0    0  0.23496805692E+02 -0.19583288504E+02  0.66867876530E+02  0.73531748096E+02  0.00000000000E+00 0.  1.
</event>
<event>
 8    1  0.2184156E-005  0.8805972E+02  0.7561462E-02  0.1307620E+00
         -1   -1    0    0    0  501 -0.00000000000E+00  0.00000000000E+00  0.51670187463E+02  0.51670187463E+02  0.00000000000E+00 0.  1.
          1   -1    0    0  501    0  0.00000000000E+00 -0.00000000000E+00 -0.26810672995E+03  0.26810672995E+03  0.00000000000E+00 0. -1.
         23    2    1    2    0    0  0.19177459138E+02  0.41343246860E+02 -0.82659630978E+02  0.13100479022E+03  0.90843830104E+02 0.  0.
         23    2    1    2    0    0 -0.19177459138E+02 -0.41343246860E+02 -0.13377691151E+03  0.18877212719E+03  0.12514637410E+03 0.  0.
          5    1    4    4  502    0  0.33565392259E+02  0.58795521371E+01 -0.10798336455E+03  0.11330968234E+03  0.41800000000E+01 0.  1.
         -5    1    4    4    0  502 -0.52742851397E+02 -0.47222798997E+02 -0.25793546956E+02  0.75462444853E+02  0.41800000000E+01 0.  1.
        -11    1    3    3    0    0  0.36984678789E+02  0.37466158376E+02 -0.95266246693E+02  0.10884501480E+03  0.00000000000E+00 0. -1.
         11    1    3    3    0    0 -0.17807219652E+02  0.38770884846E+01  0.12606615715E+02  0.22159775419E+02  0.00000000000E+00 0.  1.
</event>
<event>
 8    1  0.2184156E-005  0.1076002E+03  0.7561462E-02  0.1265080E+00
         -3   -1    0    0    0  501 -0.00000000000E+00  0.00000000000E+00  0.12385999865E+03  0.12385999865E+03  0.00000000000E+00 0.  1.
          3   -1    0    0  501    0  0.00000000000E+00 -0.00000000000E+00 -0.18889356769E+03  0.18889356769E+03  0.00000000000E+00 0. -1.
         23    2    1    2    0    0  0.77322261293E+00 -0.71456670628E+02  0.52703938378E+02  0.12669895371E+03  0.90378460374E+02 0.  0.
         23    2    1    2    0    0 -0.77322261293E+00  0.71456670628E+02 -0.11773750742E+03  0.18605461263E+03  0.12509014581E+03 0.  0.
          5    1    4    4  502    0 -0.13080643069E+02  0.85423542235E+02 -0.23152469518E+02  0.89564468601E+02  0.41800000000E+01 0.  1.
         -5    1    4    4    0  502  0.12307420456E+02 -0.13966871606E+02 -0.94585037901E+02  0.96490144033E+02  0.41800000000E+01 0.  1.
        -11    1    3    3    0    0 -0.11028257243E+02  0.17052780096E+02 -0.43048205983E+01  0.20759365289E+02  0.00000000000E+00 0.  1.
         11    1    3    3    0    0  0.11801479856E+02 -0.88509450724E+02  0.57008758977E+02  0.10593958842E+03  0.00000000000E+00 0. -1.
</event>
<event>
 8    1  0.2184156E-005  0.1081125E+03  0.7561462E-02  0.1264106E+00
         -4   -1    0    0    0  501 -0.00000000000E+00  0.00000000000E+00  0.27208503840E+02  0.27208503840E+02  0.00000000000E+00 0.  1.
          4   -1    0    0  501    0  0.00000000000E+00 -0.00000000000E+00 -0.74131346627E+03  0.74131346627E+03  0.00000000000E+00 0. -1.
         23    2    1    2    0    0 -0.87713499580E+02 -0.91315326750E+01 -0.26630943984E+03  0.29529156901E+03  0.92191919816E+02 0.  0.
         23    2    1    2    0    0  0.87713499580E+02  0.91315326750E+01 -0.44779552259E+03  0.47323040111E+03  0.12509652106E+03 0.  0.
          5    1    4    4  502    0  0.24791621452E+02  0.16906265927E+01 -0.47306492359E+01  0.25638528715E+02  0.41800000000E+01 0.  1.
         -5    1    4    4    0  502  0.62921878128E+02  0.74409060823E+01 -0.44306487335E+03  0.44759187239E+03  0.41800000000E+01 0.  1.
        -11    1    3    3    0    0  0.15773297556E+01  0.29998633085E+02 -0.59266583849E+02  0.66444969089E+02  0.00000000000E+00 0. -1.
         11    1    3    3    0    0 -0.89290829335E+02 -0.39130165760E+02 -0.20704285599E+03  0.22884659992E+03  0.00000000000E+00 0.  1.
</event>
<event>
 7    1  0.2184156E-005  0.8763877E+02  0.7561462E-02  0.1308673E+00
          2   -1    0    0  501    0  0.00000000000E+00  0.00000000000E+00  0.12422613000E+04  0.12422613000E+04  0.00000000000E+00 0. -1.
         -2   -1    0    0    0  501 -0.00000000000E+00 -0.00000000000E+00 -0.24641650182E+02  0.24641650182E+02  0.00000000000E+00 0.  1.
         23    2    1    2    0    0 -0.54700462349E+01  0.24090843643E+02  0.92031152748E+02  0.13304451454E+03  0.92848368963E+02 0.  0.
          5    1    1    2  502    0  0.18734456933E+02  0.25992055949E+02  0.95454148413E+03  0.95508820754E+03  0.41800000000E+01 0. -1.
         -5    1    1    2    0  502 -0.13264410698E+02 -0.50082899592E+02  0.17104701297E+03  0.17877022814E+03  0.41800000000E+01 0.  1.
        -11    1    3    3    0    0 -0.94303561799E+01  0.57033595265E+02  0.36533482162E+02  0.68384632232E+02  0.00000000000E+00 0.  1.
         11    1    3    3    0    0  0.39603099450E+01 -0.32942751622E+02  0.55497670586E+02  0.64659882306E+02  0.00000000000E+00 0. -1.
</event>
<event>
 8    1  0.2184156E-005  0.7923635E+02  0.7561462E-02  0.1331233E+00
          2   -1    0    0  501    0  0.00000000000E+00  0.00000000000E+00  0.33703194006E+03  0.33703194006E+03  0.00000000000E+00 0. -1.
         -2   -1    0    0    0  501 -0.00000000000E+00 -0.00000000000E+00 -0.38198145390E+02  0.38198145390E+02  0.00000000000E+00 0.  1.
         23    2    1    2    0    0  0.17599794681E+02 -0.14769705222E+02  0.85427488288E+02  0.12679672869E+03  0.90838635430E+02 0.  0.
         23    2    1    2    0    0 -0.17599794681E+02  0.14769705222E+02  0.21340630639E+03  0.24843335676E+03  0.12509589994E+03 0.  0.
          5    1    4    4  502    0 -0.37240461439E+02  0.48356812145E+02  0.19650389618E+03  0.20580691646E+03  0.41800000000E+01 0. -1.
         -5    1    4    4    0  502  0.19640666758E+02 -0.33587106922E+02  0.16902410208E+02  0.42626440303E+02  0.41800000000E+01 0. -1.
        -11    1    3    3    0    0 -0.74588272410E+00  0.19381623106E+02  0.85863870802E+02  0.88027313740E+02  0.00000000000E+00 0. -1.
         11    1    3    3    0    0  0.18345677405E+02 -0.34151328329E+02 -0.43638251357E+00  0.38769414952E+02  0.00000000000E+00 0.  1.
</event>
<event>
 8    1  0.2184156E-005  0.1013968E+03  0.7561462E-02  0.1277386E+00
         -1   -1    0    0    0  501 -0.00000000000E+00  0.00000000000E+00  0.73634275296E+02  0.73634275296E+02  0.00000000000E+00 0.  1.
          1   -1    0    0  501    0  0.00000000000E+00 -0.00000000000E+00 -0.19502896441E+03  0.19502896441E+03  0.00000000000E+00 0. -1.
         23    2    1    2    0    0  0.39794865408E+02  0.22999531030E+02 -0.28321084154E+02  0.10610995476E+03  0.91348940611E+02 0.  0.
         23    2    1    2    0    0 -0.39794865408E+02 -0.22999531030E+02 -0.93073604960E+02  0.16255328495E+03  0.12509302445E+03 0.  0.
          5    1    4    4  502    0  0.28212022814E+02  0.19959764918E+02 -0.70938966722E+02  0.79019743397E+02  0.41800000000E+01 0.  1.
         -5    1    4    4    0  502 -0.68006888222E+02 -0.42959295948E+02 -0.22134638238E+02  0.83533541550E+02  0.41800000000E+01 0.  1.
        -11    1    3    3    0    0 -0.20994269318E+02  0.15687624959E+02 -0.35864349556E+02  0.44419730865E+02  0.00000000000E+00 0. -1.
         11    1    3    3    0    0  0.60789134725E+02  0.73119060706E+01  0.75432654025E+01  0.61690223893E+02  0.00000000000E+00 0.  1.
</event>
<event>
 8    1  0.2184156E-005  0.1393322E+03  0.7561462E-02  0.1214230E+00
          2   -1    0    0  501    0  0.00000000000E+00  0.00000000000E+00  0.11149486283E+04  0.11149486283E+04  0.00000000000E+00 0. -1.
         -2   -1    0    0    0  501 -0.00000000000E+00 -0.00000000000E+00 -0.27048480420E+02  0.27048480420E+02  0.00000000000E+00 0.  1.
         23    2    1    2    0    0  0.11159853747E+03 -0.12383499197E+02  0.26366354071E+03  0.30079458127E+03  0.91385626898E+02 0.  0.
         23    2    1    2    0    0 -0.11159853747E+03  0.12383499197E+02  0.82423660716E+03  0.84120252744E+03  0.12509245769E+03 0.  0.
          5    1    4    4  502    0 -0.12201753873E+03  0.10811157502E+02  0.43872127140E+03  0.45552056733E+03  0.41800000000E+01 0.  1.
         -5    1    4    4    0  502  0.10419001260E+02  0.15723416956E+01  0.38551533577E+03  0.38568196011E+03  0.41800000000E+01 0.  1.
        -11    1    3    3    0    0  0.36213544695E+02 -0.49019970406E+02  0.10924319986E+03  0.12509378495E+03  0.00000000000E+00 0. -1.
         11    1    3    3    0    0  0.75384992778E+02  0.36636471209E+02  0.15442034086E+03  0.17570079632E+03  0.00000000000E+00 0.  1.
</event>
<event>
 8    1  0.2184156E-005  0.1590394E+03  0.7561462E-02  0.1189786E+00
         -1   -1    0    0    0  501 -0.00000000000E+00  0.00000000000E+00  0.32830893508E+03  0.32830893508E+03  0.00000000000E+00 0.  1.
          1   -1    0    0  501    0  0.00000000000E+00 -0.00000000000E+00 -0.10154380548E+03  0.10154380548E+03  0.00000000000E+00 0. -1.
         23    2    1    2    0    0 -0.57991920238E+01 -0.14251825494E+03  0.13908985718E+03  0.22085425110E+03  0.95318037313E+02 0.  0.
         23    2    1    2    0    0  0.57991920238E+01  0.14251825494E+03  0.87675272421E+02  0.20899848947E+03  0.12509329153E+03 0.  0.
          5    1    4    4  502    0 -0.39499861719E+02  0.50440098217E+02  0.84660850062E+02  0.10625146831E+03  0.41800000000E+01 0.  1.
         -5    1    4    4    0  502  0.45299053742E+02  0.92078156725E+02  0.30144223584E+01  0.10274702116E+03  0.41800000000E+01 0.  1.
        -11    1    3    3    0    0 -0.17762797773E+02 -0.13673831956E+03  0.14993800389E+03  0.20370147282E+03  0.00000000000E+00 0.  1.
         11    1    3    3    0    0  0.11963605749E+02 -0.57799353830E+01 -0.10848146707E+02  0.17152778274E+02  0.00000000000E+00 0. -1.
</event>
<event>
 8    1  0.2184156E-005  0.1040381E+03  0.7561462E-02  0.1272026E+00
          1   -1    0    0  501    0  0.00000000000E+00  0.00000000000E+00  0.79231698638E+02  0.79231698638E+02  0.00000000000E+00 0. -1.
         -1   -1    0    0    0  501 -0.00000000000E+00 -0.00000000000E+00 -0.22264615035E+03  0.22264615035E+03  0.00000000000E+00 0.  1.
         23    2    1    2    0    0 -0.15032155322E+02 -0.64606371006E+02 -0.10737149555E+03  0.15576996721E+03  0.91300031551E+02 0.  0.
         23    2    1    2    0    0  0.15032155322E+02  0.64606371006E+02 -0.36042956163E+02  0.14610788178E+03  0.12509384301E+03 0.  0.
          5    1    4    4  502    0 -0.53833864523E+02  0.40429418000E+02 -0.26103521178E+02  0.72329033086E+02  0.41800000000E+01 0.  1.
         -5    1    4    4    0  502  0.68866019845E+02  0.24176953006E+02 -0.99394349856E+01  0.73778848689E+02  0.41800000000E+01 0.  1.
        -11    1    3    3    0    0 -0.14936878428E+02 -0.36892738395E+02 -0.11917609829E+03  0.12564683397E+03  0.00000000000E+00 0.  1.
         11    1    3    3    0    0 -0.95276894098E-01 -0.27713632611E+02  0.11804602744E+02  0.30123133239E+02  0.00000000000E+00 0. -1.
</event>
<event>
 7    1  0.2184156E-005  0.2021535E+03  0.7561462E-02  0.1147935E+00
          1   -1    0    0  501    0  0.00000000000E+00  0.00000000000E+00  0.79129841574E+03  0.79129841574E+03  0.00000000000E+00 0. -1.
         -1   -1    0    0    0  501 -0.00000000000E+00 -0.00000000000E+00 -0.16583082105E+03  0.16583082105E+03  0.00000000000E+00 0.  1.
         23    2    1    2    0    0 -0.16992659106E+03 -0.72092650692E+02 -0.73505936678E+02  0.21910578896E+03  0.92367891589E+02 0.  0.
          5    1    1    2  502    0  0.18753723564E+03  0.61057676994E+02  0.68448920856E+03  0.71234907433E+03  0.41800000000E+01 0. -1.
         -5    1    1    2    0  502 -0.17610644579E+02  0.11034973697E+02  0.14484322816E+02  0.25674373496E+02  0.41800000000E+01 0.  1.
        -11    1    3    3    0    0 -0.15518988139E+03 -0.72052951961E+02 -0.92942023763E+02  0.19471452682E+03  0.00000000000E+00 0.  1.
         11    1    3    3    0    0 -0.14736709669E+02 -0.39698730754E-01  0.19436087085E+02  0.24391262145E+02  0.00000000000E+00 0. -1.
</event>
<event>
 8    1  0.2184156E-005  0.8100746E+02  0.7561462E-02  0.1326216E+00
         -2   -1    0    0    0  501 -0.00000000000E+00  0.00000000000E+00  0.61951253015E+02  0.61951253015E+02  0.00000000000E+00 0.  1.
          2   -1    0    0  501    0  0.00000000000E+00 -0.00000000000E+00 -0.25559563160E+03  0.25559563160E+03  0.00000000000E+00 0. -1.
         23    2    1    2    0    0  0.25759338679E+02 -0.55692107340E+02 -0.10394922530E+03  0.15183975863E+03  0.92112520935E+02 0.  0.
         23    2    1    2    0    0 -0.25759338679E+02  0.55692107340E+02 -0.89695153282E+02  0.16570712598E+03  0.12509387166E+03 0.  0.
          5    1    4    4  502    0 -0.40395936092E+02  0.26503192351E+02 -0.11459341816E+03  0.12443220943E+03  0.41800000000E+01 0. -1.
         -5    1    4    4    0  502  0.14636597413E+02  0.29188914989E+02  0.24898264878E+02  0.41274916547E+02  0.41800000000E+01 0. -1.
        -11    1    3    3    0    0 -0.16090656922E+02 -0.11791420121E+02  0.10328596987E+02  0.22463898690E+02  0.00000000000E+00 0.  1.
         11    1    3    3    0    0  0.41849995602E+02 -0.43900687219E+02 -0.11427782228E+03  0.12937585994E+03  0.00000000000E+00 0. -1.
</event>
<event>
 7    1  0.2184156E-005  0.1532457E+03  0.7561462E-02  0.1196540E+00
          2   -1    0    0  501    0  0.00000000000E+00  0.00000000000E+00  0.45627231824E+03  0.45627231824E+03  0.00000000000E+00 0. -1.
         -2   -1    0    0    0  501 -0.00000000000E+00 -0.00000000000E+00 -0.26119578075E+03  0.26119578075E+03  0.00000000000E+00 0.  1.
         23    2    1    2    0    0 -0.10020104086E+03  0.50846418352E+02 -0.39669296038E+02  0.15114251285E+03  0.92977412819E+02 0.  0.
          5    1    1    2  502    0  0.82424848314E+02 -0.89657700696E+02  0.38825860776E+03  0.40693313678E+03  0.41800000000E+01 0. -1.
         -5    1    1    2    0  502  0.17776192542E+02  0.38811282343E+02 -0.15351277424E+03  0.15939244936E+03  0.41800000000E+01 0.  1.
        -11    1    3    3    0    0 -0.39131073376E+02  0.67868125759E+02 -0.41000549073E+01  0.78448287731E+02  0.00000000000E+00 0.  1.
         11    1    3    3    0    0 -0.61069967480E+02 -0.17021707407E+02 -0.35569241130E+02  0.72694225119E+02  0.00000000000E+00 0. -1.
</event>
<event>
 8    1  0.2184156E-005  0.1953164E+03  0.7561462E-02  0.1153752E+00
          2   -1    0    0  501    0  0.00000000000E+00  0.00000000000E+00  0.76032088336E+03  0.76032088336E+03  0.00000000000E+00 0. -1.
         -2   -1    0    0    0  501 -0.00000000000E+00 -0.00000000000E+00 -0.58430119693E+02  0.58430119693E+02  0.00000000000E+00 0.  1.
         23    2    1    2    0    0 -0.17307897160E+03  0.35352514916E+02  0.21499334053E+03  0.28590881626E+03  0.65693104810E+02 0.  0.
         23    2    1    2    0    0  0.17307897160E+03 -0.35352514916E+02  0.48689742314E+03  0.53284218680E+03  0.12508223156E+03 0.  0.
          5    1    4    4  502    0  0.16322369495E+03  0.13231537292E+02  0.33314350208E+03  0.37123996761E+03  0.41800000000E+01 0. -1.
         -5    1    4    4    0  502  0.98552766549E+01 -0.48584052208E+02  0.15375392106E+03  0.16160221919E+03  0.41800000000E+01 0. -1.
        -11    1    3    3    0    0 -0.50601575537E+02  0.16021630449E+02  0.11486320155E+03  0.12653366019E+03  0.00000000000E+00 0. -1.
         11    1    3    3    0    0 -0.12247739606E+03  0.19330884467E+02  0.10013013898E+03  0.15937515607E+03  0.00000000000E+00 0.  1.
</event>
<event>
 8    1  0.2209836E-005  0.1724885E+03  0.7561462E-02  0.1175277E+00
          3   -1    0    0  501    0  0.00000000000E+00  0.00000000000E+00  0.88501414826E+03  0.88501414826E+03  0.00000000000E+00 0. -1.
         -3   -1    0    0    0  501 -0.00000000000E+00 -0.00000000000E+00 -0.39039487977E+02  0.39039487977E+02  0.00000000000E+00 0.  1.
         23    2    1    2    0    0  0.14584163069E+03 -0.10846445947E+02  0.30722185119E+03  0.35196191150E+03  0.90024966899E+02 0.  0.
         23    2    1    2    0    0 -0.14584163069E+03  0.10846445947E+02  0.53875280909E+03  0.57209172474E+03  0.12508767156E+03 0.  0.
          5    1    4    4  502    0  0.95850899137E+01  0.32935688583E+02  0.11930085065E+03  0.12420466536E+03  0.41800000000E+01 0. -1.
         -5    1    4    4    0  502 -0.15542672060E+03 -0.22089242636E+02  0.41945195845E+03  0.44788705938E+03  0.41800000000E+01 0. -1.
        -11    1    3    3    0    0  0.91760029650E+02 -0.29154992668E+02  0.10784177102E+03  0.14456750746E+03  0.00000000000E+00 0.  1.
         11    1    3    3    0    0  0.54081601041E+02  0.18308546721E+02  0.19938008018E+03  0.20739440404E+03  0.00000000000E+00 0. -1.
</event>
<event>
 7    1  0.2184156E-005  0.1208249E+03  0.7561462E-02  0.1241742E+00
         -2   -1    0    0    0  501 -0.00000000000E+00  0.00000000000E+00  0.47322061599E+02  0.47322061599E+02  0.00000000000E+00 0.  1.
          2   -1    0    0  501    0  0.00000000000E+00 -0.00000000000E+00 -0.85512457884E+03  0.85512457884E+03  0.00000000000E+00 0. -1.
         23    2    1    2    0    0  0.41344714603E+02  0.71053549056E+02 -0.94179487363E+02  0.16414370382E+03  0.10637380977E+03 0.  0.
          5    1    1    2  502    0  0.37318208775E+01 -0.10174786474E+03 -0.63126972447E+03  0.63944154690E+03  0.41800000000E+01 0. -1.
         -5    1    1    2    0  502 -0.45076535481E+02  0.30694315684E+02 -0.82353305410E+02  0.98861389724E+02  0.41800000000E+01 0.  1.
        -11    1    3    3    0    0  0.26825691710E+02  0.24650701496E+02  0.18908586327E+02  0.41046430501E+02  0.00000000000E+00 0.  1.
         11    1    3    3    0    0  0.14519022894E+02  0.46402847559E+02 -0.11308807369E+03  0.12309727332E+03  0.00000000000E+00 0. -1.
</event>
<event>
 8    1  0.2184156E-005  0.9252140E+02  0.7561462E-02  0.1296858E+00
         -2   -1    0    0    0  501 -0.00000000000E+00  0.00000000000E+00  0.30319058566E+03  0.30319058566E+03  0.00000000000E+00 0.  1.
          2   -1    0    0  501    0  0.00000000000E+00 -0.00000000000E+00 -0.43852350563E+02  0.43852350563E+02  0.00000000000E+00 0. -1.
         23    2    1    2    0    0 -0.18720303998E+02 -0.35903437505E+02  0.11308911767E+03  0.15038005890E+03  0.90473791637E+02 0.  0.
         23    2    1    2    0    0  0.18720303998E+02  0.35903437505E+02  0.14624911743E+03  0.19666287733E+03  0.12509187169E+03 0.  0.
          5    1    4    4  502    0 -0.98248199061E+01 -0.32121533133E+02  0.10856257070E+03  0.11371729918E+03  0.41800000000E+01 0.  1.
         -5    1    4    4    0  502  0.28545123904E+02  0.68024970638E+02  0.37686546734E+02  0.82945578145E+02  0.41800000000E+01 0.  1.
        -11    1    3    3    0    0  0.22484760820E+02  0.25018118462E+00 -0.23282740727E+01  0.22606369012E+02  0.00000000000E+00 0. -1.
         11    1    3    3    0    0 -0.41205064818E+02 -0.36153618689E+02  0.11541739174E+03  0.12777368989E+03  0.00000000000E+00 0.  1.
</event>
<event>
 8    1  0.2184156E-005  0.1013757E+03  0.7561462E-02  0.1277429E+00
          1   -1    0    0  501    0  0.00000000000E+00  0.00000000000E+00  0.19485534371E+04  0.19485534371E+04  0.00000000000E+00 0. -1.
         -1   -1    0    0    0  501 -0.00000000000E+00 -0.00000000000E+00 -0.12017803863E+02  0.12017803863E+02  0.00000000000E+00 0.  1.
         23    2    1    2    0    0  0.23607562259E+02 -0.31692599135E+01  0.25736465072E+03  0.27657878436E+03  0.98447444422E+02 0.  0.
         23    2    1    2    0    0 -0.23607562259E+02  0.31692599135E+01  0.16791709825E+04  0.16839924566E+04  0.12509214271E+03 0.  0.
          5    1    4    4  502    0 -0.38998758624E+02 -0.53484677268E+02  0.10421145993E+04  0.10442230721E+04  0.41800000000E+01 0. -1.
         -5    1    4    4    0  502  0.15391196365E+02  0.56653937181E+02  0.63705638318E+03  0.63976938445E+03  0.41800000000E+01 0. -1.
        -11    1    3    3    0    0  0.20765526726E+02  0.34244726469E+02  0.42244673995E+02  0.58211003015E+02  0.00000000000E+00 0.  1.
         11    1    3    3    0    0  0.28420355327E+01 -0.37413986382E+02  0.21511997672E+03  0.21836778134E+03  0.00000000000E+00 0. -1.
</event>
<event>
 8    1  0.2184156E-005  0.1973454E+03  0.7561462E-02  0.1151998E+00
          3   -1    0    0  501    0  0.00000000000E+00  0.00000000000E+00  0.27868846080E+03  0.27868846080E+03  0.00000000000E+00 0. -1.
         -3   -1    0    0    0  501 -0.00000000000E+00 -0.00000000000E+00 -0.16504662537E+03  0.16504662537E+03  0.00000000000E+00 0.  1.
         23    2    1    2    0    0  0.12497472120E+03 -0.13303569249E+03  0.21694100894E+02  0.20411394685E+03  0.88739466256E+02 0.  0.
         23    2    1    2    0    0 -0.12497472120E+03  0.13303569249E+03  0.91947734538E+02  0.23962113932E+03  0.12508688223E+03 0.  0.
          5    1    4    4  502    0 -0.80384688075E+02  0.24287757068E+02  0.88342747000E+02  0.12195698655E+03  0.41800000000E+01 0.  1.
         -5    1    4    4    0  502 -0.44590033125E+02  0.10874793542E+03  0.36049875380E+01  0.11766415277E+03  0.41800000000E+01 0.  1.
        -11    1    3    3    0    0  0.90302381814E+02 -0.50459667348E+02 -0.19942059167E+02  0.10534886764E+03  0.00000000000E+00 0.  1.
         11    1    3    3    0    0  0.34672339386E+02 -0.82576025139E+02  0.41636160061E+02  0.98765079208E+02  0.00000000000E+00 0. -1.
</event>
<event>
 8    1  0.2184156E-005  0.1542500E+03  0.7561462E-02  0.1195346E+00
         -1   -1    0    0    0  501 -0.00000000000E+00  0.00000000000E+00  0.10538311913E+03  0.10538311913E+03  0.00000000000E+00 0.  1.
          1   -1    0    0  501    0  0.00000000000E+00 -0.00000000000E+00 -0.25878372538E+03  0.25878372538E+03  0.00000000000E+00 0. -1.
         23    2    1    2    0    0 -0.97689378027E+02 -0.67354658569E+02 -0.31143887603E+02  0.15279106487E+03  0.91078554873E+02 0.  0.
         23    2    1    2    0    0  0.97689378027E+02  0.67354658569E+02 -0.12225671865E+03  0.21137577964E+03  0.12511255075E+03 0.  0.
          5    1    4    4  502    0  0.11982996742E+03  0.40119586048E+02 -0.12247261117E+03  0.17602788178E+03  0.41800000000E+01 0.  1.
         -5    1    4    4    0  502 -0.22140589390E+02  0.27235072521E+02  0.21589252860E+00  0.35347897863E+02  0.41800000000E+01 0.  1.
        -11    1    3    3    0    0 -0.93912792939E+02 -0.86212198344E+02 -0.16351629373E+02  0.12852832997E+03  0.00000000000E+00 0.  1.
         11    1    3    3    0    0 -0.37765850882E+01  0.18857539775E+02 -0.14792258230E+02  0.24262734900E+02  0.00000000000E+00 0. -1.
</event>
<event>
 8    1  0.2184156E-005  0.6900246E+02  0.7561462E-02  0.1363518E+00
         -2   -1    0    0    0  501 -0.00000000000E+00  0.00000000000E+00  0.14521936316E+02  0.14521936316E+02  0.00000000000E+00 0.  1.
          2   -1    0    0  501    0  0.00000000000E+00 -0.00000000000E+00 -0.99992410565E+03  0.99992410565E+03  0.00000000000E+00 0. -1.
         23    2    1    2    0    0  0.45166675480E+02  0.13503220789E+02 -0.32374846184E+03  0.33942256789E+03  0.90400483979E+02 0.  0.
         23    2    1    2    0    0 -0.45166675480E+02 -0.13503220789E+02 -0.66165370750E+03  0.67502347408E+03  0.12509474956E+03 0.  0.
          5    1    4    4  502    0 -0.11349559149E+02 -0.25980844753E+01 -0.61996202248E+03  0.62008543303E+03  0.41800000000E+01 0.  1.
         -5    1    4    4    0  502 -0.33817116330E+02 -0.10905136314E+02 -0.41691685015E+02  0.54938041049E+02  0.41800000000E+01 0.  1.
        -11    1    3    3    0    0  0.65413294934E+02  0.20315295617E+02 -0.29892923187E+03  0.30667620719E+03  0.00000000000E+00 0. -1.
         11    1    3    3    0    0 -0.20246619454E+02 -0.68120748274E+01 -0.24819229969E+02  0.32746360699E+02  0.00000000000E+00 0.  1.
</event>
<event>
 8    1  0.2184156E-005  0.1110015E+03  0.7561462E-02  0.1258726E+00
          2   -1    0    0  501    0  0.00000000000E+00  0.00000000000E+00  0.12815468112E+03  0.12815468112E+03  0.00000000000E+00 0. -1.
         -2   -1    0    0    0  501 -0.00000000000E+00 -0.00000000000E+00 -0.23014972973E+03  0.23014972973E+03  0.00000000000E+00 0.  1.
         23    2    1    2    0    0 -0.59305211621E+02  0.73684869926E+02 -0.14483018895E+03  0.19573822073E+03  0.91602943408E+02 0.  0.
         23    2    1    2    0    0  0.59305211621E+02 -0.73684869926E+02  0.42835140338E+02  0.16256619012E+03  0.12508536582E+03 0.  0.
          5    1    4    4  502    0  0.33713118700E+02  0.51322204912E+01  0.67724151878E+02  0.75940418798E+02  0.41800000000E+01 0.  1.
         -5    1    4    4    0  502  0.25592092920E+02 -0.78817090417E+02 -0.24889011540E+02  0.86625771323E+02  0.41800000000E+01 0.  1.
        -11    1    3    3    0    0 -0.34244666505E+02  0.71791936175E+02 -0.15027110279E+03  0.17002406776E+03  0.00000000000E+00 0.  1.
         11    1    3    3    0    0 -0.25060545116E+02  0.18929337513E+01  0.54409138357E+01  0.25714152972E+02  0.00000000000E+00 0. -1.
</event>
<event>
 8    1  0.2184156E-005  0.1204264E+03  0.7561462E-02  0.1242395E+00
         -1   -1    0    0    0  501 -0.00000000000E+00  0.00000000000E+00  0.52328210948E+02  0.52328210948E+02  0.00000000000E+00 0.  1.
          1   -1    0    0  501    0  0.00000000000E+00 -0.00000000000E+00 -0.44302558413E+03  0.44302558413E+03  0.00000000000E+00 0. -1.
         23    2    1    2    0    0 -0.70481049269E+02 -0.72250800897E+02 -0.11949596294E+03  0.18009970313E+03  0.89268479173E+02 0.  0.
         23    2    1    2    0    0  0.70481049269E+02  0.72250800897E+02 -0.27120141024E+03  0.31525409194E+03  0.12508869267E+03 0.  0.
          5    1    4    4  502    0  0.92680990394E+02  0.71813430244E+02 -0.14249028353E+03  0.18457488466E+03  0.41800000000E+01 0.  1.
         -5    1    4    4    0  502 -0.22199941125E+02  0.43737065281E+00 -0.12871112671E+03  0.13067920729E+03  0.41800000000E+01 0.  1.
        -11    1    3    3    0    0 -0.15025806582E+02 -0.15807236457E+02  0.13279621074E+02  0.25534132523E+02  0.00000000000E+00 0.  1.
         11    1    3    3    0    0 -0.55455242687E+02 -0.56443564440E+02 -0.13277558401E+03  0.15456557061E+03  0.00000000000E+00 0. -1.
</event>
<event>
 8    1  0.3179435E-005  0.1192622E+03  0.7561462E-02  0.1244319E+00
          1   -1    0    0  501    0  0.00000000000E+00  0.00000000000E+00  0.98137434905E+02  0.98137434905E+02  0.00000000000E+00 0. -1.
         -1   -1    0    0    0  501 -0.00000000000E+00 -0.00000000000E+00 -0.25255666092E+03  0.25255666092E+03  0.00000000000E+00 0.  1.
         23    2    1    2    0    0  0.11199152766E+03  0.16473124355E+02 -0.74715596632E+02  0.16411035852E+03  0.92392225321E+02 0.  0.
         23    2    1    2    0    0 -0.11199152766E+03 -0.16473124355E+02 -0.79703629385E+02  0.18658373731E+03  0.12508939362E+03 0.  0.
          5    1    4    4  502    0 -0.44867880460E+02 -0.50592383663E+01 -0.10456924966E+03  0.11397773013E+03  0.41800000000E+01 0.  1.
         -5    1    4    4    0  502 -0.67123647199E+02 -0.11413885989E+02  0.24865620279E+02  0.72606007180E+02  0.41800000000E+01 0.  1.
        -11    1    3    3    0    0  0.17550212459E+00 -0.10044807325E+02 -0.44036904801E+02  0.45168328944E+02  0.00000000000E+00 0.  1.
         11    1    3    3    0    0  0.11181602553E+03  0.26517931680E+02 -0.30678691831E+02  0.11894202958E+03  0.00000000000E+00 0. -1.
</event>
<event>
 8    1  0.2184156E-005  0.8790553E+02  0.7561462E-02  0.1308005E+00
         -1   -1    0    0    0  501 -0.00000000000E+00  0.00000000000E+00  0.14431823037E+03  0.14431823037E+03  0.00000000000E+00 0.  1.
          1   -1    0    0  501    0  0.00000000000E+00 -0.00000000000E+00 -0.96322412270E+02  0.96322412270E+02  0.00000000000E+00 0. -1.
         23    2    1    2    0    0 -0.42958600286E+02 -0.79027000343E+01  0.39940282615E+02  0.10789984422E+03  0.90217826398E+02 0.  0.
         23    2    1    2    0    0  0.42958600286E+02  0.79027000343E+01  0.80555354846E+01  0.13274079842E+03  0.12508930373E+03 0.  0.
          5    1    4    4  502    0  0.22609683211E+02  0.56152878013E+02 -0.30178045529E+02  0.67768210217E+02  0.41800000000E+01 0. -1.
         -5    1    4    4    0  502  0.20348917076E+02 -0.48250177979E+02  0.38233581014E+02  0.64972588207E+02  0.41800000000E+01 0. -1.
        -11    1    3    3    0    0 -0.45433154396E+02 -0.20441723915E+02  0.63731236990E+02  0.80893177483E+02  0.00000000000E+00 0.  1.
         11    1    3    3    0    0  0.24745541098E+01  0.12539023881E+02 -0.23790954375E+02  0.27006666732E+02  0.00000000000E+00 0. -1.
</event>
<event>
 8    1  0.2184156E-005  0.1141371E+03  0.7561462E-02  0.1253095E+00
         -1   -1    0    0    0  501 -0.00000000000E+00  0.00000000000E+00  0.43453171536E+02  0.43453171536E+02  0.00000000000E+00 0.  1.
          1   -1    0    0  501    0  0.00000000000E+00 -0.00000000000E+00 -0.41122172598E+03  0.41122172598E+03  0.00000000000E+00 0. -1.
         23    2    1    2    0    0 -0.21494999596E+02  0.74377461557E+02 -0.16270302339E+03  0.20229811981E+03  0.91968547157E+02 0.  0.
         23    2    1    2    0    0  0.21494999596E+02 -0.74377461557E+02 -0.20506553106E+03  0.25237677771E+03  0.12509246220E+03 0.  0.
          5    1    4    4  502    0  0.31568845513E+02  0.39515898284E+01 -0.15609235464E+03  0.15935652684E+03  0.41800000000E+01 0.  1.
         -5    1    4    4    0  502 -0.10073845917E+02 -0.78329051386E+02 -0.48973176424E+02  0.93020250868E+02  0.41800000000E+01 0.  1.
        -11    1    3    3    0    0 -0.21419167522E+02  0.94541129102E+02 -0.14956582060E+03  0.17823226565E+03  0.00000000000E+00 0. -1.
         11    1    3    3    0    0 -0.75832073213E-01 -0.20163667545E+02 -0.13137202788E+02  0.24065854160E+02  0.00000000000E+00 0.  1.
</event>
<event>
 8    1  0.2184156E-005  0.1007432E+03  0.7561462E-02  0.1278741E+00
          2   -1    0    0  501    0  0.00000000000E+00  0.00000000000E+00  0.13155414835E+03  0.13155414835E+03  0.00000000000E+00 0. -1.
         -2   -1    0    0    0  501 -0.00000000000E+00 -0.00000000000E+00 -0.13636729776E+03  0.13636729776E+03  0.00000000000E+00 0.  1.
         23    2    1    2    0    0  0.69737432222E+02 -0.25764765186E+02 -0.26205103278E+02  0.12084049525E+03  0.91589220303E+02 0.  0.
         23    2    1    2    0    0 -0.69737432222E+02  0.25764765186E+02  0.21391953872E+02  0.14708095087E+03  0.12509219736E+03 0.  0.
          5    1    4    4  502    0 -0.45883134889E+02  0.53063915986E+02 -0.36084896188E+02  0.78997679585E+02  0.41800000000E+01 0. -1.
         -5    1    4    4    0  502 -0.23854297333E+02 -0.27299150800E+02  0.57476850060E+02  0.68083271282E+02  0.41800000000E+01 0. -1.
        -11    1    3    3    0    0  0.19321958669E+02  0.19145583344E+02 -0.43352342287E+02  0.51179263674E+02  0.00000000000E+00 0.  1.
         11    1    3    3    0    0  0.50415473553E+02 -0.44910348530E+02  0.17147239009E+02  0.69661231573E+02  0.00000000000E+00 0. -1.
</event>
<event>
 8    1  0.2184156E-005  0.9200342E+02  0.7561462E-02  0.1298071E+00
         -1   -1    0    0    0  501 -0.00000000000E+00  0.00000000000E+00  0.52289484624E+02  0.52289484624E+02  0.00000000000E+00 0.  1.
          1   -1    0    0  501    0  0.00000000000E+00 -0.00000000000E+00 -0.32244176971E+03  0.32244176971E+03  0.00000000000E+00 0. -1.
         23    2    1    2    0    0 -0.45493691148E+01 -0.47147800210E+02 -0.43544466626E+02  0.11159213425E+03  0.91176049642E+02 0.  0.
         23    2    1    2    0    0  0.45493691148E+01  0.47147800210E+02 -0.22660781846E+03  0.26313912009E+03  0.12508989291E+03 0.  0.
          5    1    4    4  502    0 -0.60105092067E+01 -0.42429066606E+02 -0.83013263058E+02  0.93514844584E+02  0.41800000000E+01 0.  1.
         -5    1    4    4    0  502  0.10559878321E+02  0.89576866816E+02 -0.14359455540E+03  0.16962427550E+03  0.41800000000E+01 0.  1.
        -11    1    3    3    0    0 -0.10669040364E+02 -0.18440292869E+02  0.27462686611E+02  0.34757329864E+02  0.00000000000E+00 0.  1.
         11    1    3    3    0    0  0.61196712492E+01 -0.28707507341E+02 -0.71007153237E+02  0.76834804384E+02  0.00000000000E+00 0. -1.
</event>
<event>
 8    1  0.2184156E-005  0.1008772E+03  0.7561462E-02  0.1278462E+00
          1   -1    0    0  501    0  0.00000000000E+00  0.00000000000E+00  0.64914563315E+02  0.64914563315E+02  0.00000000000E+00 0. -1.
         -1   -1    0    0    0  501 -0.00000000000E+00 -0.00000000000E+00 -0.26360865965E+03  0.26360865965E+03  0.00000000000E+00 0.  1.
         23    2    1    2    0    0  0.46073602667E+02  0.53634886476E+02 -0.11024205443E+03  0.15979003745E+03  0.91542709116E+02 0.  0.
         23    2    1    2    0    0 -0.46073602667E+02 -0.53634886476E+02 -0.88452041905E+02  0.16873318552E+03  0.12509055228E+03 0.  0.
          5    1    4    4  502    0 -0.87224591138E+00 -0.50073468599E+02  0.17657110333E+02  0.53266866022E+02  0.41800000000E+01 0.  1.
         -5    1    4    4    0  502 -0.45201356756E+02 -0.35614178768E+01 -0.10610915224E+03  0.11546631950E+03  0.41800000000E+01 0.  1.
        -11    1    3    3    0    0  0.68009066065E+02  0.48227440153E+02 -0.10890995006E+03  0.13715865366E+03  0.00000000000E+00 0.  1.
         11    1    3    3    0    0 -0.21935463398E+02  0.54074463229E+01 -0.13321043709E+01  0.22631383791E+02  0.00000000000E+00 0. -1.
</event>
<event>
 8    1  0.2184156E-005  0.6006355E+02  0.7561462E-02  0.1397565E+00
          1   -1    0    0  501    0  0.00000000000E+00  0.00000000000E+00  0.47573707990E+03  0.47573707990E+03  0.00000000000E+00 0. -1.
         -1   -1    0    0    0  501 -0.00000000000E+00 -0.00000000000E+00 -0.34822926413E+02  0.34822926413E+02  0.00000000000E+00 0.  1.
         23    2    1    2    0    0 -0.63903043286E+01  0.14626023947E+02  0.63448798712E+02  0.11259024607E+03  0.91629999924E+02 0.  0.
         23    2    1    2    0    0  0.63903043286E+01 -0.14626023947E+02  0.37746535477E+03  0.39796976024E+03  0.12508029200E+03 0.  0.
          5    1    4    4  502    0 -0.11449084889E+02  0.19145061981E+02  0.35001443959E+03  0.35074947649E+03  0.41800000000E+01 0. -1.
         -5    1    4    4    0  502  0.17839389218E+02 -0.33771085928E+02  0.27450915186E+02  0.47220283746E+02  0.41800000000E+01 0. -1.
        -11    1    3    3    0    0  0.14594757619E+02  0.29754010505E+02 -0.10082919565E+02  0.34640631606E+02  0.00000000000E+00 0.  1.
         11    1    3    3    0    0 -0.20985061948E+02 -0.15127986558E+02  0.73531718277E+02  0.77949614464E+02  0.00000000000E+00 0. -1.
</event>
<event>
 8    1  0.2184156E-005  0.1064445E+03  0.7561462E-02  0.1267299E+00
         -1   -1    0    0    0  501 -0.00000000000E+00  0.00000000000E+00  0.31425613008E+02  0.31425613008E+02  0.00000000000E+00 0.  1.
          1   -1    0    0  501    0  0.00000000000E+00 -0.00000000000E+00 -0.45967875107E+03  0.45967875107E+03  0.00000000000E+00 0. -1.
         23    2    1    2    0    0  0.26793451967E+02 -0.16277875465E+02 -0.18577853275E+03  0.21646969272E+03  0.10659552682E+03 0.  0.
         23    2    1    2    0    0 -0.26793451967E+02  0.16277875465E+02 -0.24247460531E+03  0.27463467135E+03  0.12508960865E+03 0.  0.
          5    1    4    4  502    0 -0.53448939243E+02 -0.19562113503E+02 -0.21404876668E+03  0.22152609848E+03  0.41800000000E+01 0.  1.
         -5    1    4    4    0  502  0.26655487276E+02  0.35839988969E+02 -0.28425838634E+02  0.53108572879E+02  0.41800000000E+01 0.  1.
        -11    1    3    3    0    0  0.66691031243E+02 -0.22904220673E+02 -0.12343404147E+03  0.14215575812E+03  0.00000000000E+00 0.  1.
         11    1    3    3    0    0 -0.39897579276E+02  0.66263452078E+01 -0.62344491280E+02  0.74313934601E+02  0.00000000000E+00 0. -1.
</event>
<event>
 8    1  0.2184156E-005  0.1134857E+03  0.7561462E-02  0.1254248E+00
         -1   -1    0    0    0  501 -0.00000000000E+00  0.00000000000E+00  0.11809170252E+03  0.11809170252E+03  0.00000000000E+00 0.  1.
          1   -1    0    0  501    0  0.00000000000E+00 -0.00000000000E+00 -0.13955631358E+03  0.13955631358E+03  0.00000000000E+00 0. -1.
         23    2    1    2    0    0  0.21057085132E+01 -0.20413632696E+02  0.49787631601E+02  0.11223325891E+03  0.98470024558E+02 0.  0.
         23    2    1    2    0    0 -0.21057085132E+01  0.20413632696E+02 -0.71252242660E+02  0.14541475720E+03  0.12508964433E+03 0.  0.
          5    1    4    4  502    0 -0.61131948790E+02  0.27504216482E+02 -0.37764203308E+02  0.77053257807E+02  0.41800000000E+01 0. -1.
         -5    1    4    4    0  502  0.59026240277E+02 -0.70905837853E+01 -0.33488039351E+02  0.68361499393E+02  0.41800000000E+01 0. -1.
        -11    1    3    3    0    0  0.93388109685E+01  0.39129632517E+02  0.15269354930E+02  0.43028998724E+02  0.00000000000E+00 0. -1.
         11    1    3    3    0    0 -0.72331024553E+01 -0.59543265213E+02  0.34518276671E+02  0.69204260184E+02  0.00000000000E+00 0.  1.
</event>
<event>
 8    1  0.2184156E-005  0.1278261E+03  0.7561462E-02  0.1230717E+00
         -2   -1    0    0    0  501 -0.00000000000E+00  0.00000000000E+00  0.19549989698E+02  0.19549989698E+02  0.00000000000E+00 0.  1.
          2   -1    0    0  501    0  0.00000000000E+00 -0.00000000000E+00 -0.12329207145E+04  0.12329207145E+04  0.00000000000E+00 0. -1.
         23    2    1    2    0    0  0.91316710034E+02 -0.10124872885E+02 -0.31021694828E+03  0.33607799421E+03  0.90953881783E+02 0.  0.
         23    2    1    2    0    0 -0.91316710034E+02  0.10124872885E+02 -0.90315377648E+03  0.91639270994E+03  0.12509036848E+03 0.  0.
          5    1    4    4  502    0  0.17384169199E+02  0.25533875185E+02 -0.40835553007E+03  0.40954352572E+03  0.41800000000E+01 0. -1.
         -5    1    4    4    0  502 -0.10870087923E+03 -0.15409002300E+02 -0.49479824641E+03  0.50684918422E+03  0.41800000000E+01 0. -1.
        -11    1    3    3    0    0  0.61048734074E+02  0.26966746923E+02 -0.98262629787E+02  0.11878424889E+03  0.00000000000E+00 0.  1.
         11    1    3    3    0    0  0.30267975960E+02 -0.37091619808E+02 -0.21195431849E+03  0.21729374532E+03  0.00000000000E+00 0. -1.
</event>
<event>
 8    1  0.2184156E-005  0.1007716E+03  0.7561462E-02  0.1278682E+00
          1   -1    0    0  501    0  0.00000000000E+00  0.00000000000E+00  0.46214082629E+02  0.46214082629E+02  0.00000000000E+00 0. -1.
         -1   -1    0    0    0  501 -0.00000000000E+00 -0.00000000000E+00 -0.26752689182E+03  0.26752689182E+03  0.00000000000E+00 0.  1.
         23    2    1    2    0    0 -0.66175653450E+00 -0.16869275023E+02 -0.10158186135E+03  0.13974660335E+03  0.94473426064E+02 0.  0.
         23    2    1    2    0    0  0.66175653450E+00  0.16869275023E+02 -0.11973094785E+03  0.17399437110E+03  0.12511407171E+03 0.  0.
          5    1    4    4  502    0 -0.55680197649E+01  0.62252480157E+02 -0.11058621880E+03  0.12709507590E+03  0.41800000000E+01 0.  1.
         -5    1    4    4    0  502  0.62297762994E+01 -0.45383205134E+02 -0.91447290516E+01  0.46899295202E+02  0.41800000000E+01 0.  1.
        -11    1    3    3    0    0 -0.45894489405E+02 -0.11802428146E+02 -0.69268920123E+02  0.83927258759E+02  0.00000000000E+00 0.  1.
         11    1    3    3    0    0  0.45232732871E+02 -0.50668468765E+01 -0.32312941223E+02  0.55819344592E+02  0.00000000000E+00 0. -1.
</event>
<event>
 8    1  0.2184156E-005  0.1097894E+03  0.7561462E-02  0.1260960E+00
          3   -1    0    0  501    0  0.00000000000E+00  0.00000000000E+00  0.13202103798E+03  0.13202103798E+03  0.00000000000E+00 0. -1.
         -3   -1    0    0    0  501 -0.00000000000E+00 -0.00000000000E+00 -0.14096609337E+03  0.14096609337E+03  0.00000000000E+00 0.  1.
         23    2    1    2    0    0  0.69312578489E+02 -0.38023474123E+02 -0.26962657184E+02  0.12390791457E+03  0.91521408915E+02 0.  0.
         23    2    1    2    0    0 -0.69312578489E+02  0.38023474123E+02  0.18017601799E+02  0.14907921678E+03  0.12509980328E+03 0.  0.
          5    1    4    4  502    0 -0.84562541743E+02 -0.14295236642E+02  0.33664342396E+02  0.92227640139E+02  0.41800000000E+01 0.  1.
         -5    1    4    4    0  502  0.15249963253E+02  0.52318710765E+02 -0.15646740597E+02  0.56851576642E+02  0.41800000000E+01 0.  1.
        -11    1    3    3    0    0  0.33220766968E+02 -0.18500148000E+02  0.33606948515E+02  0.50747431684E+02  0.00000000000E+00 0. -1.
         11    1    3    3    0    0  0.36091811521E+02 -0.19523326124E+02 -0.60569605699E+02  0.73160482887E+02  0.00000000000E+00 0.  1.
</event>
<event>
 8    1  0.2184156E-005  0.1145761E+03  0.7561462E-02  0.1252323E+00
          2   -1    0    0  501    0  0.00000000000E+00  0.00000000000E+00  0.18885417072E+03  0.18885417072E+03  0.00000000000E+00 0. -1.
         -2   -1    0    0    0  501 -0.00000000000E+00 -0.00000000000E+00 -0.13802357710E+03  0.13802357710E+03  0.00000000000E+00 0.  1.
         23    2    1    2    0    0  0.18228257055E+02 -0.93608695896E+02 -0.23759906612E+02  0.15279057990E+03  0.11698534456E+03 0.  0.
         23    2    1    2    0    0 -0.18228257055E+02  0.93608695896E+02  0.74590500238E+02  0.17408716792E+03  0.12509093495E+03 0.  0.
          5    1    4    4  502    0 -0.20715594234E+02  0.56089489409E+02  0.10806259590E+03  0.12357250382E+03  0.41800000000E+01 0. -1.
         -5    1    4    4    0  502  0.24873371797E+01  0.37519206487E+02 -0.33472095661E+02  0.50514664105E+02  0.41800000000E+01 0. -1.
        -11    1    3    3    0    0  0.37828391064E+02 -0.21983044009E+01 -0.43031333794E+02  0.57336859007E+02  0.00000000000E+00 0.  1.
         11    1    3    3    0    0 -0.19600134009E+02 -0.91410391495E+02  0.19271427182E+02  0.95453720892E+02  0.00000000000E+00 0. -1.
</event>
<event>
 8    1  0.2184156E-005  0.1415902E+03  0.7561462E-02  0.1211205E+00
          3   -1    0    0  501    0  0.00000000000E+00  0.00000000000E+00  0.64617634968E+02  0.64617634968E+02  0.00000000000E+00 0. -1.
         -3   -1    0    0    0  501 -0.00000000000E+00 -0.00000000000E+00 -0.37319043939E+03  0.37319043939E+03  0.00000000000E+00 0.  1.
         23    2    1    2    0    0  0.41297728092E+02 -0.86743315877E+02 -0.22189738317E+03  0.25783582599E+03  0.89503962542E+02 0.  0.
         23    2    1    2    0    0 -0.41297728092E+02  0.86743315877E+02 -0.86675421246E+02  0.17997224836E+03  0.12508987304E+03 0.  0.
          5    1    4    4  502    0  0.43328009016E+02  0.43624622960E+02 -0.44237996468E+02  0.75861036278E+02  0.41800000000E+01 0. -1.
         -5    1    4    4    0  502 -0.84625737109E+02  0.43118692917E+02 -0.42437424779E+02  0.10411121209E+03  0.41800000000E+01 0. -1.
        -11    1    3    3    0    0 -0.49544887422E+01  0.14420640977E+02 -0.56435990380E+02  0.58459583090E+02  0.00000000000E+00 0.  1.
         11    1    3    3    0    0  0.46252216834E+02 -0.10116395685E+03 -0.16546139279E+03  0.19937624290E+03  0.00000000000E+00 0. -1.
</event>
<event>
 7    1  0.2570909E-005  0.4921251E+02  0.7561462E-02  0.1449636E+00
         -2   -1    0    0    0  501 -0.00000000000E+00  0.00000000000E+00  0.11248383517E+03  0.11248383517E+03  0.00000000000E+00 0.  1.
          2   -1    0    0  501    0  0.00000000000E+00 -0.00000000000E+00 -0.51592251301E+02  0.51592251301E+02  0.00000000000E+00 0. -1.
         23    2    1    2    0    0  0.99919914804E+00 -0.30060489538E+02  0.44002762677E+02  0.12806837454E+03  0.11645013526E+03 0.  0.
          5    1    3    3  502    0 -0.28877597154E+02 -0.11442613783E+02 -0.31637008679E+02  0.44533377883E+02  0.41800000000E+01 0. -1.
         -5    1    3    3    0  502  0.29876796302E+02 -0.18617875755E+02  0.75639771356E+02  0.83534996652E+02  0.41800000000E+01 0.  1.
        -11    1    1    2    0    0  0.44238217526E+01  0.13195676406E+02  0.56033572776E+01  0.15003122592E+02  0.00000000000E+00 0. -1.
         11    1    1    2    0    0 -0.54230209007E+01  0.16864813132E+02  0.11285463912E+02  0.21004589341E+02  0.00000000000E+00 0.  1.
</event>
<event>
 8    1  0.2184156E-005  0.1125697E+03  0.7561462E-02  0.1255884E+00
          1   -1    0    0  501    0  0.00000000000E+00  0.00000000000E+00  0.91783881948E+02  0.91783881948E+02  0.00000000000E+00 0.  1.
         -1   -1    0    0    0  501 -0.00000000000E+00 -0.00000000000E+00 -0.26376495793E+03  0.26376495793E+03  0.00000000000E+00 0. -1.
         23    2    1    2    0    0 -0.56500879518E+02 -0.57715000317E+02 -0.16682232049E+03  0.20656270198E+03  0.91187129500E+02 0.  0.
         23    2    1    2    0    0  0.56500879518E+02  0.57715000317E+02 -0.51587554978E+01  0.14898613791E+03  0.12508751289E+03 0.  0.
          5    1    4    4  502    0 -0.15625528703E+02  0.25181075554E+01  0.43063425580E+02  0.46069827823E+02  0.41800000000E+01 0. -1.
         -5    1    4    4    0  502  0.72126408221E+02  0.55196892761E+02 -0.48222181078E+02  0.10291631008E+03  0.41800000000E+01 0. -1.
        -11    1    3    3    0    0 -0.55625620109E+01 -0.66007137731E+02 -0.11904635849E+03  0.13623479657E+03  0.00000000000E+00 0. -1.
         11    1    3    3    0    0 -0.50938317507E+02  0.82921374145E+01 -0.47775961997E+02  0.70327905401E+02  0.00000000000E+00 0.  1.
</event>
<event>
 8    1  0.2184156E-005  0.1118330E+03  0.7561462E-02  0.1257213E+00
         -2   -1    0    0    0  501 -0.00000000000E+00  0.00000000000E+00  0.34973665217E+02  0.34973665217E+02  0.00000000000E+00 0. -1.
          2   -1    0    0  501    0  0.00000000000E+00 -0.00000000000E+00 -0.39250674078E+03  0.39250674078E+03  0.00000000000E+00 0.  1.
         23    2    1    2    0    0  0.32864422019E+02  0.26142647399E+02 -0.12842546056E+03  0.16309138732E+03  0.91335608885E+02 0.  0.
         23    2    1    2    0    0 -0.32864422019E+02 -0.26142647399E+02 -0.22910761501E+03  0.26438901868E+03  0.12509094970E+03 0.  0.
          5    1    4    4  502    0  0.41996547656E+02 -0.23088162398E+02 -0.13921404342E+03  0.14729153249E+03  0.41800000000E+01 0. -1.
         -5    1    4    4    0  502 -0.74860969675E+02 -0.30544850006E+01 -0.89893571584E+02  0.11709748619E+03  0.41800000000E+01 0. -1.
        -11    1    3    3    0    0 -0.32076438233E+02  0.72361552253E+01 -0.41076693815E+02  0.52617056236E+02  0.00000000000E+00 0.  1.
         11    1    3    3    0    0  0.64940860252E+02  0.18906492173E+02 -0.87348766743E+02  0.11047433108E+03  0.00000000000E+00 0. -1.
</event>
<event>
 8    1  0.2184156E-005  0.8955550E+02  0.7561462E-02  0.1303932E+00
         -1   -1    0    0    0  501 -0.00000000000E+00  0.00000000000E+00  0.30834760012E+03  0.30834760012E+03  0.00000000000E+00 0.  1.
          1   -1    0    0  501    0  0.00000000000E+00 -0.00000000000E+00 -0.43757631837E+02  0.43757631837E+02  0.00000000000E+00 0. -1.
         23    2    1    2    0    0  0.87523516356E+01  0.29865718873E+02  0.13846347161E+03  0.17176268437E+03  0.96755991809E+02 0.  0.
         23    2    1    2    0    0 -0.87523516356E+01 -0.29865718873E+02  0.12612649668E+03  0.18034254758E+03  0.12508787504E+03 0.  0.
          5    1    4    4  502    0 -0.33626653364E+02  0.39419537961E+02  0.72321865678E+02  0.89065012461E+02  0.41800000000E+01 0. -1.
         -5    1    4    4    0  502  0.24874301728E+02 -0.69285256835E+02  0.53804631000E+02  0.91277535123E+02  0.41800000000E+01 0. -1.
        -11    1    3    3    0    0  0.24714719587E+02  0.27963795993E+02  0.14829524435E+03  0.15291916410E+03  0.00000000000E+00 0.  1.
         11    1    3    3    0    0 -0.15962367951E+02  0.19019228804E+01 -0.98317727429E+01  0.18843520280E+02  0.00000000000E+00 0. -1.
</event>
<event>
 8    1  0.2184156E-005  0.3268450E+03  0.7561462E-02  0.1072541E+00
          2   -1    0    0  501    0  0.00000000000E+00  0.00000000000E+00  0.83087416039E+03  0.83087416039E+03  0.00000000000E+00 0. -1.
         -2   -1    0    0    0  501 -0.00000000000E+00 -0.00000000000E+00 -0.17549193548E+03  0.17549193548E+03  0.00000000000E+00 0.  1.
         23    2    1    2    0    0  0.17771781621E+03  0.27278213974E+03  0.10289455259E+03  0.35299992612E+03  0.89598777515E+02 0.  0.
         23    2    1    2    0    0 -0.17771781621E+03 -0.27278213974E+03  0.55248767232E+03  0.65336616975E+03  0.12510397975E+03 0.  0.
          5    1    4    4  502    0 -0.85511530113E+02 -0.13020506857E+03  0.14906037541E+03  0.21564333883E+03  0.41800000000E+01 0.  1.
         -5    1    4    4    0  502 -0.92206286095E+02 -0.14257707117E+03  0.40342729690E+03  0.43772283092E+03  0.41800000000E+01 0.  1.
        -11    1    3    3    0    0  0.26221233172E+02  0.71020280739E+02 -0.10410826095E+02  0.76418706122E+02  0.00000000000E+00 0. -1.
         11    1    3    3    0    0  0.15149658304E+03  0.20176185900E+03  0.11330537869E+03  0.27658122000E+03  0.00000000000E+00 0.  1.
</event>
<event>
 8    1  0.2184156E-005  0.1137163E+03  0.7561462E-02  0.1253839E+00
          2   -1    0    0  501    0  0.00000000000E+00  0.00000000000E+00  0.76835391869E+03  0.76835391869E+03  0.00000000000E+00 0. -1.
         -2   -1    0    0    0  501 -0.00000000000E+00 -0.00000000000E+00 -0.20971343324E+02  0.20971343324E+02  0.00000000000E+00 0.  1.
         23    2    1    2    0    0 -0.25897457004E+02 -0.54374137762E+02  0.25721255334E+03  0.27987403013E+03  0.92433489639E+02 0.  0.
         23    2    1    2    0    0  0.25897457004E+02  0.54374137762E+02  0.49017002202E+03  0.50945123188E+03  0.12508669810E+03 0.  0.
          5    1    4    4  502    0 -0.35053025475E+01 -0.34035550913E+02  0.59190952380E+02  0.68496329212E+02  0.41800000000E+01 0. -1.
         -5    1    4    4    0  502  0.29402759551E+02  0.88409688676E+02  0.43097906964E+03  0.44095490267E+03  0.41800000000E+01 0. -1.
        -11    1    3    3    0    0  0.13274626478E+02  0.14998935817E+02  0.15370398315E+02  0.25247434090E+02  0.00000000000E+00 0. -1.
         11    1    3    3    0    0 -0.39172083481E+02 -0.69373073579E+02  0.24184215503E+03  0.25462659604E+03  0.00000000000E+00 0.  1.
</event>
<event>
 8    1  0.2184156E-005  0.1166609E+03  0.7561462E-02  0.1248709E+00
         -3   -1    0    0    0  501 -0.00000000000E+00  0.00000000000E+00  0.13291500012E+03  0.13291500012E+03  0.00000000000E+00 0.  1.
          3   -1    0    0  501    0  0.00000000000E+00 -0.00000000000E+00 -0.10687009116E+03  0.10687009116E+03  0.00000000000E+00 0. -1.
         23    2    1    2    0    0 -0.21134849150E+02 -0.36947001082E+02  0.11402555524E+02  0.10684063296E+03  0.97330056205E+02 0.  0.
         23    2    1    2    0    0  0.21134849150E+02  0.36947001082E+02  0.14642353434E+02  0.13294445833E+03  0.12509223696E+03 0.  0.
          5    1    4    4  502    0  0.49782175518E+02  0.70245422792E+02  0.20023676502E+02  0.88493527691E+02  0.41800000000E+01 0. -1.
         -5    1    4    4    0  502 -0.28647326367E+02 -0.33298421711E+02 -0.53813230680E+01  0.44450930635E+02  0.41800000000E+01 0. -1.
        -11    1    3    3    0    0 -0.57574629707E+02 -0.32961916270E+02  0.19799813512E+02  0.69234084996E+02  0.00000000000E+00 0.  1.
         11    1    3    3    0    0  0.36439780556E+02 -0.39850848120E+01 -0.83972579879E+01  0.37606547963E+02  0.00000000000E+00 0. -1.
</event>
<event>
 8    1  0.2184156E-005  0.8953295E+02  0.7561462E-02  0.1303987E+00
         -2   -1    0    0    0  501 -0.00000000000E+00  0.00000000000E+00  0.16321834360E+02  0.16321834360E+02  0.00000000000E+00 0.  1.
          2   -1    0    0  501    0  0.00000000000E+00 -0.00000000000E+00 -0.14745399538E+04  0.14745399538E+04  0.00000000000E+00 0. -1.
         23    2    1    2    0    0 -0.46423088577E+02 -0.48450452348E+02 -0.24535934531E+03  0.26972510929E+03  0.89709959117E+02 0.  0.
         23    2    1    2    0    0  0.46423088577E+02  0.48450452348E+02 -0.12128587741E+04  0.12211366788E+04  0.12508330428E+03 0.  0.
          5    1    4    4  502    0  0.93167753648E+01  0.66170910384E+02 -0.30166192430E+03  0.30900288130E+03  0.41800000000E+01 0. -1.
         -5    1    4    4    0  502  0.37106313213E+02 -0.17720458037E+02 -0.91119684980E+03  0.91213379753E+03  0.41800000000E+01 0. -1.
        -11    1    3    3    0    0 -0.19572607614E+01 -0.15023485119E+02  0.28001064765E+01  0.15407029924E+02  0.00000000000E+00 0.  1.
         11    1    3    3    0    0 -0.44465827816E+02 -0.33426967229E+02 -0.24815945178E+03  0.25431807936E+03  0.00000000000E+00 0. -1.
</event>
<event>
 8    1  0.2184156E-005  0.1060023E+03  0.7561462E-02  0.1268157E+00
          3   -1    0    0  501    0  0.00000000000E+00  0.00000000000E+00  0.31819537038E+03  0.31819537038E+03  0.00000000000E+00 0. -1.
         -3   -1    0    0    0  501 -0.00000000000E+00 -0.00000000000E+00 -0.64066229231E+02  0.64066229231E+02  0.00000000000E+00 0.  1.
         23    2    1    2    0    0 -0.10471772910E+02 -0.71287028913E+02  0.40617556668E+02  0.12452862830E+03  0.93091862360E+02 0.  0.
         23    2    1    2    0    0  0.10471772910E+02  0.71287028913E+02  0.21351158448E+03  0.25773297131E+03  0.12509032446E+03 0.  0.
          5    1    4    4  502    0 -0.38663358710E+02  0.66742803166E+02  0.18526070974E+03  0.20071985466E+03  0.41800000000E+01 0.  1.
         -5    1    4    4    0  502  0.49135131620E+02  0.45442257464E+01  0.28250874747E+02  0.57013116657E+02  0.41800000000E+01 0.  1.
        -11    1    3    3    0    0  0.63565863526E+01 -0.67741815737E+02 -0.12073236595E+02  0.69102263576E+02  0.00000000000E+00 0.  1.
         11    1    3    3    0    0 -0.16828359262E+02 -0.35452131755E+01  0.52690793263E+02  0.55426364724E+02  0.00000000000E+00 0. -1.
</event>
<event>
 8    1  0.2184156E-005  0.7417226E+02  0.7561462E-02  0.1346454E+00
          2   -1    0    0  501    0  0.00000000000E+00  0.00000000000E+00  0.23000104966E+03  0.23000104966E+03  0.00000000000E+00 0. -1.
         -2   -1    0    0    0  501 -0.00000000000E+00 -0.00000000000E+00 -0.97406602934E+02  0.97406602934E+02  0.00000000000E+00 0.  1.
         23    2    1    2    0    0 -0.45421413885E+02  0.67526414795E+01 -0.30590185369E+02  0.12313581830E+03  0.11008163925E+03 0.  0.
         23    2    1    2    0    0  0.45421413885E+02 -0.67526414795E+01  0.16318463210E+03  0.20427183430E+03  0.11396953596E+03 0.  0.
          5    1    4    4  502    0  0.32835751911E+02  0.17951364191E+02  0.17105425556E+03  0.17514984678E+03  0.41800000000E+01 0. -1.
         -5    1    4    4    0  502  0.12585661974E+02 -0.24704005671E+02 -0.78696234673E+01  0.29121987518E+02  0.41800000000E+01 0.  1.
        -11    1    3    3    0    0 -0.59120013416E+02 -0.11095074075E+02 -0.60761148078E+02  0.85499671174E+02  0.00000000000E+00 0.  1.
         11    1    3    3    0    0  0.13698599531E+02  0.17847715554E+02  0.30170962709E+02  0.37636147125E+02  0.00000000000E+00 0. -1.
</event>
<event>
 8    1  0.2184156E-005  0.1117049E+03  0.7561462E-02  0.1257445E+00
         -1   -1    0    0    0  501 -0.00000000000E+00  0.00000000000E+00  0.91981152796E+02  0.91981152796E+02  0.00000000000E+00 0.  1.
          1   -1    0    0  501    0  0.00000000000E+00 -0.00000000000E+00 -0.16717330540E+03  0.16717330540E+03  0.00000000000E+00 0. -1.
         23    2    1    2    0    0  0.16470360843E+02  0.47101815692E+02  0.12399672971E+01  0.10430197031E+03  0.91583348178E+02 0.  0.
         23    2    1    2    0    0 -0.16470360843E+02 -0.47101815692E+02 -0.76432119906E+02  0.15485248789E+03  0.12509024832E+03 0.  0.
          5    1    4    4  502    0  0.24232893776E+02  0.26248556762E+02 -0.58957436167E+02  0.69062808748E+02  0.41800000000E+01 0. -1.
         -5    1    4    4    0  502 -0.40703254619E+02 -0.73350372454E+02 -0.17474683740E+02  0.85789679144E+02  0.41800000000E+01 0. -1.
        -11    1    3    3    0    0 -0.25640392412E+02 -0.14022857419E+02  0.63271727179E+01  0.29901561294E+02  0.00000000000E+00 0.  1.
         11    1    3    3    0    0  0.42110753254E+02  0.61124673111E+02 -0.50872054209E+01  0.74400409014E+02  0.00000000000E+00 0. -1.
</event>
<event>
 8    1  0.2184156E-005  0.1244796E+03  0.7561462E-02  0.1235885E+00
          2   -1    0    0  501    0  0.00000000000E+00  0.00000000000E+00  0.35131928213E+03  0.35131928213E+03  0.00000000000E+00 0. -1.
         -2   -1    0    0    0  501 -0.00000000000E+00 -0.00000000000E+00 -0.10026465270E+03  0.10026465270E+03  0.00000000000E+00 0.  1.
         23    2    1    2    0    0 -0.44166439841E+02  0.97414161609E+02 -0.12163093379E+02  0.14114718905E+03  0.91292906880E+02 0.  0.
         23    2    1    2    0    0  0.44166439841E+02 -0.97414161609E+02  0.26321772282E+03  0.31043674578E+03  0.12508880938E+03 0.  0.
          5    1    4    4  502    0  0.39277498954E+01 -0.28945385528E+02  0.21587918464E+03  0.21788656985E+03  0.41800000000E+01 0. -1.
         -5    1    4    4    0  502  0.40238689945E+02 -0.68468776081E+02  0.47338538180E+02  0.92550175924E+02  0.41800000000E+01 0. -1.
        -11    1    3    3    0    0 -0.35030636593E+02 -0.64830687947E+01 -0.92572878679E+01  0.36808600351E+02  0.00000000000E+00 0. -1.
         11    1    3    3    0    0 -0.91358032475E+01  0.10389723040E+03 -0.29058055107E+01  0.10433858870E+03  0.00000000000E+00 0.  1.
</event>
<event>
 8    1  0.2184156E-005  0.2613243E+03  0.7561462E-02  0.1106350E+00
         -1   -1    0    0    0  501 -0.00000000000E+00  0.00000000000E+00  0.86809076313E+02  0.86809076313E+02  0.00000000000E+00 0.  1.
          1   -1    0    0  501    0  0.00000000000E+00 -0.00000000000E+00 -0.13905449192E+04  0.13905449192E+04  0.00000000000E+00 0. -1.
         23    2    1    2    0    0 -0.66325700713E+02 -0.24612858227E+03 -0.19683284197E+03  0.33461152369E+03  0.90792766882E+02 0.  0.
         23    2    1    2    0    0  0.66325700713E+02  0.24612858227E+03 -0.11069030010E+04  0.11427424719E+04  0.12509087058E+03 0.  0.
          5    1    4    4  502    0  0.17404078284E+02  0.96031849536E+02 -0.20460131964E+03  0.22672492246E+03  0.41800000000E+01 0. -1.
         -5    1    4    4    0  502  0.48921622429E+02  0.15009673274E+03 -0.90230168132E+03  0.91601754941E+03  0.41800000000E+01 0. -1.
        -11    1    3    3    0    0 -0.39665063415E+02 -0.31204599241E+02 -0.17457553269E+02  0.53402344852E+02  0.00000000000E+00 0.  1.
         11    1    3    3    0    0 -0.26660637298E+02 -0.21492398303E+03 -0.17937528870E+03  0.28120917883E+03  0.00000000000E+00 0. -1.
</event>
<event>
 8    1  0.2184156E-005  0.2058285E+03  0.7561462E-02  0.1144913E+00
          1   -1    0    0  501    0  0.00000000000E+00  0.00000000000E+00  0.84003321835E+03  0.84003321835E+03  0.00000000000E+00 0. -1.
         -1   -1    0    0    0  501 -0.00000000000E+00 -0.00000000000E+00 -0.62413323521E+02  0.62413323521E+02  0.00000000000E+00 0.  1.
         23    2    1    2    0    0 -0.17559090155E+03  0.85967950955E+02  0.26639340148E+03  0.34099908092E+03  0.84215649005E+02 0.  0.
         23    2    1    2    0    0  0.17559090155E+03 -0.85967950955E+02  0.51122649335E+03  0.56144746095E+03  0.12509224838E+03 0.  0.
          5    1    4    4  502    0  0.17777698216E+03 -0.67459849815E+02  0.34351511638E+03  0.39265200153E+03  0.41800000000E+01 0. -1.
         -5    1    4    4    0  502 -0.21860806078E+01 -0.18508101140E+02  0.16771137697E+03  0.16879545942E+03  0.41800000000E+01 0. -1.
        -11    1    3    3    0    0 -0.12045726584E+03  0.30718007517E+02  0.21235456197E+03  0.24606505008E+03  0.00000000000E+00 0.  1.
         11    1    3    3    0    0 -0.55133635713E+02  0.55249943438E+02  0.54038839510E+02  0.94934030845E+02  0.00000000000E+00 0. -1.
</event>
<event>
 8    1  0.2184156E-005  0.1148863E+03  0.7561462E-02  0.1251780E+00
          1   -1    0    0  501    0  0.00000000000E+00  0.00000000000E+00  0.10605697190E+04  0.10605697190E+04  0.00000000000E+00 0. -1.
         -1   -1    0    0    0  501 -0.00000000000E+00 -0.00000000000E+00 -0.15814310056E+02  0.15814310056E+02  0.00000000000E+00 0.  1.
         23    2    1    2    0    0 -0.18589168372E+02  0.61736831869E+02  0.35508258077E+03  0.37248795235E+03  0.92231458228E+02 0.  0.
         23    2    1    2    0    0  0.18589168372E+02 -0.61736831869E+02  0.68967282822E+03  0.70389607675E+03  0.12515623555E+03 0.  0.
          5    1    4    4  502    0 -0.30779214484E+02 -0.78411142482E+02  0.50385576602E+03  0.51086570903E+03  0.41800000000E+01 0.  1.
         -5    1    4    4    0  502  0.49368382856E+02  0.16674310613E+02  0.18581706220E+03  0.19303036772E+03  0.41800000000E+01 0.  1.
        -11    1    3    3    0    0 -0.34214612833E+02  0.68158351177E+02  0.34383825817E+03  0.35219447518E+03  0.00000000000E+00 0. -1.
         11    1    3    3    0    0  0.15625444461E+02 -0.64215193083E+01  0.11244322606E+02  0.20293477171E+02  0.00000000000E+00 0.  1.
</event>
<event>
 8    1  0.2184156E-005  0.1239873E+03  0.7561462E-02  0.1236660E+00
         -1   -1    0    0    0  501 -0.00000000000E+00  0.00000000000E+00  0.13895433751E+03  0.13895433751E+03  0.00000000000E+00 0.  1.
          1   -1    0    0  501    0  0.00000000000E+00 -0.00000000000E+00 -0.18765253768E+03  0.18765253768E+03  0.00000000000E+00 0. -1.
         23    2    1    2    0    0  0.90793031459E+02 -0.49795922363E+02  0.35969138614E+02  0.14346017836E+03  0.92542073665E+02 0.  0.
         23    2    1    2    0    0 -0.90793031459E+02  0.49795922363E+02 -0.84667338781E+02  0.18314669682E+03  0.12510453970E+03 0.  0.
          5    1    4    4  502    0 -0.24082814999E+02 -0.11155136512E+02 -0.88618355922E+02  0.92601859891E+02  0.41800000000E+01 0. -1.
         -5    1    4    4    0  502 -0.66710216459E+02  0.60951058876E+02  0.39510171413E+01  0.90544836929E+02  0.41800000000E+01 0. -1.
        -11    1    3    3    0    0  0.73178631450E+02  0.47459249083E+01 -0.42274812435E+01  0.73454118345E+02  0.00000000000E+00 0.  1.
         11    1    3    3    0    0  0.17614400009E+02 -0.54541847272E+02  0.40196619858E+02  0.70006060020E+02  0.00000000000E+00 0. -1.
</event>
<event>
 8    1  0.2184156E-005  0.1018346E+03  0.7561462E-02  0.1276485E+00
          2   -1    0    0  501    0  0.00000000000E+00  0.00000000000E+00  0.21460585874E+03  0.21460585874E+03  0.00000000000E+00 0. -1.
         -2   -1    0    0    0  501 -0.00000000000E+00 -0.00000000000E+00 -0.77166739481E+02  0.77166739481E+02  0.00000000000E+00 0.  1.
         23    2    1    2    0    0  0.24358807957E+02  0.64945575889E+02  0.45660611705E+02  0.12182386509E+03  0.89134074809E+02 0.  0.
         23    2    1    2    0    0 -0.24358807957E+02 -0.64945575889E+02  0.91778507552E+02  0.16994873313E+03  0.12509195854E+03 0.  0.
          5    1    4    4  502    0 -0.43261075006E+02 -0.70838249578E+02  0.11323134886E+03  0.14045778362E+03  0.41800000000E+01 0. -1.
         -5    1    4    4    0  502  0.18902267049E+02  0.58926736882E+01 -0.21452841309E+02  0.29490949510E+02  0.41800000000E+01 0. -1.
        -11    1    3    3    0    0 -0.23096201551E+02  0.41265859516E+02 -0.61427217894E+01  0.47686882040E+02  0.00000000000E+00 0.  1.
         11    1    3    3    0    0  0.47455009508E+02  0.23679716373E+02  0.51803333495E+02  0.74136983053E+02  0.00000000000E+00 0. -1.
</event>
<event>
 8    1  0.2184156E-005  0.7413222E+02  0.7561462E-02  0.1346580E+00
          1   -1    0    0  501    0  0.00000000000E+00  0.00000000000E+00  0.19199764975E+03  0.19199764975E+03  0.00000000000E+00 0. -1.
         -1   -1    0    0    0  501 -0.00000000000E+00 -0.00000000000E+00 -0.72696824202E+02  0.72696824202E+02  0.00000000000E+00 0.  1.
         23    2    1    2    0    0  0.15083313900E+02  0.43103089809E+02  0.36571797377E+02  0.10792480762E+03  0.90691151867E+02 0.  0.
         23    2    1    2    0    0 -0.15083313900E+02 -0.43103089809E+02  0.82729028166E+02  0.15676966633E+03  0.12508898221E+03 0.  0.
          5    1    4    4  502    0 -0.40719535965E+02 -0.21677733732E+02  0.10610851713E+03  0.11577778093E+03  0.41800000000E+01 0.  1.
         -5    1    4    4    0  502  0.25636222065E+02 -0.21425356077E+02 -0.23379488961E+02  0.40991885403E+02  0.41800000000E+01 0.  1.
        -11    1    3    3    0    0  0.34013144583E+02  0.27241467882E+02 -0.18674076100E+02  0.47410048460E+02  0.00000000000E+00 0.  1.
         11    1    3    3    0    0 -0.18929830683E+02  0.15861621927E+02  0.55245873477E+02  0.60514759159E+02  0.00000000000E+00 0. -1.
</event>
<event>
 8    1  0.2184156E-005  0.7378136E+02  0.7561462E-02  0.1347687E+00
         -2   -1    0    0    0  501 -0.00000000000E+00  0.00000000000E+00  0.10277607068E+03  0.10277607068E+03  0.00000000000E+00 0.  1.
          2   -1    0    0  501    0  0.00000000000E+00 -0.00000000000E+00 -0.13587424981E+03  0.13587424981E+03  0.00000000000E+00 0. -1.
         23    2    1    2    0    0  0.23571176922E+02 -0.17228094209E+02  0.11866076123E+02  0.10238317433E+03  0.97412027035E+02 0.  0.
         23    2    1    2    0    0 -0.23571176922E+02  0.17228094209E+02 -0.44964255250E+02  0.13626714617E+03  0.12527786422E+03 0.  0.
          5    1    4    4  502    0  0.95145830697E+01  0.17832118159E+02  0.39988759722E+02  0.45000944802E+02  0.41800000000E+01 0.  1.
         -5    1    4    4    0  502 -0.33085759992E+02 -0.60402395015E+00 -0.84953014972E+02  0.91266201367E+02  0.41800000000E+01 0.  1.
        -11    1    3    3    0    0  0.38665519845E+02  0.26786886421E+02 -0.14089025428E+02  0.49102549287E+02  0.00000000000E+00 0. -1.
         11    1    3    3    0    0 -0.15094342922E+02 -0.44014980630E+02  0.25955101550E+02  0.53280625040E+02  0.00000000000E+00 0.  1.
</event>
<event>
 8    1  0.2184156E-005  0.9335394E+02  0.7561462E-02  0.1294927E+00
          1   -1    0    0  501    0  0.00000000000E+00  0.00000000000E+00  0.11132900723E+03  0.11132900723E+03  0.00000000000E+00 0. -1.
         -1   -1    0    0    0  501 -0.00000000000E+00 -0.00000000000E+00 -0.14938367009E+03  0.14938367009E+03  0.00000000000E+00 0.  1.
         23    2    1    2    0    0  0.57577896111E+02 -0.31542334732E+02 -0.39809337323E+02  0.11942552687E+03  0.91474259384E+02 0.  0.
         23    2    1    2    0    0 -0.57577896111E+02  0.31542334732E+02  0.17546744623E+01  0.14128715045E+03  0.12509535162E+03 0.  0.
          5    1    4    4  502    0 -0.63754658404E+02  0.95433193361E+01  0.53944181186E+02  0.84161621277E+02  0.41800000000E+01 0. -1.
         -5    1    4    4    0  502  0.61767622930E+01  0.21999015396E+02 -0.52189506724E+02  0.57125529169E+02  0.41800000000E+01 0. -1.
        -11    1    3    3    0    0  0.59270094807E+01 -0.45092170044E+02  0.98165325949E+01  0.46527384978E+02  0.00000000000E+00 0. -1.
         11    1    3    3    0    0  0.51650886630E+02  0.13549835312E+02 -0.49625869918E+02  0.72898141895E+02  0.00000000000E+00 0.  1.
</event>
<event>
 8    1  0.2184156E-005  0.1531324E+03  0.7561462E-02  0.1196676E+00
          2   -1    0    0  501    0  0.00000000000E+00  0.00000000000E+00  0.31596306725E+03  0.31596306725E+03  0.00000000000E+00 0. -1.
         -2   -1    0    0    0  501 -0.00000000000E+00 -0.00000000000E+00 -0.12683448848E+03  0.12683448848E+03  0.00000000000E+00 0.  1.
         23    2    1    2    0    0  0.12162048438E+03 -0.92669497694E+02  0.13763146328E+02  0.17862638868E+03  0.91316945372E+02 0.  0.
         23    2    1    2    0    0 -0.12162048438E+03  0.92669497694E+02  0.17536543244E+03  0.26417116704E+03  0.12511671581E+03 0.  0.
          5    1    4    4  502    0 -0.25228960178E+02  0.18122546102E+02  0.13056525096E+03  0.13427465981E+03  0.41800000000E+01 0.  1.
         -5    1    4    4    0  502 -0.96391524205E+02  0.74546951592E+02  0.44800181486E+02  0.12989650723E+03  0.41800000000E+01 0.  1.
        -11    1    3    3    0    0  0.82680638630E+02 -0.66088611786E+02 -0.34331982506E+02  0.11127658170E+03  0.00000000000E+00 0.  1.
         11    1    3    3    0    0  0.38939845753E+02 -0.26580885908E+02  0.48095128834E+02  0.67349806982E+02  0.00000000000E+00 0. -1.
</event>
<event>
 8    1  0.2184156E-005  0.1316930E+03  0.7561462E-02  0.1224965E+00
         -1   -1    0    0    0  501 -0.00000000000E+00  0.00000000000E+00  0.70700499664E+02  0.70700499664E+02  0.00000000000E+00 0.  1.
          1   -1    0    0  501    0  0.00000000000E+00 -0.00000000000E+00 -0.44279288612E+03  0.44279288612E+03  0.00000000000E+00 0. -1.
         23    2    1    2    0    0  0.46090090459E+02 -0.82840925917E+02 -0.25971272170E+02  0.13344978550E+03  0.90263075658E+02 0.  0.
         23    2    1    2    0    0 -0.46090090459E+02  0.82840925917E+02 -0.34612111428E+03  0.38004360028E+03  0.12508555838E+03 0.  0.
          5    1    4    4  502    0 -0.38969559328E+01 -0.32282102041E+02 -0.96234792228E+02  0.10166576618E+03  0.41800000000E+01 0. -1.
         -5    1    4    4    0  502 -0.42193134526E+02  0.11512302796E+03 -0.24988632205E+03  0.27837783410E+03  0.41800000000E+01 0. -1.
        -11    1    3    3    0    0 -0.10224755556E+02 -0.25849338448E+02 -0.43319957688E+02  0.51471862785E+02  0.00000000000E+00 0. -1.
         11    1    3    3    0    0  0.56314846015E+02 -0.56991587469E+02  0.17348685519E+02  0.81977922718E+02  0.00000000000E+00 0.  1.
</event>
<event>
 8    1  0.2184156E-005  0.9120197E+02  0.7561462E-02  0.1299967E+00
         -1   -1    0    0    0  501 -0.00000000000E+00  0.00000000000E+00  0.48939479213E+02  0.48939479213E+02  0.00000000000E+00 0.  1.
          1   -1    0    0  501    0  0.00000000000E+00 -0.00000000000E+00 -0.30536073830E+03  0.30536073830E+03  0.00000000000E+00 0. -1.
         23    2    1    2    0    0  0.36458656790E+02  0.45047415555E+02 -0.11141676097E+03  0.15421937560E+03  0.89506524250E+02 0.  0.
         23    2    1    2    0    0 -0.36458656790E+02 -0.45047415555E+02 -0.14500449812E+03  0.20008084191E+03  0.12509010961E+03 0.  0.
          5    1    4    4  502    0  0.36277936915E+02  0.25960517610E+01 -0.89863202443E+02  0.97034508010E+02  0.41800000000E+01 0.  1.
         -5    1    4    4    0  502 -0.72736593705E+02 -0.47643467316E+02 -0.55141295681E+02  0.10304633390E+03  0.41800000000E+01 0.  1.
        -11    1    3    3    0    0  0.14709222902E+02  0.11109666201E+02  0.13572533532E+02  0.22891037285E+02  0.00000000000E+00 0.  1.
         11    1    3    3    0    0  0.21749433888E+02  0.33937749353E+02 -0.12498929450E+03  0.13132833832E+03  0.00000000000E+00 0. -1.
</event>
<event>
 8    1  0.2184156E-005  0.9205119E+02  0.7561462E-02  0.1297959E+00
         -2   -1    0    0    0  501 -0.00000000000E+00  0.00000000000E+00  0.51643803819E+02  0.51643803819E+02  0.00000000000E+00 0. -1.
          2   -1    0    0  501    0  0.00000000000E+00 -0.00000000000E+00 -0.27830374661E+03  0.27830374661E+03  0.00000000000E+00 0.  1.
         23    2    1    2    0    0 -0.35865842960E+02  0.15205455653E+02 -0.55167728119E+02  0.11413655102E+03  0.92011463850E+02 0.  0.
         23    2    1    2    0    0  0.35865842960E+02 -0.15205455653E+02 -0.17149221468E+03  0.21581099942E+03  0.12508894116E+03 0.  0.
          5    1    4    4  502    0  0.39911922961E+02  0.25403929798E+02 -0.16806152878E+03  0.17464384071E+03  0.41800000000E+01 0. -1.
         -5    1    4    4    0  502 -0.40460800011E+01 -0.40609385450E+02 -0.34306858990E+01  0.41167158704E+02  0.41800000000E+01 0. -1.
        -11    1    3    3    0    0  0.64849302368E+01  0.43932605217E+02 -0.42386329543E+02  0.61389975187E+02  0.00000000000E+00 0.  1.
         11    1    3    3    0    0 -0.42350773196E+02 -0.28727149564E+02 -0.12781398577E+02  0.52746575832E+02  0.00000000000E+00 0. -1.
</event>
<event>
 8    1  0.2184156E-005  0.1250027E+03  0.7561462E-02  0.1235065E+00
         -2   -1    0    0    0  501 -0.00000000000E+00  0.00000000000E+00  0.32896927753E+02  0.32896927753E+02  0.00000000000E+00 0. -1.
          2   -1    0    0  501    0  0.00000000000E+00 -0.00000000000E+00 -0.63591259870E+03  0.63591259870E+03  0.00000000000E+00 0.  1.
         23    2    1    2    0    0  0.53479333644E+02  0.78425753265E+02 -0.24917184507E+03  0.28168434181E+03  0.90823026508E+02 0.  0.
         23    2    1    2    0    0 -0.53479333644E+02 -0.78425753265E+02 -0.35384382588E+03  0.38712518465E+03  0.12509923090E+03 0.  0.
          5    1    4    4  502    0 -0.35008342137E+02  0.21689646867E+02 -0.18783036379E+03  0.19233757501E+03  0.41800000000E+01 0. -1.
         -5    1    4    4    0  502 -0.18470991507E+02 -0.10011540013E+03 -0.16601346209E+03  0.19478760963E+03  0.41800000000E+01 0. -1.
        -11    1    3    3    0    0  0.25283381526E+02  0.73973297649E+02 -0.23887028728E+03  0.25133704918E+03  0.00000000000E+00 0.  1.
         11    1    3    3    0    0  0.28195952118E+02  0.44524556166E+01 -0.10301557785E+02  0.30347292625E+02  0.00000000000E+00 0. -1.
</event>
<event>
 8    1  0.2184156E-005  0.9531643E+02  0.7561462E-02  0.1290465E+00
         -1   -1    0    0    0  501 -0.00000000000E+00  0.00000000000E+00  0.40631896130E+02  0.40631896130E+02  0.00000000000E+00 0.  1.
          1   -1    0    0  501    0  0.00000000000E+00 -0.00000000000E+00 -0.31758886089E+03  0.31758886089E+03  0.00000000000E+00 0. -1.
         23    2    1    2    0    0 -0.34835928159E+01  0.32365564843E+02 -0.13749858945E+03  0.16806494368E+03  0.90996142700E+02 0.  0.
         23    2    1    2    0    0  0.34835928159E+01 -0.32365564843E+02 -0.13945837531E+03  0.19015581335E+03  0.12510367580E+03 0.  0.
          5    1    4    4  502    0 -0.46201958814E+02 -0.56361120963E+02 -0.67867036263E+02  0.99672483492E+02  0.41800000000E+01 0. -1.
         -5    1    4    4    0  502  0.49685551630E+02  0.23995556119E+02 -0.71591339052E+02  0.90483329854E+02  0.41800000000E+01 0. -1.
        -11    1    3    3    0    0  0.73563525323E+01 -0.13390422462E+02  0.64850491880E+01  0.16597445564E+02  0.00000000000E+00 0.  1.
         11    1    3    3    0    0 -0.10839945348E+02  0.45755987305E+02 -0.14398363864E+03  0.15146749811E+03  0.00000000000E+00 0. -1.
</event>
<event>
 7    1  0.2184156E-005  0.1029600E+03  0.7561462E-02  0.1274192E+00
          2   -1    0    0  501    0  0.00000000000E+00  0.00000000000E+00  0.29141718680E+04  0.29141718680E+04  0.00000000000E+00 0. -1.
         -2   -1    0    0    0  501 -0.00000000000E+00 -0.00000000000E+00 -0.99666403239E+01  0.99666403239E+01  0.00000000000E+00 0.  1.
         23    2    1    2    0    0  0.65370795740E+02  0.10192713268E+02  0.47226139561E+03  0.48587568652E+03  0.93097393228E+02 0.  0.
          5    1    1    2  502    0 -0.16802903993E+02  0.30569900092E+02  0.20998664601E+04  0.21001603460E+04  0.41800000000E+01 0. -1.
         -5    1    1    2    0  502 -0.48567891748E+02 -0.40762613359E+02  0.33207737203E+03  0.33810247584E+03  0.41800000000E+01 0.  1.
        -11    1    3    3    0    0  0.85607127252E+02  0.13724310883E+02  0.43268217846E+03  0.44128313417E+03  0.00000000000E+00 0.  1.
         11    1    3    3    0    0 -0.20236331511E+02 -0.35315976155E+01  0.39579217157E+02  0.44592552355E+02  0.00000000000E+00 0. -1.
</event>
<event>
 8    1  0.2184156E-005  0.5254364E+02  0.7561462E-02  0.1432086E+00
          2   -1    0    0  501    0  0.00000000000E+00  0.00000000000E+00  0.51740533321E+03  0.51740533321E+03  0.00000000000E+00 0. -1.
         -2   -1    0    0    0  501 -0.00000000000E+00 -0.00000000000E+00 -0.23885112770E+02  0.23885112770E+02  0.00000000000E+00 0.  1.
         23    2    1    2    0    0  0.20632797006E+01  0.25948684153E+02  0.21901759088E+03  0.23851022691E+03  0.90779027834E+02 0.  0.
         23    2    1    2    0    0 -0.20632797006E+01 -0.25948684153E+02  0.27450262956E+03  0.30278021907E+03  0.12508627459E+03 0.  0.
          5    1    4    4  502    0  0.59316276535E+00 -0.14363366706E+02 -0.99968521421E+01  0.18001877623E+02  0.41800000000E+01 0. -1.
         -5    1    4    4    0  502 -0.26564424659E+01 -0.11585317447E+02  0.28449948170E+03  0.28477834144E+03  0.41800000000E+01 0. -1.
        -11    1    3    3    0    0  0.27435212167E+02  0.40007016491E+02  0.19472038788E+03  0.20067207501E+03  0.00000000000E+00 0. -1.
         11    1    3    3    0    0 -0.25371932467E+02 -0.14058332339E+02  0.24297202998E+02  0.37838151894E+02  0.00000000000E+00 0.  1.
</event>
<event>
 6    1  0.2184156E-005  0.7926973E+02  0.7561462E-02  0.1331137E+00
          2   -1    0    0  501    0  0.00000000000E+00  0.00000000000E+00  0.72134953615E+03  0.72134953615E+03  0.00000000000E+00 0. -1.
         -2   -1    0    0    0  501 -0.00000000000E+00 -0.00000000000E+00 -0.15291404919E+02  0.15291404919E+02  0.00000000000E+00 0.  1.
          5    1    1    2  502    0  0.26822944725E+02  0.56717597009E+02  0.53256514389E+03  0.53626435744E+03  0.41800000000E+01 0. -1.
         -5    1    1    2    0  502 -0.20808709290E+02 -0.58768061756E+02  0.13405425575E+03  0.14790099172E+03  0.41800000000E+01 0.  1.
        -11    1    1    2    0    0  0.12372896601E+02  0.68919000330E+01  0.96573745285E+01  0.17142104280E+02  0.00000000000E+00 0. -1.
         11    1    1    2    0    0 -0.18387132036E+02 -0.48414352854E+01  0.29781357064E+02  0.35333487639E+02  0.00000000000E+00 0.  1.
</event>
<event>
 8    1  0.2184156E-005  0.1760526E+03  0.7561462E-02  0.1171679E+00
          3   -1    0    0  501    0  0.00000000000E+00  0.00000000000E+00  0.60813321272E+02  0.60813321272E+02  0.00000000000E+00 0. -1.
         -3   -1    0    0    0  501 -0.00000000000E+00 -0.00000000000E+00 -0.64908142753E+03  0.64908142753E+03  0.00000000000E+00 0.  1.
         23    2    1    2    0    0  0.15449625351E+03  0.55830542047E+02 -0.33409953619E+03  0.38242644673E+03  0.87414788841E+02 0.  0.
         23    2    1    2    0    0 -0.15449625351E+03 -0.55830542047E+02 -0.25416857007E+03  0.32746830207E+03  0.12509070739E+03 0.  0.
          5    1    4    4  502    0 -0.77672995980E+02 -0.41138216371E+02 -0.34956872085E+02  0.94683168814E+02  0.41800000000E+01 0. -1.
         -5    1    4    4    0  502 -0.76823257526E+02 -0.14692325676E+02 -0.21921169798E+03  0.23278513325E+03  0.41800000000E+01 0. -1.
        -11    1    3    3    0    0  0.15004023552E+03  0.21980017934E+02 -0.26393769774E+03  0.30439826174E+03  0.00000000000E+00 0. -1.
         11    1    3    3    0    0  0.44560179896E+01  0.33850524113E+02 -0.70161838449E+02  0.78028184995E+02  0.00000000000E+00 0.  1.
</event>
<event>
 8    1  0.2184156E-005  0.7042337E+02  0.7561462E-02  0.1358659E+00
         -2   -1    0    0    0  501 -0.00000000000E+00  0.00000000000E+00  0.35625672260E+02  0.35625672260E+02  0.00000000000E+00 0. -1.
          2   -1    0    0  501    0  0.00000000000E+00 -0.00000000000E+00 -0.37550708539E+03  0.37550708539E+03  0.00000000000E+00 0.  1.
         23    2    1    2    0    0 -0.38886106782E+02  0.84625336018E+01 -0.14661467751E+03  0.17745885396E+03  0.91717159861E+02 0.  0.
         23    2    1    2    0    0  0.38886106782E+02 -0.84625336018E+01 -0.19326673562E+03  0.23367390369E+03  0.12517075693E+03 0.  0.
          5    1    4    4  502    0  0.31874590560E+02  0.85415048420E+01  0.57578336996E+01  0.33757545486E+02  0.41800000000E+01 0.  1.
         -5    1    4    4    0  502  0.70115162222E+01 -0.17004038444E+02 -0.19902456932E+03  0.19991635820E+03  0.41800000000E+01 0.  1.
        -11    1    3    3    0    0 -0.54346954022E+02 -0.18694411485E+02 -0.12984089153E+03  0.14199200522E+03  0.00000000000E+00 0.  1.
         11    1    3    3    0    0  0.15460847240E+02  0.27156945087E+02 -0.16773785978E+02  0.35466848744E+02  0.00000000000E+00 0. -1.
</event>
<event>
 8    1  0.2184156E-005  0.9344049E+02  0.7561462E-02  0.1294728E+00
          1   -1    0    0  501    0  0.00000000000E+00  0.00000000000E+00  0.69052241463E+03  0.69052241463E+03  0.00000000000E+00 0. -1.
         -1   -1    0    0    0  501 -0.00000000000E+00 -0.00000000000E+00 -0.32998225049E+02  0.32998225049E+02  0.00000000000E+00 0.  1.
         23    2    1    2    0    0  0.23989884878E+02  0.76742912564E+02  0.14882610926E+03  0.19353400924E+03  0.94027723199E+02 0.  0.
         23    2    1    2    0    0 -0.23989884878E+02 -0.76742912564E+02  0.50869808032E+03  0.52998663044E+03  0.12508837802E+03 0.  0.
          5    1    4    4  502    0  0.15371273992E+02 -0.57673568672E+02  0.84608387935E+02  0.10362706353E+03  0.41800000000E+01 0.  1.
         -5    1    4    4    0  502 -0.39361158870E+02 -0.19069343891E+02  0.42408969238E+03  0.42635956690E+03  0.41800000000E+01 0.  1.
        -11    1    3    3    0    0  0.27810302339E+02  0.63375342896E+02  0.16087904456E+03  0.17513398865E+03  0.00000000000E+00 0. -1.
         11    1    3    3    0    0 -0.38204174609E+01  0.13367569667E+02 -0.12052935297E+02  0.18400020589E+02  0.00000000000E+00 0.  1.
</event>
<event>
 8    1  0.2184156E-005  0.1416680E+03  0.7561462E-02  0.1211102E+00
          1   -1    0    0  501    0  0.00000000000E+00  0.00000000000E+00  0.31582589375E+03  0.31582589375E+03  0.00000000000E+00 0. -1.
         -1   -1    0    0    0  501 -0.00000000000E+00 -0.00000000000E+00 -0.12819581662E+03  0.12819581662E+03  0.00000000000E+00 0.  1.
         23    2    1    2    0    0 -0.32742698985E+02 -0.12708238812E+03 -0.28178120917E+02  0.16216574918E+03  0.91003879049E+02 0.  0.
         23    2    1    2    0    0  0.32742698985E+02  0.12708238812E+03  0.21580819805E+03  0.28185596118E+03  0.12509031457E+03 0.  0.
          5    1    4    4  502    0 -0.36737079548E+01  0.75444617884E+02  0.20381968770E+03  0.21740589687E+03  0.41800000000E+01 0. -1.
         -5    1    4    4    0  502  0.36416406940E+02  0.51637770239E+02  0.11988510346E+02  0.64450064313E+02  0.41800000000E+01 0. -1.
        -11    1    3    3    0    0  0.17683652903E+02 -0.26701118482E+02 -0.37653871060E+02  0.49431521461E+02  0.00000000000E+00 0.  1.
         11    1    3    3    0    0 -0.50426351887E+02 -0.10038126964E+03  0.94757501423E+01  0.11273422772E+03  0.00000000000E+00 0. -1.
</event>
<event>
 8    1  0.2184156E-005  0.1007355E+03  0.7561462E-02  0.1278757E+00
          2   -1    0    0  501    0  0.00000000000E+00  0.00000000000E+00  0.29680845471E+03  0.29680845471E+03  0.00000000000E+00 0.  1.
         -2   -1    0    0    0  501 -0.00000000000E+00 -0.00000000000E+00 -0.55123393125E+02  0.55123393125E+02  0.00000000000E+00 0. -1.
         23    2    1    2    0    0 -0.64038493017E+01  0.50536388248E+02  0.67799911742E+02  0.13175525005E+03  0.10083492480E+03 0.  0.
         23    2    1    2    0    0  0.64038493017E+01 -0.50536388248E+02  0.17388514984E+03  0.22017659778E+03  0.12508698195E+03 0.  0.
          5    1    4    4  502    0 -0.56752688891E+02 -0.36514384026E+02  0.67132012822E+02  0.95280362524E+02  0.41800000000E+01 0. -1.
         -5    1    4    4    0  502  0.63156538193E+02 -0.14022004222E+02  0.10675313702E+03  0.12489623526E+03  0.41800000000E+01 0. -1.
        -11    1    3    3    0    0  0.17396225701E+02  0.57702211968E+01  0.77927608607E+02  0.80053958706E+02  0.00000000000E+00 0.  1.
         11    1    3    3    0    0 -0.23800075002E+02  0.44766167051E+02 -0.10127696865E+02  0.51701291341E+02  0.00000000000E+00 0. -1.
</event>
<event>
 8    1  0.2184156E-005  0.1007439E+03  0.7561462E-02  0.1278739E+00
         -2   -1    0    0    0  501 -0.00000000000E+00  0.00000000000E+00  0.11905925769E+03  0.11905925769E+03  0.00000000000E+00 0.  1.
          2   -1    0    0  501    0  0.00000000000E+00 -0.00000000000E+00 -0.10652188083E+03  0.10652188083E+03  0.00000000000E+00 0. -1.
         23    2    1    2    0    0 -0.15824826187E+00  0.22790185861E+02  0.26101419611E+02  0.97712645970E+02  0.91362243091E+02 0.  0.
         23    2    1    2    0    0  0.15824826187E+00 -0.22790185861E+02 -0.13564042749E+02  0.12786849255E+03  0.12508777125E+03 0.  0.
          5    1    4    4  502    0 -0.40157196089E+01  0.48377051722E+02 -0.26240905687E+02  0.55340063865E+02  0.41800000000E+01 0.  1.
         -5    1    4    4    0  502  0.41739678708E+01 -0.71167237584E+02  0.12676862938E+02  0.72528428682E+02  0.41800000000E+01 0.  1.
        -11    1    3    3    0    0 -0.37091344871E+02 -0.15445788682E+01  0.36731203851E+02  0.52223892277E+02  0.00000000000E+00 0.  1.
         11    1    3    3    0    0  0.36933096609E+02  0.24334764730E+02 -0.10629784239E+02  0.45488753693E+02  0.00000000000E+00 0. -1.
</event>
<event>
 8    1  0.2184156E-005  0.3416260E+03  0.7561462E-02  0.1066105E+00
          1   -1    0    0  501    0  0.00000000000E+00  0.00000000000E+00  0.49728309857E+03  0.49728309857E+03  0.00000000000E+00 0. -1.
         -1   -1    0    0    0  501 -0.00000000000E+00 -0.00000000000E+00 -0.26263883362E+03  0.26263883362E+03  0.00000000000E+00 0.  1.
         23    2    1    2    0    0 -0.22566022333E+03 -0.24142069242E+03  0.12876320965E+02  0.34274623447E+03  0.90014968076E+02 0.  0.
         23    2    1    2    0    0  0.22566022333E+03  0.24142069242E+03  0.22176794399E+03  0.41717569772E+03  0.12509218468E+03 0.  0.
          5    1    4    4  502    0  0.56939449295E+02  0.14771476750E+02  0.84426576805E+02  0.10298357482E+03  0.41800000000E+01 0.  1.
         -5    1    4    4    0  502  0.16872077404E+03  0.22664921567E+03  0.13734136718E+03  0.31419212290E+03  0.41800000000E+01 0.  1.
        -11    1    3    3    0    0 -0.31793230890E+02  0.35067451011E+00 -0.56501145289E+01  0.32293285637E+02  0.00000000000E+00 0. -1.
         11    1    3    3    0    0 -0.19386699244E+03 -0.24177136693E+03  0.18526435494E+02  0.31045294883E+03  0.00000000000E+00 0.  1.
</event>
<event>
 8    1  0.2184156E-005  0.9664760E+02  0.7561462E-02  0.1287508E+00
          1   -1    0    0  501    0  0.00000000000E+00  0.00000000000E+00  0.25366937570E+02  0.25366937570E+02  0.00000000000E+00 0. -1.
         -1   -1    0    0    0  501 -0.00000000000E+00 -0.00000000000E+00 -0.46939497112E+03  0.46939497112E+03  0.00000000000E+00 0.  1.
         23    2    1    2    0    0  0.30042025282E+01 -0.69522947967E+01 -0.21140765927E+03  0.23053032027E+03  0.91616977310E+02 0.  0.
         23    2    1    2    0    0 -0.30042025282E+01  0.69522947967E+01 -0.23262037428E+03  0.26423158841E+03  0.12509490058E+03 0.  0.
          5    1    4    4  502    0 -0.49426691963E+02  0.20049298845E+02 -0.19696950483E+03  0.20410641954E+03  0.41800000000E+01 0.  1.
         -5    1    4    4    0  502  0.46422489435E+02 -0.13097004048E+02 -0.35650869447E+02  0.60125168879E+02  0.41800000000E+01 0.  1.
        -11    1    3    3    0    0 -0.12784878123E+02  0.39920273003E+02 -0.84518301964E+02  0.94342062051E+02  0.00000000000E+00 0.  1.
         11    1    3    3    0    0  0.15789080651E+02 -0.46872567800E+02 -0.12688935731E+03  0.13618825822E+03  0.00000000000E+00 0. -1.
</event>
<event>
 8    1  0.2184156E-005  0.7136242E+02  0.7561462E-02  0.1355520E+00
         -2   -1    0    0    0  501 -0.00000000000E+00  0.00000000000E+00  0.56449311747E+02  0.56449311747E+02  0.00000000000E+00 0.  1.
          2   -1    0    0  501    0  0.00000000000E+00 -0.00000000000E+00 -0.22469638338E+03  0.22469638338E+03  0.00000000000E+00 0. -1.
         23    2    1    2    0    0 -0.15830386776E+02 -0.14024057311E+02 -0.45159320354E+02  0.10439159980E+03  0.91711321905E+02 0.  0.
         23    2    1    2    0    0  0.15830386776E+02  0.14024057311E+02 -0.12308775128E+03  0.17675409533E+03  0.12507653805E+03 0.  0.
          5    1    4    4  502    0 -0.29259055008E+02 -0.70083956042E+01 -0.12313384809E+03  0.12682518225E+03  0.41800000000E+01 0.  1.
         -5    1    4    4    0  502  0.45089441784E+02  0.21032452915E+02  0.46096802573E-01  0.49928913076E+02  0.41800000000E+01 0.  1.
        -11    1    3    3    0    0  0.16653549463E+02 -0.23298354714E+02 -0.60767911145E+02  0.67178069838E+02  0.00000000000E+00 0. -1.
         11    1    3    3    0    0 -0.32483936239E+02  0.92742974038E+01  0.15608590792E+02  0.37213529965E+02  0.00000000000E+00 0.  1.
</event>
<event>
 8    1  0.2184156E-005  0.1059179E+03  0.7561462E-02  0.1268322E+00
         -2   -1    0    0    0  501 -0.00000000000E+00  0.00000000000E+00  0.95124632244E+02  0.95124632244E+02  0.00000000000E+00 0.  1.
          2   -1    0    0  501    0  0.00000000000E+00 -0.00000000000E+00 -0.16387763741E+03  0.16387763741E+03  0.00000000000E+00 0. -1.
         23    2    1    2    0    0 -0.12207502279E+02 -0.18791095018E+02  0.29953925249E+02  0.98048459942E+02  0.90631862473E+02 0.  0.
         23    2    1    2    0    0  0.12207502279E+02  0.18791095018E+02 -0.98706930415E+02  0.16095380971E+03  0.12514368696E+03 0.  0.
          5    1    4    4  502    0  0.17896994405E+02  0.70886006579E+02 -0.45819543560E+02  0.86383049896E+02  0.41800000000E+01 0.  1.
         -5    1    4    4    0  502 -0.56894921257E+01 -0.52094911561E+02 -0.52887386855E+02  0.74570759816E+02  0.41800000000E+01 0.  1.
        -11    1    3    3    0    0 -0.20029661548E+02  0.30301410274E+02  0.31837485228E+02  0.48301017298E+02  0.00000000000E+00 0.  1.
         11    1    3    3    0    0  0.78221592693E+01 -0.49092505292E+02 -0.18835599785E+01  0.49747442645E+02  0.00000000000E+00 0. -1.
</event>
<event>
 8    1  0.2184156E-005  0.9249860E+02  0.7561462E-02  0.1296911E+00
          1   -1    0    0  501    0  0.00000000000E+00  0.00000000000E+00  0.20360531502E+03  0.20360531502E+03  0.00000000000E+00 0. -1.
         -1   -1    0    0    0  501 -0.00000000000E+00 -0.00000000000E+00 -0.80395037410E+02  0.80395037410E+02  0.00000000000E+00 0.  1.
         23    2    1    2    0    0  0.18161650128E+02 -0.46215894290E+02  0.52825169802E+01  0.10506019783E+03  0.92433683044E+02 0.  0.
         23    2    1    2    0    0 -0.18161650128E+02  0.46215894290E+02  0.11792776063E+03  0.17894015460E+03  0.12508744054E+03 0.  0.
          5    1    4    4  502    0 -0.43860716542E+02  0.16204337133E+02  0.12934491689E+03  0.13760059202E+03  0.41800000000E+01 0.  1.
         -5    1    4    4    0  502  0.25699066413E+02  0.30011557157E+02 -0.11417156266E+02  0.41339562585E+02  0.41800000000E+01 0.  1.
        -11    1    3    3    0    0  0.29280332217E+02 -0.67904391544E+02 -0.12357778957E+02  0.74973721706E+02  0.00000000000E+00 0. -1.
         11    1    3    3    0    0 -0.11118682089E+02  0.21688497254E+02  0.17640295937E+02  0.30086476120E+02  0.00000000000E+00 0.  1.
</event>
<event>
 8    1  0.2184156E-005  0.1002938E+03  0.7561462E-02  0.1279679E+00
          1   -1    0    0  501    0  0.00000000000E+00  0.00000000000E+00  0.48140013134E+02  0.48140013134E+02  0.00000000000E+00 0. -1.
         -1   -1    0    0    0  501 -0.00000000000E+00 -0.00000000000E+00 -0.50553347862E+03  0.50553347862E+03  0.00000000000E+00 0.  1.
         23    2    1    2    0    0 -0.24747519560E+02 -0.42533994786E+02 -0.39155454665E+03  0.40399347171E+03  0.86453350109E+02 0.  0.
         23    2    1    2    0    0  0.24747519560E+02  0.42533994786E+02 -0.65838918840E+02  0.14968002005E+03  0.12509102578E+03 0.  0.
          5    1    4    4  502    0  0.19580234974E+02  0.70819531756E+02  0.43408297807E+01  0.73723177379E+02  0.41800000000E+01 0.  1.
         -5    1    4    4    0  502  0.51672845864E+01 -0.28285536970E+02 -0.70179748621E+02  0.75956842668E+02  0.41800000000E+01 0.  1.
        -11    1    3    3    0    0 -0.28775430703E+02  0.20146265301E+02 -0.17615831077E+03  0.17962641195E+03  0.00000000000E+00 0.  1.
         11    1    3    3    0    0  0.40279111433E+01 -0.62680260087E+02 -0.21539623588E+03  0.22436705976E+03  0.00000000000E+00 0. -1.
</event>
<event>
 8    1  0.2184156E-005  0.1179106E+03  0.7561462E-02  0.1246584E+00
          4   -1    0    0  501    0  0.00000000000E+00  0.00000000000E+00  0.79032994059E+02  0.79032994059E+02  0.00000000000E+00 0.  1.
         -4   -1    0    0    0  501 -0.00000000000E+00 -0.00000000000E+00 -0.20484245930E+03  0.20484245930E+03  0.00000000000E+00 0. -1.
         23    2    1    2    0    0 -0.43183865260E+02  0.50015155742E+02 -0.62837596519E+02  0.12902269138E+03  0.91279402565E+02 0.  0.
         23    2    1    2    0    0  0.43183865260E+02 -0.50015155742E+02 -0.62971868727E+02  0.15485276198E+03  0.12509020593E+03 0.  0.
          5    1    4    4  502    0  0.83392784604E+02 -0.50093250345E+02 -0.59877791802E+02  0.11430884745E+03  0.41800000000E+01 0. -1.
         -5    1    4    4    0  502 -0.40208919344E+02  0.78094602478E-01 -0.30940769247E+01  0.40543914532E+02  0.41800000000E+01 0. -1.
        -11    1    3    3    0    0 -0.19366253589E+00  0.54771320540E+02 -0.25584862631E+01  0.54831386184E+02  0.00000000000E+00 0.  1.
         11    1    3    3    0    0 -0.42990202724E+02 -0.47561647975E+01 -0.60279110256E+02  0.74191305199E+02  0.00000000000E+00 0. -1.
</event>
<event>
 8    1  0.2184156E-005  0.9413820E+02  0.7561462E-02  0.1293129E+00
          2   -1    0    0  501    0  0.00000000000E+00  0.00000000000E+00  0.32339116176E+03  0.32339116176E+03  0.00000000000E+00 0.  1.
         -2   -1    0    0    0  501 -0.00000000000E+00 -0.00000000000E+00 -0.39424904319E+02  0.39424904319E+02  0.00000000000E+00 0. -1.
         23    2    1    2    0    0 -0.86146074382E+01  0.40040908448E+01  0.91093271230E+02  0.13273560912E+03  0.96075562240E+02 0.  0.
         23    2    1    2    0    0  0.86146074382E+01 -0.40040908448E+01  0.19287298621E+03  0.23008045696E+03  0.12508710429E+03 0.  0.
          5    1    4    4  502    0  0.17746209114E+02  0.56430219801E+02  0.63211268856E+02  0.86674301584E+02  0.41800000000E+01 0. -1.
         -5    1    4    4    0  502 -0.91316016758E+01 -0.60434310646E+02  0.12966171735E+03  0.14340615538E+03  0.41800000000E+01 0. -1.
        -11    1    3    3    0    0  0.25467313501E+02  0.17663963331E+02 -0.35722870216E+01  0.31198732219E+02  0.00000000000E+00 0. -1.
         11    1    3    3    0    0 -0.34081920939E+02 -0.13659872486E+02  0.94665558251E+02  0.10153687690E+03  0.00000000000E+00 0.  1.
</event>
<event>
 7    1  0.2184156E-005  0.7328451E+02  0.7561462E-02  0.1349267E+00
         -2   -1    0    0    0  501 -0.00000000000E+00  0.00000000000E+00  0.19652047119E+02  0.19652047119E+02  0.00000000000E+00 0.  1.
          2   -1    0    0  501    0  0.00000000000E+00 -0.00000000000E+00 -0.22868683074E+04  0.22868683074E+04  0.00000000000E+00 0. -1.
         23    2    1    2    0    0 -0.31463227111E+02  0.14472805310E+02 -0.22670616633E+04  0.22702004356E+04  0.11420173305E+03 0.  0.
          5    1    3    3  502    0  0.14922704527E+01 -0.43997642927E+02 -0.53150268401E+03  0.53333909941E+03  0.41800000000E+01 0.  1.
         -5    1    3    3    0  502 -0.32955497564E+02  0.58470448237E+02 -0.17355589793E+04  0.17368613362E+04  0.41800000000E+01 0. -1.
        -11    1    1    2    0    0  0.19179646322E+02 -0.11831724570E+02 -0.45853499307E+01  0.22997260127E+02  0.00000000000E+00 0. -1.
         11    1    1    2    0    0  0.12283580789E+02 -0.26410807397E+01  0.44307529832E+01  0.13322658761E+02  0.00000000000E+00 0.  1.
</event>
<event>
 7    1  0.2184156E-005  0.1342671E+03  0.7561462E-02  0.1221258E+00
          1   -1    0    0  501    0  0.00000000000E+00  0.00000000000E+00  0.10180703342E+04  0.10180703342E+04  0.00000000000E+00 0. -1.
         -1   -1    0    0    0  501 -0.00000000000E+00 -0.00000000000E+00 -0.29879749238E+02  0.29879749238E+02  0.00000000000E+00 0.  1.
         23    2    1    2    0    0 -0.61701583131E+02  0.40493833589E+02  0.14537221532E+03  0.18735809595E+03  0.92320849275E+02 0.  0.
          5    1    1    2  502    0  0.66439459991E+02 -0.96684308312E+02  0.55739255955E+03  0.56961916678E+03  0.41800000000E+01 0. -1.
         -5    1    1    2    0  502 -0.47378768600E+01  0.56190474722E+02  0.28542581011E+03  0.29097282073E+03  0.41800000000E+01 0.  1.
        -11    1    3    3    0    0 -0.32264696420E+02  0.53456432848E+02  0.33304112176E+02  0.70765561792E+02  0.00000000000E+00 0. -1.
         11    1    3    3    0    0 -0.29436886711E+02 -0.12962599259E+02  0.11206810314E+03  0.11659253416E+03  0.00000000000E+00 0.  1.
</event>
<event>
 8    1  0.2184156E-005  0.4505332E+03  0.7561462E-02  0.1027563E+00
         -2   -1    0    0    0  501 -0.00000000000E+00  0.00000000000E+00  0.59803908836E+03  0.59803908836E+03  0.00000000000E+00 0.  1.
          2   -1    0    0  501    0  0.00000000000E+00 -0.00000000000E+00 -0.75102398484E+03  0.75102398484E+03  0.00000000000E+00 0. -1.
         23    2    1    2    0    0  0.93539798783E+02  0.43922230689E+03  0.40981026616E+03  0.61827437919E+03  0.11248477623E+03 0.  0.
         23    2    1    2    0    0 -0.93539798783E+02 -0.43922230689E+03 -0.56279516264E+03  0.73078869402E+03  0.12509113234E+03 0.  0.
          5    1    4    4  502    0 -0.56743951174E+02 -0.24000066310E+03 -0.20999954627E+03  0.32394054411E+03  0.41800000000E+01 0.  1.
         -5    1    4    4    0  502 -0.36795847609E+02 -0.19922164378E+03 -0.35279561637E+03  0.40684814990E+03  0.41800000000E+01 0.  1.
        -11    1    3    3    0    0  0.56069620540E+02  0.14994698116E+03  0.83356794572E+02  0.18048893237E+03  0.00000000000E+00 0.  1.
         11    1    3    3    0    0  0.37470178243E+02  0.28927532573E+03  0.32645347159E+03  0.43778544682E+03  0.00000000000E+00 0. -1.
</event>
<event>
 8    1  0.2184156E-005  0.1934385E+03  0.7561462E-02  0.1155396E+00
         -4   -1    0    0    0  501 -0.00000000000E+00  0.00000000000E+00  0.14606082737E+03  0.14606082737E+03  0.00000000000E+00 0.  1.
          4   -1    0    0  501    0  0.00000000000E+00 -0.00000000000E+00 -0.26354497733E+03  0.26354497733E+03  0.00000000000E+00 0. -1.
         23    2    1    2    0    0  0.21126452206E+02 -0.15886774979E+03 -0.25387045458E+02  0.18641888844E+03  0.91772604763E+02 0.  0.
         23    2    1    2    0    0 -0.21126452206E+02  0.15886774979E+03 -0.92097104508E+02  0.22318691626E+03  0.12508090991E+03 0.  0.
          5    1    4    4  502    0 -0.71196974099E+02  0.68322416095E+02 -0.55925410785E+02  0.11349927592E+03  0.41800000000E+01 0.  1.
         -5    1    4    4    0  502  0.50070521893E+02  0.90545333695E+02 -0.36171693723E+02  0.10968764034E+03  0.41800000000E+01 0.  1.
        -11    1    3    3    0    0  0.50828730910E+02 -0.48461226996E+02 -0.63813137632E+01  0.70517881230E+02  0.00000000000E+00 0.  1.
         11    1    3    3    0    0 -0.29702278704E+02 -0.11040652279E+03 -0.19005731695E+02  0.11590100721E+03  0.00000000000E+00 0. -1.
</event>
<event>
 8    1  0.2184156E-005  0.2221391E+03  0.7561462E-02  0.1132298E+00
          2   -1    0    0  501    0  0.00000000000E+00  0.00000000000E+00  0.36957349880E+04  0.36957349880E+04  0.00000000000E+00 0.  1.
         -2   -1    0    0    0  501 -0.00000000000E+00 -0.00000000000E+00 -0.20220825171E+02  0.20220825171E+02  0.00000000000E+00 0. -1.
         23    2    1    2    0    0  0.81982984948E+02 -0.18397018332E+03  0.77435613980E+03  0.80512528173E+03  0.89627283098E+02 0.  0.
         23    2    1    2    0    0 -0.81982984948E+02  0.18397018332E+03  0.29011580230E+04  0.29108305314E+04  0.12510103905E+03 0.  0.
          5    1    4    4  502    0 -0.11460907537E+03  0.14247482959E+03  0.21165142792E+04  0.21244021473E+04  0.41800000000E+01 0.  1.
         -5    1    4    4    0  502  0.32626090418E+02  0.41495353729E+02  0.78464374388E+03  0.78642838413E+03  0.41800000000E+01 0.  1.
        -11    1    3    3    0    0  0.62015699039E+02 -0.73494795024E+02  0.22966084046E+03  0.24898099017E+03  0.00000000000E+00 0.  1.
         11    1    3    3    0    0  0.19967285909E+02 -0.11047538829E+03  0.54469529933E+03  0.55614429157E+03  0.00000000000E+00 0. -1.
</event>
<event>
 8    1  0.2184156E-005  0.9769504E+02  0.7561462E-02  0.1285219E+00
          1   -1    0    0  501    0  0.00000000000E+00  0.00000000000E+00  0.10601086394E+04  0.10601086394E+04  0.00000000000E+00 0. -1.
         -1   -1    0    0    0  501 -0.00000000000E+00 -0.00000000000E+00 -0.15510274101E+02  0.15510274101E+02  0.00000000000E+00 0.  1.
         23    2    1    2    0    0 -0.17198345456E+02 -0.35164104219E+02  0.23110097213E+03  0.25162989007E+03  0.91529475828E+02 0.  0.
         23    2    1    2    0    0  0.17198345456E+02  0.35164104219E+02  0.81349739314E+03  0.82398902340E+03  0.12509038623E+03 0.  0.
          5    1    4    4  502    0  0.53734164275E+02 -0.13517582921E+02  0.20355229637E+03  0.21100022563E+03  0.41800000000E+01 0. -1.
         -5    1    4    4    0  502 -0.36535818819E+02  0.48681687140E+02  0.60994509677E+03  0.61298879777E+03  0.41800000000E+01 0. -1.
        -11    1    3    3    0    0  0.23056776042E+02  0.31127839274E+01  0.13178090768E+02  0.26738856025E+02  0.00000000000E+00 0.  1.
         11    1    3    3    0    0 -0.40255121498E+02 -0.38276888146E+02  0.21792288136E+03  0.22489103404E+03  0.00000000000E+00 0. -1.
</event>
<event>
 8    1  0.2184156E-005  0.6512844E+02  0.7561462E-02  0.1377489E+00
         -2   -1    0    0    0  501 -0.00000000000E+00  0.00000000000E+00  0.15608593283E+03  0.15608593283E+03  0.00000000000E+00 0.  1.
          2   -1    0    0  501    0  0.00000000000E+00 -0.00000000000E+00 -0.13139174391E+03  0.13139174391E+03  0.00000000000E+00 0. -1.
         23    2    1    2    0    0 -0.22187210338E+02  0.36442313661E+02  0.93600196987E+02  0.13843184463E+03  0.92639431145E+02 0.  0.
         23    2    1    2    0    0  0.22187210338E+02 -0.36442313661E+02 -0.68906008068E+02  0.14904583212E+03  0.12508520135E+03 0.  0.
          5    1    4    4  502    0  0.12692927492E+02 -0.29671590029E+02  0.33025388059E+02  0.46364451034E+02  0.41800000000E+01 0.  1.
         -5    1    4    4    0  502  0.94942828457E+01 -0.67707236312E+01 -0.10193139613E+03  0.10268138109E+03  0.41800000000E+01 0.  1.
        -11    1    3    3    0    0  0.26758771757E+02  0.20960960113E+02  0.77506296871E+02  0.84632261989E+02  0.00000000000E+00 0.  1.
         11    1    3    3    0    0 -0.48945982094E+02  0.15481353548E+02  0.16093900116E+02  0.53799582636E+02  0.00000000000E+00 0. -1.
</event>
<event>
 8    1  0.2184156E-005  0.1184757E+03  0.7561462E-02  0.1245633E+00
         -4   -1    0    0    0  501 -0.00000000000E+00  0.00000000000E+00  0.11977774744E+03  0.11977774744E+03  0.00000000000E+00 0.  1.
          4   -1    0    0  501    0  0.00000000000E+00 -0.00000000000E+00 -0.15613673146E+03  0.15613673146E+03  0.00000000000E+00 0. -1.
         23    2    1    2    0    0  0.24115860301E+02  0.75776748103E+02  0.92998254431E+01  0.12081420971E+03  0.90475942893E+02 0.  0.
         23    2    1    2    0    0 -0.24115860301E+02 -0.75776748103E+02 -0.45658809468E+02  0.15510026920E+03  0.12509067252E+03 0.  0.
          5    1    4    4  502    0 -0.55335103071E+02 -0.74359076658E+02  0.77212145737E+01  0.93103896093E+02  0.41800000000E+01 0.  1.
         -5    1    4    4    0  502  0.31219242770E+02 -0.14176714452E+01 -0.53380024042E+02  0.61996373105E+02  0.41800000000E+01 0.  1.
        -11    1    3    3    0    0 -0.18024914410E+02  0.67276144864E+02  0.26488184069E+02  0.74515777541E+02  0.00000000000E+00 0. -1.
         11    1    3    3    0    0  0.42140774711E+02  0.85006032392E+01 -0.17188358626E+02  0.46298432165E+02  0.00000000000E+00 0.  1.
</event>
<event>
 8    1  0.2184156E-005  0.8427082E+02  0.7561462E-02  0.1317350E+00
          2   -1    0    0  501    0  0.00000000000E+00  0.00000000000E+00  0.62013429842E+03  0.62013429842E+03  0.00000000000E+00 0. -1.
         -2   -1    0    0    0  501 -0.00000000000E+00 -0.00000000000E+00 -0.17446205595E+02  0.17446205595E+02  0.00000000000E+00 0.  1.
         23    2    1    2    0    0 -0.78171642343E+01  0.33064416944E+02  0.21413893042E+03  0.23159164476E+03  0.81393148829E+02 0.  0.
         23    2    1    2    0    0  0.78171642343E+01 -0.33064416944E+02  0.38854916240E+03  0.40598885925E+03  0.11270376440E+03 0.  0.
          5    1    4    4  502    0  0.34291714781E+02 -0.40556197582E+02  0.36685299382E+03  0.37070111726E+03  0.41800000000E+01 0. -1.
         -5    1    4    4    0  502 -0.26474550546E+02  0.74917806378E+01  0.21696168584E+02  0.35287741993E+02  0.41800000000E+01 0.  1.
        -11    1    3    3    0    0  0.22637451350E+02 -0.17361251924E+02  0.56242199739E+02  0.63063874790E+02  0.00000000000E+00 0. -1.
         11    1    3    3    0    0 -0.30454615584E+02  0.50425668868E+02  0.15789673068E+03  0.16852776997E+03  0.00000000000E+00 0.  1.
</event>
<event>
 8    1  0.2184156E-005  0.1171283E+03  0.7561462E-02  0.1247911E+00
         -2   -1    0    0    0  501 -0.00000000000E+00  0.00000000000E+00  0.46930931512E+03  0.46930931512E+03  0.00000000000E+00 0.  1.
          2   -1    0    0  501    0  0.00000000000E+00 -0.00000000000E+00 -0.51079636300E+02  0.51079636300E+02  0.00000000000E+00 0. -1.
         23    2    1    2    0    0 -0.78116890801E+02 -0.73284410594E+02  0.23928966239E+03  0.27720168639E+03  0.90046537666E+02 0.  0.
         23    2    1    2    0    0  0.78116890801E+02  0.73284410594E+02  0.17894001643E+03  0.24318726503E+03  0.12509061887E+03 0.  0.
          5    1    4    4  502    0 -0.67225876337E+01 -0.49676750653E+01 -0.14876978336E+02  0.17568946025E+02  0.41800000000E+01 0. -1.
         -5    1    4    4    0  502  0.84839478435E+02  0.78252085659E+02  0.19381699476E+03  0.22561831900E+03  0.41800000000E+01 0. -1.
        -11    1    3    3    0    0 -0.29111282019E+02 -0.13426354047E+02  0.17110377229E+03  0.17408111504E+03  0.00000000000E+00 0.  1.
         11    1    3    3    0    0 -0.49005608782E+02 -0.59858056547E+02  0.68185890105E+02  0.10312057135E+03  0.00000000000E+00 0. -1.
</event>
<event>
 8    1  0.2184156E-005  0.1112662E+03  0.7561462E-02  0.1258243E+00
         -1   -1    0    0    0  501 -0.00000000000E+00  0.00000000000E+00  0.32234846960E+02  0.32234846960E+02  0.00000000000E+00 0.  1.
          1   -1    0    0  501    0  0.00000000000E+00 -0.00000000000E+00 -0.43430512048E+03  0.43430512048E+03  0.00000000000E+00 0. -1.
         23    2    1    2    0    0 -0.39731912772E+02  0.43156461996E+02 -0.16306576016E+03  0.19047481552E+03  0.79051300467E+02 0.  0.
         23    2    1    2    0    0  0.39731912772E+02 -0.43156461996E+02 -0.23900451335E+03  0.27606515192E+03  0.12509078941E+03 0.  0.
          5    1    4    4  502    0  0.26002036031E+02 -0.80796939910E+02 -0.99450785188E+02  0.13081354078E+03  0.41800000000E+01 0.  1.
         -5    1    4    4    0  502  0.13729876742E+02  0.37640477914E+02 -0.13955372817E+03  0.14525161114E+03  0.41800000000E+01 0.  1.
        -11    1    3    3    0    0 -0.56182444814E+02  0.53708153755E+02 -0.11733348183E+03  0.14074153205E+03  0.00000000000E+00 0.  1.
         11    1    3    3    0    0  0.16450532041E+02 -0.10551691759E+02 -0.45732278335E+02  0.49733283474E+02  0.00000000000E+00 0. -1.
</event>
<event>
 8    1  0.2184156E-005  0.9391302E+02  0.7561462E-02  0.1293643E+00
         -1   -1    0    0    0  501 -0.00000000000E+00  0.00000000000E+00  0.32033107179E+02  0.32033107179E+02  0.00000000000E+00 0.  1.
          1   -1    0    0  501    0  0.00000000000E+00 -0.00000000000E+00 -0.62011875770E+03  0.62011875770E+03  0.00000000000E+00 0. -1.
         23    2    1    2    0    0 -0.40367635645E+02 -0.90998736926E+01 -0.87430201752E+02  0.13444899808E+03  0.93381685556E+02 0.  0.
         23    2    1    2    0    0  0.40367635645E+02  0.90998736926E+01 -0.50065544877E+03  0.51770286680E+03  0.12509207090E+03 0.  0.
          5    1    4    4  502    0  0.27384428976E+02  0.62674576453E+02 -0.36207795138E+03  0.36850498607E+03  0.41800000000E+01 0.  1.
         -5    1    4    4    0  502  0.12983206669E+02 -0.53574702761E+02 -0.13857749739E+03  0.14919788073E+03  0.41800000000E+01 0.  1.
        -11    1    3    3    0    0 -0.40146175840E+02 -0.25537117820E+02 -0.21817347581E+01  0.47630030314E+02  0.00000000000E+00 0.  1.
         11    1    3    3    0    0 -0.22145980465E+00  0.16437244127E+02 -0.85248466994E+02  0.86818967765E+02  0.00000000000E+00 0. -1.
</event>
<event>
 8    1  0.2184156E-005  0.1488838E+03  0.7561462E-02  0.1201851E+00
          1   -1    0    0  501    0  0.00000000000E+00  0.00000000000E+00  0.17686785840E+03  0.17686785840E+03  0.00000000000E+00 0. -1.
         -1   -1    0    0    0  501 -0.00000000000E+00 -0.00000000000E+00 -0.17770462021E+03  0.17770462021E+03  0.00000000000E+00 0.  1.
         23    2    1    2    0    0 -0.11498665023E+03  0.57699699420E+02 -0.55345868638E+02  0.16704623127E+03  0.91049948723E+02 0.  0.
         23    2    1    2    0    0  0.11498665023E+03 -0.57699699420E+02  0.54509106836E+02  0.18752624734E+03  0.12507464039E+03 0.  0.
          5    1    4    4  502    0  0.28555817217E+02 -0.75046311992E+02 -0.58333217497E+01  0.80615654082E+02  0.41800000000E+01 0.  1.
         -5    1    4    4    0  502  0.86430833012E+02  0.17346612571E+02  0.60342428586E+02  0.10691059326E+03  0.41800000000E+01 0.  1.
        -11    1    3    3    0    0 -0.85396247456E+02  0.48047217058E+02 -0.80670346184E+02  0.12692028561E+03  0.00000000000E+00 0.  1.
         11    1    3    3    0    0 -0.29590402773E+02  0.96524823627E+01  0.25324477546E+02  0.40125945659E+02  0.00000000000E+00 0. -1.
</event>
<event>
 8    1  0.2184156E-005  0.1506700E+03  0.7561462E-02  0.1199652E+00
         -2   -1    0    0    0  501 -0.00000000000E+00  0.00000000000E+00  0.23392682305E+02  0.23392682305E+02  0.00000000000E+00 0. -1.
          2   -1    0    0  501    0  0.00000000000E+00 -0.00000000000E+00 -0.15174015408E+04  0.15174015408E+04  0.00000000000E+00 0.  1.
         23    2    1    2    0    0  0.69263073708E+02  0.97205113241E+02 -0.31530189791E+03  0.34947388200E+03  0.92035319076E+02 0.  0.
         23    2    1    2    0    0 -0.69263073708E+02 -0.97205113241E+02 -0.11787069606E+04  0.11913203411E+04  0.12509136170E+03 0.  0.
          5    1    4    4  502    0  0.25120499835E+02 -0.24610553781E+02 -0.10063561294E+03  0.10668513421E+03  0.41800000000E+01 0. -1.
         -5    1    4    4    0  502 -0.94383573543E+02 -0.72594559460E+02 -0.10780713476E+04  0.10846352069E+04  0.41800000000E+01 0. -1.
        -11    1    3    3    0    0 -0.17847529306E+02  0.23624504024E+01 -0.71732586800E+02  0.73957281476E+02  0.00000000000E+00 0.  1.
         11    1    3    3    0    0  0.87110603015E+02  0.94842662839E+02 -0.24356931111E+03  0.27551660053E+03  0.00000000000E+00 0. -1.
</event>
<event>
 7    1  0.2184156E-005  0.3199253E+03  0.7561462E-02  0.1075684E+00
          2   -1    0    0  501    0  0.00000000000E+00  0.00000000000E+00  0.32176609476E+03  0.32176609476E+03  0.00000000000E+00 0. -1.
         -2   -1    0    0    0  501 -0.00000000000E+00 -0.00000000000E+00 -0.34347161850E+03  0.34347161850E+03  0.00000000000E+00 0.  1.
         23    2    1    2    0    0 -0.15281864776E+03  0.11384007342E+03 -0.34707205011E+02  0.21419321393E+03  0.91438730264E+02 0.  0.
          5    1    1    2  502    0  0.27940339565E+03 -0.35045322246E+02  0.71927089960E+02  0.29066374177E+03  0.41800000000E+01 0. -1.
         -5    1    1    2    0  502 -0.12658474789E+03 -0.78794751173E+02 -0.58925408684E+02  0.16038075757E+03  0.41800000000E+01 0.  1.
        -11    1    3    3    0    0  0.70439959458E+01  0.25418625807E+02  0.59447444124E+01  0.27038202657E+02  0.00000000000E+00 0.  1.
         11    1    3    3    0    0 -0.15986264371E+03  0.88421447613E+02 -0.40651949424E+02  0.18715501127E+03  0.00000000000E+00 0. -1.
</event>
<event>
 8    1  0.2184156E-005  0.1112199E+03  0.7561462E-02  0.1258327E+00
          1   -1    0    0  501    0  0.00000000000E+00  0.00000000000E+00  0.51603113098E+03  0.51603113098E+03  0.00000000000E+00 0. -1.
         -1   -1    0    0    0  501 -0.00000000000E+00 -0.00000000000E+00 -0.54942231248E+02  0.54942231248E+02  0.00000000000E+00 0.  1.
         23    2    1    2    0    0 -0.50553720262E+02  0.25078544716E+02  0.77276199107E+01  0.97190685567E+02  0.78750880719E+02 0.  0.
         23    2    1    2    0    0  0.50553720262E+02 -0.25078544716E+02  0.45336127983E+03  0.47378267667E+03  0.12549487091E+03 0.  0.
          5    1    4    4  502    0 -0.21172969941E+02 -0.46800720654E+02  0.28247858951E+03  0.28714147739E+03  0.41800000000E+01 0. -1.
         -5    1    4    4    0  502  0.71726690203E+02  0.21722175938E+02  0.17088269032E+03  0.18664119927E+03  0.41800000000E+01 0. -1.
        -11    1    3    3    0    0 -0.60217066303E+02 -0.85790886773E+01  0.11728248955E+02  0.61945521713E+02  0.00000000000E+00 0. -1.
         11    1    3    3    0    0  0.96633460413E+01  0.33657633393E+02 -0.40006290445E+01  0.35245163854E+02  0.00000000000E+00 0.  1.
</event>
<event>
 8    1  0.2184156E-005  0.1306410E+03  0.7561462E-02  0.1226508E+00
          1   -1    0    0  501    0  0.00000000000E+00  0.00000000000E+00  0.36027291739E+03  0.36027291739E+03  0.00000000000E+00 0. -1.
         -1   -1    0    0    0  501 -0.00000000000E+00 -0.00000000000E+00 -0.12724579174E+03  0.12724579174E+03  0.00000000000E+00 0.  1.
         23    2    1    2    0    0  0.10604802279E+03 -0.74635960214E+02 -0.37164348015E+02  0.16276211616E+03  0.91069248376E+02 0.  0.
         23    2    1    2    0    0 -0.10604802279E+03  0.74635960214E+02  0.27019147366E+03  0.32475659297E+03  0.12508678005E+03 0.  0.
          5    1    4    4  502    0 -0.25509396804E+02  0.15477584782E+02 -0.62564173749E+01  0.30771742140E+02  0.41800000000E+01 0.  1.
         -5    1    4    4    0  502 -0.80538625983E+02  0.59158375432E+02  0.27644789103E+03  0.29398485083E+03  0.41800000000E+01 0.  1.
        -11    1    3    3    0    0  0.88282358573E+02 -0.70285044662E+02  0.89048531047E+01  0.11319478233E+03  0.00000000000E+00 0. -1.
         11    1    3    3    0    0  0.17765664214E+02 -0.43509155521E+01 -0.46069201120E+02  0.49567333830E+02  0.00000000000E+00 0.  1.
</event>
<event>
 8    1  0.2184156E-005  0.1752789E+03  0.7561462E-02  0.1172452E+00
          2   -1    0    0  501    0  0.00000000000E+00  0.00000000000E+00  0.32209246076E+03  0.32209246076E+03  0.00000000000E+00 0. -1.
         -2   -1    0    0    0  501 -0.00000000000E+00 -0.00000000000E+00 -0.10570657094E+03  0.10570657094E+03  0.00000000000E+00 0.  1.
         23    2    1    2    0    0 -0.14213012033E+03 -0.20801634288E+02  0.57160461979E+02  0.17953935566E+03  0.91287363443E+02 0.  0.
         23    2    1    2    0    0  0.14213012033E+03  0.20801634288E+02  0.15922542784E+03  0.24825967604E+03  0.12508577371E+03 0.  0.
          5    1    4    4  502    0  0.48527355238E+02  0.61899553671E+02  0.10846421239E+03  0.13404632304E+03  0.41800000000E+01 0.  1.
         -5    1    4    4    0  502  0.93602765092E+02 -0.41097919383E+02  0.50761215449E+02  0.11421335300E+03  0.41800000000E+01 0.  1.
        -11    1    3    3    0    0 -0.14231059555E+03  0.62303367334E+01  0.41827066052E+02  0.14846085732E+03  0.00000000000E+00 0. -1.
         11    1    3    3    0    0  0.18047522110E+00 -0.27031971021E+02  0.15333395927E+02  0.31078498343E+02  0.00000000000E+00 0.  1.
</event>
<event>
 8    1  0.2184156E-005  0.1594830E+03  0.7561462E-02  0.1189282E+00
          2   -1    0    0  501    0  0.00000000000E+00  0.00000000000E+00  0.84955455674E+03  0.84955455674E+03  0.00000000000E+00 0. -1.
         -2   -1    0    0    0  501 -0.00000000000E+00 -0.00000000000E+00 -0.36802582102E+02  0.36802582102E+02  0.00000000000E+00 0.  1.
         23    2    1    2    0    0 -0.27220218907E+02  0.12173855701E+03  0.22049114408E+03  0.26832149173E+03  0.88424327681E+02 0.  0.
         23    2    1    2    0    0  0.27220218907E+02 -0.12173855701E+03  0.59226083056E+03  0.61803564712E+03  0.12503580730E+03 0.  0.
          5    1    4    4  502    0 -0.35841883975E+02 -0.98935615090E+02  0.42336602594E+03  0.43626730441E+03  0.41800000000E+01 0. -1.
         -5    1    4    4    0  502  0.63062102882E+02 -0.22802941925E+02  0.16889480462E+03  0.18176834270E+03  0.41800000000E+01 0. -1.
        -11    1    3    3    0    0  0.21208883955E+02  0.79257675832E+02  0.84153839309E+02  0.11753069645E+03  0.00000000000E+00 0.  1.
         11    1    3    3    0    0 -0.48429102863E+02  0.42480881182E+02  0.13633730477E+03  0.15079079528E+03  0.00000000000E+00 0. -1.
</event>
<event>
 8    1  0.2184156E-005  0.1001201E+03  0.7561462E-02  0.1280044E+00
          2   -1    0    0  501    0  0.00000000000E+00  0.00000000000E+00  0.76076021874E+02  0.76076021874E+02  0.00000000000E+00 0. -1.
         -2   -1    0    0    0  501 -0.00000000000E+00 -0.00000000000E+00 -0.16767789277E+03  0.16767789277E+03  0.00000000000E+00 0.  1.
         23    2    1    2    0    0  0.45376498776E+02 -0.12249993571E+02 -0.72396542489E+02  0.11140557411E+03  0.70433327306E+02 0.  0.
         23    2    1    2    0    0 -0.45376498776E+02  0.12249993571E+02 -0.19205328402E+02  0.13234834053E+03  0.12222172318E+03 0.  0.
          5    1    4    4  502    0 -0.39139144794E+02  0.57757421687E+02  0.19028964590E+02  0.72438707253E+02  0.41800000000E+01 0. -1.
         -5    1    4    4    0  502 -0.62373539823E+01 -0.45507428116E+02 -0.38234292992E+02  0.59909633274E+02  0.41800000000E+01 0.  1.
        -11    1    3    3    0    0  0.24967822226E+02  0.28959422715E+02 -0.27175098383E+02  0.46909767457E+02  0.00000000000E+00 0. -1.
         11    1    3    3    0    0  0.20408676550E+02 -0.41209416286E+02 -0.45221444107E+02  0.64495806656E+02  0.00000000000E+00 0.  1.
</event>
<event>
 8    1  0.2184156E-005  0.7801464E+02  0.7561462E-02  0.1334782E+00
         -2   -1    0    0    0  501 -0.00000000000E+00  0.00000000000E+00  0.51428746866E+03  0.51428746866E+03  0.00000000000E+00 0.  1.
          2   -1    0    0  501    0  0.00000000000E+00 -0.00000000000E+00 -0.22210286811E+02  0.22210286811E+02  0.00000000000E+00 0. -1.
         23    2    1    2    0    0 -0.34652911496E+02  0.13218488590E+02  0.20486166606E+03  0.22103995540E+03  0.74261746197E+02 0.  0.
         23    2    1    2    0    0  0.34652911496E+02 -0.13218488590E+02  0.28721551579E+03  0.31545780007E+03  0.12508124719E+03 0.  0.
          5    1    4    4  502    0  0.53548031060E+02 -0.23349515232E+02  0.49335849481E+02  0.76577346102E+02  0.41800000000E+01 0.  1.
         -5    1    4    4    0  502 -0.18895119564E+02  0.10131026642E+02  0.23787966631E+03  0.23888045397E+03  0.41800000000E+01 0.  1.
        -11    1    3    3    0    0  0.18429363767E+02  0.12970769195E+02  0.11047665426E+03  0.11275182233E+03  0.00000000000E+00 0.  1.
         11    1    3    3    0    0 -0.53082275262E+02  0.24771939482E+00  0.94385011797E+02  0.10828813307E+03  0.00000000000E+00 0. -1.
</event>
<event>
 8    1  0.2191121E-005  0.1429599E+03  0.7561462E-02  0.1209401E+00
          2   -1    0    0  501    0  0.00000000000E+00  0.00000000000E+00  0.56934858496E+03  0.56934858496E+03  0.00000000000E+00 0. -1.
         -2   -1    0    0    0  501 -0.00000000000E+00 -0.00000000000E+00 -0.39665043105E+02  0.39665043105E+02  0.00000000000E+00 0.  1.
         23    2    1    2    0    0  0.70756158818E+02 -0.76839867133E+02  0.24479752790E+03  0.28080880206E+03  0.89537447229E+02 0.  0.
         23    2    1    2    0    0 -0.70756158818E+02  0.76839867133E+02  0.28488601396E+03  0.32820482601E+03  0.12509023813E+03 0.  0.
          5    1    4    4  502    0 -0.74660607951E+02  0.10591854718E+03  0.25525800683E+03  0.28629891279E+03  0.41800000000E+01 0. -1.
         -5    1    4    4    0  502  0.39044491338E+01 -0.29078680043E+02  0.29628007132E+02  0.41905913219E+02  0.41800000000E+01 0. -1.
        -11    1    3    3    0    0 -0.14685201964E+02 -0.16139695689E+02  0.98223646421E+02  0.10061823716E+03  0.00000000000E+00 0. -1.
         11    1    3    3    0    0  0.85441360781E+02 -0.60700171444E+02  0.14657388148E+03  0.18019056489E+03  0.00000000000E+00 0.  1.
</event>
<event>
 8    1  0.2184156E-005  0.1913990E+03  0.7561462E-02  0.1157206E+00
         -2   -1    0    0    0  501 -0.00000000000E+00  0.00000000000E+00  0.17131721351E+03  0.17131721351E+03  0.00000000000E+00 0.  1.
          2   -1    0    0  501    0  0.00000000000E+00 -0.00000000000E+00 -0.25161862758E+03  0.25161862758E+03  0.00000000000E+00 0. -1.
         23    2    1    2    0    0  0.48086440914E+02  0.16856605572E+03 -0.56182844236E+02  0.20624382561E+03  0.93022484772E+02 0.  0.
         23    2    1    2    0    0 -0.48086440914E+02 -0.16856605572E+03 -0.24118569834E+02  0.21669201549E+03  0.12508758221E+03 0.  0.
          5    1    4    4  502    0 -0.57233074432E+02 -0.85046359698E+02 -0.66734260461E+02  0.12239053079E+03  0.41800000000E+01 0.  1.
         -5    1    4    4    0  502  0.91466335172E+01 -0.83519696027E+02  0.42615690627E+02  0.94301484701E+02  0.41800000000E+01 0.  1.
        -11    1    3    3    0    0 -0.14320769912E+02  0.10856791502E+03 -0.15532302203E+02  0.11060438072E+03  0.00000000000E+00 0.  1.
         11    1    3    3    0    0  0.62407210827E+02  0.59998140704E+02 -0.40650542033E+02  0.95639444889E+02  0.00000000000E+00 0. -1.
</event>
<event>
 8    1  0.2184156E-005  0.1155151E+03  0.7561462E-02  0.1250685E+00
          2   -1    0    0  501    0  0.00000000000E+00  0.00000000000E+00  0.59391093601E+03  0.59391093601E+03  0.00000000000E+00 0. -1.
         -2   -1    0    0    0  501 -0.00000000000E+00 -0.00000000000E+00 -0.25049244775E+02  0.25049244775E+02  0.00000000000E+00 0.  1.
         23    2    1    2    0    0  0.50981695306E+02  0.19254127894E+02  0.20829193596E+03  0.23343878649E+03  0.90212425706E+02 0.  0.
         23    2    1    2    0    0 -0.50981695306E+02 -0.19254127894E+02  0.36056975527E+03  0.38552139430E+03  0.12508534026E+03 0.  0.
          5    1    4    4  502    0 -0.90633787791E+02 -0.12432286142E+02  0.20057568586E+03  0.22049291005E+03  0.41800000000E+01 0.  1.
         -5    1    4    4    0  502  0.39652092485E+02 -0.68218417522E+01  0.15999406942E+03  0.16502848425E+03  0.41800000000E+01 0.  1.
        -11    1    3    3    0    0  0.34825102730E+01 -0.30217941195E+02  0.31402635618E+02  0.43719302049E+02  0.00000000000E+00 0.  1.
         11    1    3    3    0    0  0.47499185033E+02  0.49472069089E+02  0.17688930035E+03  0.18971948444E+03  0.00000000000E+00 0. -1.
</event>
<event>
 8    1  0.2184156E-005  0.1759405E+03  0.7561462E-02  0.1171791E+00
         -1   -1    0    0    0  501 -0.00000000000E+00  0.00000000000E+00  0.72872781130E+02  0.72872781130E+02  0.00000000000E+00 0.  1.
          1   -1    0    0  501    0  0.00000000000E+00 -0.00000000000E+00 -0.54582166369E+03  0.54582166369E+03  0.00000000000E+00 0. -1.
         23    2    1    2    0    0 -0.88386061435E+02 -0.14039262342E+03 -0.25370927062E+03  0.31664317429E+03  0.91500389401E+02 0.  0.
         23    2    1    2    0    0  0.88386061435E+02  0.14039262342E+03 -0.21923961194E+03  0.30205127053E+03  0.12508708172E+03 0.  0.
          5    1    4    4  502    0  0.17435121267E+02 -0.69925334958E+01  0.89782903286E+01  0.21235844120E+02  0.41800000000E+01 0.  1.
         -5    1    4    4    0  502  0.70950940168E+02  0.14738515692E+03 -0.22821790227E+03  0.28081542641E+03  0.41800000000E+01 0.  1.
        -11    1    3    3    0    0 -0.76204504516E+02 -0.93816103007E+02 -0.10422543709E+03  0.15959802451E+03  0.00000000000E+00 0.  1.
         11    1    3    3    0    0 -0.12181556919E+02 -0.46576520418E+02 -0.14948383353E+03  0.15704514978E+03  0.00000000000E+00 0. -1.
</event>
<event>
 8    1  0.2184156E-005  0.1012119E+03  0.7561462E-02  0.1277768E+00
         -1   -1    0    0    0  501 -0.00000000000E+00  0.00000000000E+00  0.26770344269E+02  0.26770344269E+02  0.00000000000E+00 0.  1.
          1   -1    0    0  501    0  0.00000000000E+00 -0.00000000000E+00 -0.65870759075E+03  0.65870759075E+03  0.00000000000E+00 0. -1.
         23    2    1    2    0    0  0.13054309154E+02 -0.14537279812E+02 -0.10400543818E+03  0.14257557836E+03  0.95545365580E+02 0.  0.
         23    2    1    2    0    0 -0.13054309154E+02  0.14537279812E+02 -0.52793180830E+03  0.54290235665E+03  0.12509687107E+03 0.  0.
          5    1    4    4  502    0  0.42907421846E+02 -0.26029269866E+02 -0.13870173001E+03  0.14756087574E+03  0.41800000000E+01 0.  1.
         -5    1    4    4    0  502 -0.55961731000E+02  0.40566549678E+02 -0.38923007829E+03  0.39534148092E+03  0.41800000000E+01 0.  1.
        -11    1    3    3    0    0  0.13934570496E+02 -0.47675431683E+02 -0.22387182652E+02  0.54482152933E+02  0.00000000000E+00 0.  1.
         11    1    3    3    0    0 -0.88026134183E+00  0.33138151871E+02 -0.81618255524E+02  0.88093425432E+02  0.00000000000E+00 0. -1.
</event>
<event>
 8    1  0.2184156E-005  0.1004089E+03  0.7561462E-02  0.1279438E+00
          2   -1    0    0  501    0  0.00000000000E+00  0.00000000000E+00  0.10349141366E+04  0.10349141366E+04  0.00000000000E+00 0.  1.
         -2   -1    0    0    0  501 -0.00000000000E+00 -0.00000000000E+00 -0.56899716277E+02  0.56899716277E+02  0.00000000000E+00 0. -1.
         23    2    1    2    0    0  0.46619154987E+02 -0.80908201642E+02  0.46975741386E+02  0.14778046356E+03  0.10446464678E+03 0.  0.
         23    2    1    2    0    0 -0.46619154987E+02  0.80908201642E+02  0.93103867889E+03  0.94403338927E+03  0.12508611339E+03 0.  0.
          5    1    4    4  502    0 -0.59158236959E+01  0.59832184464E+02  0.83866835209E+03  0.84083111530E+03  0.41800000000E+01 0.  1.
         -5    1    4    4    0  502 -0.40703331292E+02  0.21076017178E+02  0.92370326799E+02  0.10320227396E+03  0.41800000000E+01 0.  1.
        -11    1    3    3    0    0  0.40385167455E+02 -0.57278288452E+02  0.80218563719E+02  0.10652127507E+03  0.00000000000E+00 0.  1.
         11    1    3    3    0    0  0.62339875325E+01 -0.23629913189E+02 -0.33242822332E+02  0.41259188486E+02  0.00000000000E+00 0. -1.
</event>
<event>
 8    1  0.2184156E-005  0.8269626E+02  0.7561462E-02  0.1321569E+00
          2   -1    0    0  501    0  0.00000000000E+00  0.00000000000E+00  0.93724436202E+02  0.93724436202E+02  0.00000000000E+00 0. -1.
         -2   -1    0    0    0  501 -0.00000000000E+00 -0.00000000000E+00 -0.16800904953E+03  0.16800904953E+03  0.00000000000E+00 0.  1.
         23    2    1    2    0    0 -0.75219962938E+01  0.41610264539E+02 -0.79766766659E+02  0.12957801863E+03  0.92950154947E+02 0.  0.
         23    2    1    2    0    0  0.75219962938E+01 -0.41610264539E+02  0.54821533360E+01  0.13215546710E+03  0.12508804474E+03 0.  0.
          5    1    4    4  502    0 -0.25126153120E+02 -0.11748274279E+02  0.57355747017E+02  0.63847471641E+02  0.41800000000E+01 0.  1.
         -5    1    4    4    0  502  0.32648149413E+02 -0.29861990260E+02 -0.51873593681E+02  0.68307995460E+02  0.41800000000E+01 0.  1.
        -11    1    3    3    0    0 -0.44721003760E+02  0.30301943758E+02 -0.71863625397E+02  0.89903040149E+02  0.00000000000E+00 0.  1.
         11    1    3    3    0    0  0.37199007466E+02  0.11308320780E+02 -0.79031412620E+01  0.39674978477E+02  0.00000000000E+00 0. -1.
</event>
<event>
 8    1  0.2184156E-005  0.1059269E+03  0.7561462E-02  0.1268304E+00
         -2   -1    0    0    0  501 -0.00000000000E+00  0.00000000000E+00  0.82649405113E+01  0.82649405113E+01  0.00000000000E+00 0.  1.
          2   -1    0    0  501    0  0.00000000000E+00 -0.00000000000E+00 -0.18933998479E+04  0.18933998479E+04  0.00000000000E+00 0. -1.
         23    2    1    2    0    0  0.41420310554E+02 -0.33704935577E+01 -0.58712199222E+03  0.59697609614E+03  0.99705683185E+02 0.  0.
         23    2    1    2    0    0 -0.41420310554E+02  0.33704935577E+01 -0.12980129152E+04  0.13046886923E+04  0.12509217980E+03 0.  0.
          5    1    4    4  502    0 -0.49932052543E+02 -0.37050641229E+02 -0.33286104095E+03  0.33864421576E+03  0.41800000000E+01 0. -1.
         -5    1    4    4    0  502  0.85117419883E+01  0.40421134786E+02 -0.96515187424E+03  0.96604447653E+03  0.41800000000E+01 0. -1.
        -11    1    3    3    0    0 -0.30514457308E+02  0.14666902580E+02 -0.18254715558E+03  0.18566021153E+03  0.00000000000E+00 0.  1.
         11    1    3    3    0    0  0.71934767862E+02 -0.18037396137E+02 -0.40457483664E+03  0.41131588461E+03  0.00000000000E+00 0. -1.
</event>
<event>
 8    1  0.2184156E-005  0.8262837E+02  0.7561462E-02  0.1321754E+00
          2   -1    0    0  501    0  0.00000000000E+00  0.00000000000E+00  0.56820936938E+03  0.56820936938E+03  0.00000000000E+00 0. -1.
         -2   -1    0    0    0  501 -0.00000000000E+00 -0.00000000000E+00 -0.31873463245E+02  0.31873463245E+02  0.00000000000E+00 0.  1.
         23    2    1    2    0    0 -0.64339850385E+02  0.13913759033E+02  0.19627679318E+03  0.23181916300E+03  0.10431843440E+03 0.  0.
         23    2    1    2    0    0  0.64339850385E+02 -0.13913759033E+02  0.34005911295E+03  0.36826366962E+03  0.12507885921E+03 0.  0.
          5    1    4    4  502    0  0.64951721972E+02 -0.35646047596E+01  0.61937498337E+02  0.89917510500E+02  0.41800000000E+01 0.  1.
         -5    1    4    4    0  502 -0.61187158726E+00 -0.10349154273E+02  0.27812161461E+03  0.27834615912E+03  0.41800000000E+01 0.  1.
        -11    1    3    3    0    0 -0.57107771073E+01 -0.20248896631E+02 -0.30501596130E+01  0.21258745579E+02  0.00000000000E+00 0.  1.
         11    1    3    3    0    0 -0.58629073278E+02  0.34162655664E+02  0.19932695280E+03  0.21056041743E+03  0.00000000000E+00 0. -1.
</event>
<event>
 8    1  0.2184156E-005  0.6223034E+02  0.7561462E-02  0.1388703E+00
          1   -1    0    0  501    0  0.00000000000E+00  0.00000000000E+00  0.67529445715E+02  0.67529445715E+02  0.00000000000E+00 0. -1.
         -1   -1    0    0    0  501 -0.00000000000E+00 -0.00000000000E+00 -0.19624764746E+03  0.19624764746E+03  0.00000000000E+00 0.  1.
         23    2    1    2    0    0 -0.28390952914E+01  0.19748366673E+02 -0.82157047710E+02  0.12882069915E+03  0.97195337294E+02 0.  0.
         23    2    1    2    0    0  0.28390952914E+01 -0.19748366673E+02 -0.46561154038E+02  0.13495639403E+03  0.12508888351E+03 0.  0.
          5    1    4    4  502    0  0.75511596102E+01 -0.65549902179E+01 -0.89212775632E+02  0.89868679996E+02  0.41800000000E+01 0.  1.
         -5    1    4    4    0  502 -0.47120643189E+01 -0.13193376455E+02  0.42651621594E+02  0.45087714037E+02  0.41800000000E+01 0.  1.
        -11    1    3    3    0    0 -0.42137479120E+02  0.37007660970E+02 -0.50754580505E+02  0.75638360369E+02  0.00000000000E+00 0.  1.
         11    1    3    3    0    0  0.39298383829E+02 -0.17259294298E+02 -0.31402467204E+02  0.53182338776E+02  0.00000000000E+00 0. -1.
</event>
<event>
 8    1  0.2184156E-005  0.1557733E+03  0.7561462E-02  0.1193553E+00
         -1   -1    0    0    0  501 -0.00000000000E+00  0.00000000000E+00  0.29170291295E+02  0.29170291295E+02  0.00000000000E+00 0.  1.
          1   -1    0    0  501    0  0.00000000000E+00 -0.00000000000E+00 -0.14602692315E+04  0.14602692315E+04  0.00000000000E+00 0. -1.
         23    2    1    2    0    0 -0.14318687278E+03 -0.28921184107E+02 -0.33818898061E+03  0.37974057550E+03  0.92153147772E+02 0.  0.
         23    2    1    2    0    0  0.14318687278E+03  0.28921184107E+02 -0.10929099596E+04  0.11096989473E+04  0.12506261804E+03 0.  0.
          5    1    4    4  502    0  0.25022013867E+02 -0.22773136009E+02 -0.62092828327E+02  0.70835786374E+02  0.41800000000E+01 0. -1.
         -5    1    4    4    0  502  0.11816485891E+03  0.51694320116E+02 -0.10308171313E+04  0.10388631609E+04  0.41800000000E+01 0. -1.
        -11    1    3    3    0    0 -0.46062305070E+02 -0.21980930179E+02 -0.22367893256E+03  0.22942790178E+03  0.00000000000E+00 0. -1.
         11    1    3    3    0    0 -0.97124567709E+02 -0.69402539289E+01 -0.11451004805E+03  0.15031267372E+03  0.00000000000E+00 0.  1.
</event>
<event>
 8    1  0.2184156E-005  0.1638072E+03  0.7561462E-02  0.1184464E+00
          1   -1    0    0  501    0  0.00000000000E+00  0.00000000000E+00  0.58545039694E+03  0.58545039694E+03  0.00000000000E+00 0. -1.
         -1   -1    0    0    0  501 -0.00000000000E+00 -0.00000000000E+00 -0.58541091508E+02  0.58541091508E+02  0.00000000000E+00 0.  1.
         23    2    1    2    0    0 -0.59587170582E+02  0.11455400680E+03  0.11937061929E+03  0.19861593531E+03  0.92334682745E+02 0.  0.
         23    2    1    2    0    0  0.59587170582E+02 -0.11455400680E+03  0.40753868614E+03  0.44537555313E+03  0.12489335954E+03 0.  0.
          5    1    4    4  502    0  0.93000652244E+02 -0.60847573767E+02  0.30696940112E+03  0.32649538155E+03  0.41800000000E+01 0. -1.
         -5    1    4    4    0  502 -0.33413481662E+02 -0.53706433035E+02  0.10056928502E+03  0.11888017158E+03  0.41800000000E+01 0.  1.
        -11    1    3    3    0    0 -0.67278380461E+02  0.40441699114E+02  0.34689772991E+02  0.85821278567E+02  0.00000000000E+00 0.  1.
         11    1    3    3    0    0  0.76912098791E+01  0.74112307687E+02  0.84680846300E+02  0.11279465675E+03  0.00000000000E+00 0. -1.
</event>
<event>
 8    1  0.2184156E-005  0.9715014E+02  0.7561462E-02  0.1286406E+00
         -1   -1    0    0    0  501 -0.00000000000E+00  0.00000000000E+00  0.54440788413E+02  0.54440788413E+02  0.00000000000E+00 0.  1.
          1   -1    0    0  501    0  0.00000000000E+00 -0.00000000000E+00 -0.29707216880E+03  0.29707216880E+03  0.00000000000E+00 0. -1.
         23    2    1    2    0    0 -0.17417398325E+02 -0.58884410765E+02 -0.14064400708E+03  0.17882636070E+03  0.91800822203E+02 0.  0.
         23    2    1    2    0    0  0.17417398325E+02  0.58884410765E+02 -0.10198737330E+03  0.17268659651E+03  0.12509395152E+03 0.  0.
          5    1    4    4  502    0  0.42432766566E+02  0.36101473729E+01 -0.10334779321E+03  0.11185620950E+03  0.41800000000E+01 0.  1.
         -5    1    4    4    0  502 -0.25015368241E+02  0.55274263392E+02  0.13604199060E+01  0.60830387013E+02  0.41800000000E+01 0.  1.
        -11    1    3    3    0    0  0.17597174694E+02 -0.52148892810E+02 -0.30220926869E+02  0.62789107330E+02  0.00000000000E+00 0.  1.
         11    1    3    3    0    0 -0.35014573018E+02 -0.67355179554E+01 -0.11042308021E+03  0.11603725337E+03  0.00000000000E+00 0. -1.
</event>
<event>
 8    1  0.2184156E-005  0.8633076E+02  0.7561462E-02  0.1311989E+00
          1   -1    0    0  501    0  0.00000000000E+00  0.00000000000E+00  0.14680950237E+03  0.14680950237E+03  0.00000000000E+00 0. -1.
         -1   -1    0    0    0  501 -0.00000000000E+00 -0.00000000000E+00 -0.10873314598E+03  0.10873314598E+03  0.00000000000E+00 0.  1.
         23    2    1    2    0    0 -0.33150250253E+02  0.15158505282E+02 -0.39315199657E+02  0.10399956813E+03  0.89115127068E+02 0.  0.
         23    2    1    2    0    0  0.33150250253E+02 -0.15158505282E+02  0.77391556047E+02  0.15154308022E+03  0.12508850004E+03 0.  0.
          5    1    4    4  502    0 -0.51334111465E+01 -0.33201149183E+02  0.98434448738E+02  0.10409361803E+03  0.41800000000E+01 0.  1.
         -5    1    4    4    0  502  0.38283661400E+02  0.18042643901E+02 -0.21042892690E+02  0.47449462188E+02  0.41800000000E+01 0.  1.
        -11    1    3    3    0    0 -0.60081314346E+02 -0.81881122073E+01 -0.24339524553E+02  0.65339283517E+02  0.00000000000E+00 0. -1.
         11    1    3    3    0    0  0.26931064092E+02  0.23346617490E+02 -0.14975675104E+02  0.38660284610E+02  0.00000000000E+00 0.  1.
</event>
<event>
 8    1  0.2184156E-005  0.8449383E+02  0.7561462E-02  0.1316762E+00
          2   -1    0    0  501    0  0.00000000000E+00  0.00000000000E+00  0.21733965091E+03  0.21733965091E+03  0.00000000000E+00 0. -1.
         -2   -1    0    0    0  501 -0.00000000000E+00 -0.00000000000E+00 -0.10363488479E+03  0.10363488479E+03  0.00000000000E+00 0.  1.
         23    2    1    2    0    0  0.70838500093E+01 -0.27825741952E+02 -0.55987686991E+02  0.10821233405E+03  0.88038828369E+02 0.  0.
         23    2    1    2    0    0 -0.70838500093E+01  0.27825741952E+02  0.16969245311E+03  0.21276220165E+03  0.12509105869E+03 0.  0.
          5    1    4    4  502    0  0.34310182485E+02  0.13721609830E+02  0.16435411549E+03  0.16850880949E+03  0.41800000000E+01 0. -1.
         -5    1    4    4    0  502 -0.41394032495E+02  0.14104132122E+02  0.53383376205E+01  0.44253392160E+02  0.41800000000E+01 0. -1.
        -11    1    3    3    0    0  0.43699693052E+02 -0.26751777226E+02 -0.15320329147E+02  0.53479278630E+02  0.00000000000E+00 0. -1.
         11    1    3    3    0    0 -0.36615843043E+02 -0.10739647263E+01 -0.40667357844E+02  0.54733055424E+02  0.00000000000E+00 0.  1.
</event>
<event>
 8    1  0.2184156E-005  0.1139053E+03  0.7561462E-02  0.1253504E+00
          3   -1    0    0  501    0  0.00000000000E+00  0.00000000000E+00  0.38457889956E+03  0.38457889956E+03  0.00000000000E+00 0. -1.
         -3   -1    0    0    0  501 -0.00000000000E+00 -0.00000000000E+00 -0.43128533237E+02  0.43128533237E+02  0.00000000000E+00 0.  1.
         23    2    1    2    0    0 -0.45060842149E+02 -0.49474134656E+02  0.18541791706E+03  0.21682328247E+03  0.90301508072E+02 0.  0.
         23    2    1    2    0    0  0.45060842149E+02  0.49474134656E+02  0.15603244926E+03  0.21088415032E+03  0.12509128723E+03 0.  0.
          5    1    4    4  502    0 -0.22361609421E+02 -0.22376036226E+02  0.80715799700E+02  0.86794246897E+02  0.41800000000E+01 0.  1.
         -5    1    4    4    0  502  0.67422451570E+02  0.71850170882E+02  0.75316649562E+02  0.12408990343E+03  0.41800000000E+01 0.  1.
        -11    1    3    3    0    0 -0.25280608014E+02 -0.66525531822E+02  0.17461696233E+03  0.18856256007E+03  0.00000000000E+00 0. -1.
         11    1    3    3    0    0 -0.19780234135E+02  0.17051397166E+02  0.10800954730E+02  0.28260722405E+02  0.00000000000E+00 0.  1.
</event>
<event>
 8    1  0.2184156E-005  0.1014296E+03  0.7561462E-02  0.1277318E+00
          1   -1    0    0  501    0  0.00000000000E+00  0.00000000000E+00  0.75873642781E+03  0.75873642781E+03  0.00000000000E+00 0. -1.
         -1   -1    0    0    0  501 -0.00000000000E+00 -0.00000000000E+00 -0.16670660324E+02  0.16670660324E+02  0.00000000000E+00 0.  1.
         23    2    1    2    0    0 -0.10690276729E+02  0.20005893992E+02  0.35989582303E+03  0.37264735282E+03  0.93949605225E+02 0.  0.
         23    2    1    2    0    0  0.10690276729E+02 -0.20005893992E+02  0.38216994446E+03  0.40275973532E+03  0.12508804951E+03 0.  0.
          5    1    4    4  502    0  0.53924188554E+02  0.15451252068E+02  0.28564956916E+03  0.29113520581E+03  0.41800000000E+01 0.  1.
         -5    1    4    4    0  502 -0.43233911825E+02 -0.35457146061E+02  0.96520375301E+02  0.11162452950E+03  0.41800000000E+01 0.  1.
        -11    1    3    3    0    0 -0.29294629434E+02 -0.27091031962E+02  0.22601217521E+03  0.22950730418E+03  0.00000000000E+00 0. -1.
         11    1    3    3    0    0  0.18604352705E+02  0.47096925954E+02  0.13388364781E+03  0.14314004864E+03  0.00000000000E+00 0.  1.
</event>
<event>
 7    1  0.2184156E-005  0.1411154E+03  0.7561462E-02  0.1211836E+00
          1   -1    0    0  501    0  0.00000000000E+00  0.00000000000E+00  0.15691819482E+03  0.15691819482E+03  0.00000000000E+00 0. -1.
         -1   -1    0    0    0  501 -0.00000000000E+00 -0.00000000000E+00 -0.47990023457E+03  0.47990023457E+03  0.00000000000E+00 0.  1.
         23    2    1    2    0    0  0.61037244924E+02  0.51960097354E+02  0.52656029586E+01  0.14866383944E+03  0.12509122110E+03 0.  0.
          5    1    3    3  502    0  0.20908666889E+02  0.63381920774E+02  0.52853954131E+02  0.85237627250E+02  0.41800000000E+01 0. -1.
         -5    1    3    3    0  502  0.40128578035E+02 -0.11421823420E+02 -0.47588351172E+02  0.63426212189E+02  0.41800000000E+01 0. -1.
        -11    1    1    2    0    0 -0.95049136315E+02  0.16979735539E+02  0.45390107257E+02  0.10669072860E+03  0.00000000000E+00 0. -1.
         11    1    1    2    0    0  0.34011891391E+02 -0.68939832892E+02 -0.37363774996E+03  0.38146386134E+03  0.00000000000E+00 0.  1.
</event>
<event>
 8    1  0.2184156E-005  0.1826003E+03  0.7561462E-02  0.1165310E+00
         -4   -1    0    0    0  501 -0.00000000000E+00  0.00000000000E+00  0.10141956057E+04  0.10141956057E+04  0.00000000000E+00 0.  1.
          4   -1    0    0  501    0  0.00000000000E+00 -0.00000000000E+00 -0.39093821891E+02  0.39093821891E+02  0.00000000000E+00 0. -1.
         23    2    1    2    0    0  0.15262386845E+03  0.66347642967E+02  0.48458700816E+03  0.52043972595E+03  0.91306543713E+02 0.  0.
         23    2    1    2    0    0 -0.15262386845E+03 -0.66347642967E+02  0.49051477562E+03  0.53284970160E+03  0.12501201723E+03 0.  0.
          5    1    4    4  502    0 -0.57756423692E+02 -0.76375130931E+02  0.35053996483E+03  0.36340707815E+03  0.41800000000E+01 0.  1.
         -5    1    4    4    0  502 -0.94867444759E+02  0.10027487963E+02  0.13997481078E+03  0.16944262346E+03  0.41800000000E+01 0.  1.
        -11    1    3    3    0    0  0.99444290564E+02  0.16167283003E+02  0.37791624843E+03  0.39111537785E+03  0.00000000000E+00 0.  1.
         11    1    3    3    0    0  0.53179577888E+02  0.50180359965E+02  0.10667075973E+03  0.12932434811E+03  0.00000000000E+00 0. -1.
</event>
<event>
 8    1  0.2184156E-005  0.1531855E+03  0.7561462E-02  0.1196612E+00
          2   -1    0    0  501    0  0.00000000000E+00  0.00000000000E+00  0.10917537980E+04  0.10917537980E+04  0.00000000000E+00 0. -1.
         -2   -1    0    0    0  501 -0.00000000000E+00 -0.00000000000E+00 -0.32251144468E+02  0.32251144468E+02  0.00000000000E+00 0.  1.
         23    2    1    2    0    0 -0.96223774559E+02  0.80688537684E+02  0.24261875275E+03  0.28811108835E+03  0.91512213060E+02 0.  0.
         23    2    1    2    0    0  0.96223774559E+02 -0.80688537684E+02  0.81688390081E+03  0.83589385415E+03  0.12509825377E+03 0.  0.
          5    1    4    4  502    0  0.31708577659E+02 -0.10314826479E+03  0.45998909963E+03  0.47249597099E+03  0.41800000000E+01 0. -1.
         -5    1    4    4    0  502  0.64515196901E+02  0.22459727103E+02  0.35689480118E+03  0.36339788315E+03  0.41800000000E+01 0. -1.
        -11    1    3    3    0    0 -0.54418035458E+02  0.23936790902E+02  0.19289989895E+03  0.20185307418E+03  0.00000000000E+00 0. -1.
         11    1    3    3    0    0 -0.41805739101E+02  0.56751746782E+02  0.49718853800E+02  0.86258014166E+02  0.00000000000E+00 0.  1.
</event>
<event>
 8    1  0.2184156E-005  0.1260172E+03  0.7561462E-02  0.1233488E+00
          1   -1    0    0  501    0  0.00000000000E+00  0.00000000000E+00  0.65734498774E+03  0.65734498774E+03  0.00000000000E+00 0. -1.
         -1   -1    0    0    0  501 -0.00000000000E+00 -0.00000000000E+00 -0.54016512212E+02  0.54016512212E+02  0.00000000000E+00 0.  1.
         23    2    1    2    0    0  0.96071238341E+01 -0.98096081904E+02  0.48363385499E+02  0.13399748992E+03  0.76819087055E+02 0.  0.
         23    2    1    2    0    0 -0.96071238341E+01  0.98096081904E+02  0.55496509003E+03  0.57736401003E+03  0.12509120996E+03 0.  0.
          5    1    4    4  502    0 -0.47528490509E+02  0.61150280258E+01  0.92060699308E+02  0.10387009067E+03  0.41800000000E+01 0.  1.
         -5    1    4    4    0  502  0.37921366675E+02  0.91981053878E+02  0.46290439072E+03  0.47349391936E+03  0.41800000000E+01 0.  1.
        -11    1    3    3    0    0 -0.38982569039E+01 -0.86397148765E+02  0.44629304328E+01  0.86600123959E+02  0.00000000000E+00 0.  1.
         11    1    3    3    0    0  0.13505380738E+02 -0.11698933139E+02  0.43900455067E+02  0.47397365966E+02  0.00000000000E+00 0. -1.
</event>
<event>
 8    1  0.2184156E-005  0.1823661E+03  0.7561462E-02  0.1165533E+00
          2   -1    0    0  501    0  0.00000000000E+00  0.00000000000E+00  0.61470348913E+03  0.61470348913E+03  0.00000000000E+00 0. -1.
         -2   -1    0    0    0  501 -0.00000000000E+00 -0.00000000000E+00 -0.62967059752E+02  0.62967059752E+02  0.00000000000E+00 0.  1.
         23    2    1    2    0    0 -0.11314482268E+03  0.11303890879E+03  0.20169191646E+03  0.27300017039E+03  0.90939089877E+02 0.  0.
         23    2    1    2    0    0  0.11314482268E+03 -0.11303890879E+03  0.35004451291E+03  0.40467037849E+03  0.12508960151E+03 0.  0.
          5    1    4    4  502    0 -0.21193007712E+02 -0.49909906175E+02  0.10130364038E+03  0.11497844261E+03  0.41800000000E+01 0.  1.
         -5    1    4    4    0  502  0.13433783039E+03 -0.63129002619E+02  0.24874087253E+03  0.28969193588E+03  0.41800000000E+01 0.  1.
        -11    1    3    3    0    0 -0.72139891932E+02  0.88089491728E+02  0.72007784591E+02  0.13471838628E+03  0.00000000000E+00 0.  1.
         11    1    3    3    0    0 -0.41004930745E+02  0.24949417065E+02  0.12968413187E+03  0.13828178411E+03  0.00000000000E+00 0. -1.
</event>
<event>
 8    1  0.2184156E-005  0.9465644E+02  0.7561462E-02  0.1291952E+00
         -1   -1    0    0    0  501 -0.00000000000E+00  0.00000000000E+00  0.16887351024E+02  0.16887351024E+02  0.00000000000E+00 0.  1.
          1   -1    0    0  501    0  0.00000000000E+00 -0.00000000000E+00 -0.78607194038E+03  0.78607194038E+03  0.00000000000E+00 0. -1.
         23    2    1    2    0    0 -0.31976933281E+02  0.39380518052E+01 -0.30141070329E+03  0.31767808691E+03  0.95041687330E+02 0.  0.
         23    2    1    2    0    0  0.31976933281E+02 -0.39380518052E+01 -0.46777388607E+03  0.48528120450E+03  0.12508959364E+03 0.  0.
          5    1    4    4  502    0  0.70791447602E+02  0.15046731380E+02 -0.38550267908E+03  0.39225963488E+03  0.41800000000E+01 0. -1.
         -5    1    4    4    0  502 -0.38814514322E+02 -0.18984783185E+02 -0.82271206984E+02  0.93021569612E+02  0.41800000000E+01 0. -1.
        -11    1    3    3    0    0 -0.43073609195E+02 -0.19647831647E+02 -0.27991964933E+03  0.28389502141E+03  0.00000000000E+00 0. -1.
         11    1    3    3    0    0  0.11096675914E+02  0.23585883453E+02 -0.21491053961E+02  0.33783065505E+02  0.00000000000E+00 0.  1.
</event>
<event>
 8    1  0.2184156E-005  0.1057779E+03  0.7561462E-02  0.1268594E+00
         -1   -1    0    0    0  501 -0.00000000000E+00  0.00000000000E+00  0.67589940738E+02  0.67589940738E+02  0.00000000000E+00 0.  1.
          1   -1    0    0  501    0  0.00000000000E+00 -0.00000000000E+00 -0.42327257887E+03  0.42327257887E+03  0.00000000000E+00 0. -1.
         23    2    1    2    0    0 -0.38128429609E+02 -0.64776130001E+02 -0.14582881339E+02  0.11985289555E+03  0.92208090653E+02 0.  0.
         23    2    1    2    0    0  0.38128429609E+02  0.64776130001E+02 -0.34109975680E+03  0.37100962406E+03  0.12509745359E+03 0.  0.
          5    1    4    4  502    0  0.76835916985E+02  0.58805498574E+02 -0.17207834431E+03  0.19745954974E+03  0.41800000000E+01 0.  1.
         -5    1    4    4    0  502 -0.38707487376E+02  0.59706314265E+01 -0.16902141248E+03  0.17355007432E+03  0.41800000000E+01 0.  1.
        -11    1    3    3    0    0 -0.18888060347E+02 -0.27336841525E+02  0.39308353478E+02  0.51470461251E+02  0.00000000000E+00 0.  1.
         11    1    3    3    0    0 -0.19240369262E+02 -0.37439288475E+02 -0.53891234817E+02  0.68382434301E+02  0.00000000000E+00 0. -1.
</event>
<event>
 8    1  0.2184156E-005  0.9932193E+02  0.7561462E-02  0.1281728E+00
         -4   -1    0    0    0  501 -0.00000000000E+00  0.00000000000E+00  0.27410481754E+03  0.27410481754E+03  0.00000000000E+00 0.  1.
          4   -1    0    0  501    0  0.00000000000E+00 -0.00000000000E+00 -0.58372325898E+02  0.58372325898E+02  0.00000000000E+00 0. -1.
         23    2    1    2    0    0  0.28107609142E+02  0.50547513226E+02  0.13853979024E+03  0.17452031868E+03  0.88988647413E+02 0.  0.
         23    2    1    2    0    0 -0.28107609142E+02 -0.50547513226E+02  0.77192701402E+02  0.15795682476E+03  0.12508619649E+03 0.  0.
          5    1    4    4  502    0 -0.62732785972E+02 -0.28855360123E+01  0.28397647744E+01  0.63002106456E+02  0.41800000000E+01 0.  1.
         -5    1    4    4    0  502  0.34625176830E+02 -0.47661977213E+02  0.74352936627E+02  0.94954718300E+02  0.41800000000E+01 0.  1.
        -11    1    3    3    0    0  0.24965600479E+02 -0.10167228247E+01  0.11511878639E+03  0.11779919317E+03  0.00000000000E+00 0.  1.
         11    1    3    3    0    0  0.31420086629E+01  0.51564236050E+02  0.23421003855E+02  0.56721125513E+02  0.00000000000E+00 0. -1.
</event>
<event>
 8    1  0.2184156E-005  0.9064268E+02  0.7561462E-02  0.1301303E+00
         -2   -1    0    0    0  501 -0.00000000000E+00  0.00000000000E+00  0.32799995302E+03  0.32799995302E+03  0.00000000000E+00 0. -1.
          2   -1    0    0  501    0  0.00000000000E+00 -0.00000000000E+00 -0.49354375036E+02  0.49354375036E+02  0.00000000000E+00 0.  1.
         23    2    1    2    0    0 -0.31569518925E+02 -0.56703002567E+02  0.13518483698E+03  0.17625624828E+03  0.92625373876E+02 0.  0.
         23    2    1    2    0    0  0.31569518925E+02  0.56703002567E+02  0.14346074101E+03  0.20109807977E+03  0.12509032118E+03 0.  0.
          5    1    4    4  502    0  0.41466462974E+02  0.30826221885E+02  0.16025592530E+03  0.16843146232E+03  0.41800000000E+01 0.  1.
         -5    1    4    4    0  502 -0.98969440496E+01  0.25876780682E+02 -0.16795184292E+02  0.32666617447E+02  0.41800000000E+01 0.  1.
        -11    1    3    3    0    0  0.26242839596E+02 -0.16204269431E+02  0.97892787990E+01  0.32358846661E+02  0.00000000000E+00 0.  1.
         11    1    3    3    0    0 -0.57812358520E+02 -0.40498733136E+02  0.12539555818E+03  0.14389740162E+03  0.00000000000E+00 0. -1.
</event>
<event>
 8    1  0.2184156E-005  0.1372232E+03  0.7561462E-02  0.1217115E+00
         -2   -1    0    0    0  501 -0.00000000000E+00  0.00000000000E+00  0.14025136397E+02  0.14025136397E+02  0.00000000000E+00 0.  1.
          2   -1    0    0  501    0  0.00000000000E+00 -0.00000000000E+00 -0.15103921248E+04  0.15103921248E+04  0.00000000000E+00 0. -1.
         23    2    1    2    0    0  0.76602296800E+02 -0.22550944387E+02 -0.54216199175E+03  0.55874061918E+03  0.10897246102E+03 0.  0.
         23    2    1    2    0    0 -0.76602296800E+02  0.22550944387E+02 -0.95420499664E+03  0.96567664200E+03  0.12509094421E+03 0.  0.
          5    1    4    4  502    0  0.28716054671E+02  0.19803511946E+02 -0.39936546297E+03  0.40090776532E+03  0.41800000000E+01 0.  1.
         -5    1    4    4    0  502 -0.10531835147E+03  0.27474324406E+01 -0.55483953368E+03  0.56476887668E+03  0.41800000000E+01 0.  1.
        -11    1    3    3    0    0  0.32796497447E+02 -0.65045955999E+02 -0.25724792548E+03  0.26736320203E+03  0.00000000000E+00 0.  1.
         11    1    3    3    0    0  0.43805799353E+02  0.42495011612E+02 -0.28491406627E+03  0.29137741715E+03  0.00000000000E+00 0. -1.
</event>
<event>
 8    1  0.2184156E-005  0.1309516E+03  0.7561462E-02  0.1226051E+00
          1   -1    0    0  501    0  0.00000000000E+00  0.00000000000E+00  0.96559342388E+03  0.96559342388E+03  0.00000000000E+00 0.  1.
         -1   -1    0    0    0  501 -0.00000000000E+00 -0.00000000000E+00 -0.22173813633E+02  0.22173813633E+02  0.00000000000E+00 0. -1.
         23    2    1    2    0    0 -0.72195891605E+02 -0.66914038189E+02  0.44105810256E+03  0.46079011022E+03  0.90030775662E+02 0.  0.
         23    2    1    2    0    0  0.72195891605E+02  0.66914038189E+02  0.50236150768E+03  0.52697712729E+03  0.12509225803E+03 0.  0.
          5    1    4    4  502    0  0.49749340410E+02 -0.77549221473E+01  0.63123146753E+02  0.80852580322E+02  0.41800000000E+01 0. -1.
         -5    1    4    4    0  502  0.22446551195E+02  0.74668960336E+02  0.43923836093E+03  0.44612454697E+03  0.41800000000E+01 0. -1.
        -11    1    3    3    0    0 -0.12470879145E+02 -0.72265512339E+02  0.25153177625E+03  0.26200393425E+03  0.00000000000E+00 0.  1.
         11    1    3    3    0    0 -0.59725012461E+02  0.53514741508E+01  0.18952632631E+03  0.19878617597E+03  0.00000000000E+00 0. -1.
</event>
<event>
 8    1  0.2184156E-005  0.1051042E+03  0.7561462E-02  0.1269914E+00
          2   -1    0    0  501    0  0.00000000000E+00  0.00000000000E+00  0.20729755038E+04  0.20729755038E+04  0.00000000000E+00 0. -1.
         -2   -1    0    0    0  501 -0.00000000000E+00 -0.00000000000E+00 -0.12273515228E+02  0.12273515228E+02  0.00000000000E+00 0.  1.
         23    2    1    2    0    0 -0.43562329806E+02  0.18515685347E+02  0.27096321023E+03  0.29051996467E+03  0.93489472070E+02 0.  0.
         23    2    1    2    0    0  0.43562329806E+02 -0.18515685347E+02  0.17897387783E+04  0.17947290544E+04  0.12508787590E+03 0.  0.
          5    1    4    4  502    0 -0.27999106680E+02 -0.27210679453E+02  0.11916956795E+04  0.11923424155E+04  0.41800000000E+01 0. -1.
         -5    1    4    4    0  502  0.71561436485E+02  0.86949941065E+01  0.59804309889E+03  0.60238663883E+03  0.41800000000E+01 0. -1.
        -11    1    3    3    0    0  0.89566263583E+01 -0.27490887391E+02  0.40844707502E+02  0.50042583628E+02  0.00000000000E+00 0.  1.
         11    1    3    3    0    0 -0.52518956164E+02  0.46006572738E+02  0.23011850273E+03  0.24047738104E+03  0.00000000000E+00 0. -1.
</event>
<event>
 8    1  0.2184156E-005  0.1444937E+03  0.7561462E-02  0.1207407E+00
          1   -1    0    0  501    0  0.00000000000E+00  0.00000000000E+00  0.27689690246E+03  0.27689690246E+03  0.00000000000E+00 0. -1.
         -1   -1    0    0    0  501 -0.00000000000E+00 -0.00000000000E+00 -0.12839378907E+03  0.12839378907E+03  0.00000000000E+00 0.  1.
         23    2    1    2    0    0  0.79404886273E+02  0.71937997850E+02 -0.48291645819E+02  0.14866654960E+03  0.91046408025E+02 0.  0.
         23    2    1    2    0    0 -0.79404886273E+02 -0.71937997850E+02  0.19679475921E+03  0.25662414193E+03  0.12509021332E+03 0.  0.
          5    1    4    4  502    0  0.27204199638E+02 -0.24286897275E+02  0.13217762051E+02  0.39014144753E+02  0.41800000000E+01 0.  1.
         -5    1    4    4    0  502 -0.10660908591E+03 -0.47651100575E+02  0.18357699716E+03  0.21760999717E+03  0.41800000000E+01 0.  1.
        -11    1    3    3    0    0 -0.16394720119E+02  0.13795935741E+01 -0.20857372877E+02  0.26565393457E+02  0.00000000000E+00 0.  1.
         11    1    3    3    0    0  0.95799606391E+02  0.70558404276E+02 -0.27434272942E+02  0.12210115614E+03  0.00000000000E+00 0. -1.
</event>
<event>
 8    1  0.2184156E-005  0.1156974E+03  0.7561462E-02  0.1250369E+00
          1   -1    0    0  501    0  0.00000000000E+00  0.00000000000E+00  0.27879707453E+02  0.27879707453E+02  0.00000000000E+00 0. -1.
         -1   -1    0    0    0  501 -0.00000000000E+00 -0.00000000000E+00 -0.51505307969E+03  0.51505307969E+03  0.00000000000E+00 0.  1.
         23    2    1    2    0    0  0.41032857512E+02 -0.30599896976E+02 -0.24646083295E+03  0.26686859499E+03  0.88633265338E+02 0.  0.
         23    2    1    2    0    0 -0.41032857512E+02  0.30599896976E+02 -0.24071253929E+03  0.27606419216E+03  0.12509541369E+03 0.  0.
          5    1    4    4  502    0  0.43899555160E+02  0.96065869570E+01 -0.58436895845E+02  0.73836309850E+02  0.41800000000E+01 0.  1.
         -5    1    4    4    0  502 -0.84932412672E+02  0.20993310019E+02 -0.18227564345E+03  0.20222788231E+03  0.41800000000E+01 0.  1.
        -11    1    3    3    0    0 -0.18077308044E+02 -0.35007971645E+02 -0.65388635818E+02  0.76341475222E+02  0.00000000000E+00 0. -1.
         11    1    3    3    0    0  0.59110165556E+02  0.44080746694E+01 -0.18107219713E+03  0.19052711977E+03  0.00000000000E+00 0.  1.
</event>
<event>
 8    1  0.2184156E-005  0.1180223E+03  0.7561462E-02  0.1246396E+00
          2   -1    0    0  501    0  0.00000000000E+00  0.00000000000E+00  0.37018143087E+02  0.37018143087E+02  0.00000000000E+00 0. -1.
         -2   -1    0    0    0  501 -0.00000000000E+00 -0.00000000000E+00 -0.47661344912E+03  0.47661344912E+03  0.00000000000E+00 0.  1.
         23    2    1    2    0    0 -0.51666535936E+02 -0.24158626595E+02 -0.29934784196E+03  0.31723564392E+03  0.88183065916E+02 0.  0.
         23    2    1    2    0    0  0.51666535936E+02  0.24158626595E+02 -0.14024746407E+03  0.19639594828E+03  0.12509575192E+03 0.  0.
          5    1    4    4  502    0 -0.40033937799E+02 -0.10318594337E+01 -0.27109002513E+02  0.48540203201E+02  0.41800000000E+01 0.  1.
         -5    1    4    4    0  502  0.91700473736E+02  0.25190486028E+02 -0.11313846156E+03  0.14785574508E+03  0.41800000000E+01 0.  1.
        -11    1    3    3    0    0 -0.42030475328E+02  0.26061289683E+02 -0.19295577825E+03  0.19919258028E+03  0.00000000000E+00 0. -1.
         11    1    3    3    0    0 -0.96360606082E+01 -0.50219916278E+02 -0.10639206371E+03  0.11804306365E+03  0.00000000000E+00 0.  1.
</event>
<event>
 8    1  0.2184156E-005  0.1043995E+03  0.7561462E-02  0.1271307E+00
         -1   -1    0    0    0  501 -0.00000000000E+00  0.00000000000E+00  0.21925600149E+02  0.21925600149E+02  0.00000000000E+00 0.  1.
          1   -1    0    0  501    0  0.00000000000E+00 -0.00000000000E+00 -0.66593702403E+03  0.66593702403E+03  0.00000000000E+00 0. -1.
         23    2    1    2    0    0  0.15686208440E+02 -0.87308898383E+01 -0.22359498628E+03  0.24886450663E+03  0.10778005009E+03 0.  0.
         23    2    1    2    0    0 -0.15686208440E+02  0.87308898383E+01 -0.42041643760E+03  0.43899811755E+03  0.12508829137E+03 0.  0.
          5    1    4    4  502    0 -0.16137342877E+02  0.63035926627E+02 -0.15685355129E+03  0.16986597903E+03  0.41800000000E+01 0. -1.
         -5    1    4    4    0  502  0.45113443648E+00 -0.54305036788E+02 -0.26356288631E+03  0.26913213852E+03  0.41800000000E+01 0. -1.
        -11    1    3    3    0    0  0.50141151411E+02  0.80855668125E+01 -0.19369803820E+03  0.20024595241E+03  0.00000000000E+00 0. -1.
         11    1    3    3    0    0 -0.34454942971E+02 -0.16816456651E+02 -0.29896948084E+02  0.48618554217E+02  0.00000000000E+00 0.  1.
</event>
<event>
 8    1  0.2184156E-005  0.1160003E+03  0.7561462E-02  0.1249845E+00
          1   -1    0    0  501    0  0.00000000000E+00  0.00000000000E+00  0.98419549290E+02  0.98419549290E+02  0.00000000000E+00 0. -1.
         -1   -1    0    0    0  501 -0.00000000000E+00 -0.00000000000E+00 -0.21509312461E+03  0.21509312461E+03  0.00000000000E+00 0.  1.
         23    2    1    2    0    0  0.49797764095E+01  0.95713526551E+02 -0.41099860049E+02  0.13874322676E+03  0.91512879631E+02 0.  0.
         23    2    1    2    0    0 -0.49797764095E+01 -0.95713526551E+02 -0.75573715270E+02  0.17476944714E+03  0.12508835228E+03 0.  0.
          5    1    4    4  502    0 -0.43936037811E+02 -0.17326433819E+02 -0.73064303492E+02  0.87100204203E+02  0.41800000000E+01 0. -1.
         -5    1    4    4    0  502  0.38956261402E+02 -0.78387092732E+02 -0.25094117783E+01  0.87669242935E+02  0.41800000000E+01 0. -1.
        -11    1    3    3    0    0  0.10218025726E+02  0.63797874787E+02  0.21655717865E+02  0.68143576318E+02  0.00000000000E+00 0. -1.
         11    1    3    3    0    0 -0.52382493165E+01  0.31915651764E+02 -0.62755577915E+02  0.70599650444E+02  0.00000000000E+00 0.  1.
</event>
<event>
 8    1  0.2184156E-005  0.1089201E+03  0.7561462E-02  0.1262583E+00
         -1   -1    0    0    0  501 -0.00000000000E+00  0.00000000000E+00  0.13999985778E+02  0.13999985778E+02  0.00000000000E+00 0.  1.
          1   -1    0    0  501    0  0.00000000000E+00 -0.00000000000E+00 -0.12572748243E+04  0.12572748243E+04  0.00000000000E+00 0. -1.
         23    2    1    2    0    0 -0.65765694153E+02 -0.18227652096E+02 -0.30493673931E+03  0.32217817964E+03  0.78453748356E+02 0.  0.
         23    2    1    2    0    0  0.65765694153E+02  0.18227652096E+02 -0.93833809924E+03  0.94909663046E+03  0.12509457076E+03 0.  0.
          5    1    4    4  502    0  0.16615584574E+02  0.52850915699E+02 -0.18028390312E+03  0.18865061639E+03  0.41800000000E+01 0.  1.
         -5    1    4    4    0  502  0.49150109579E+02 -0.34623263603E+02 -0.75805419613E+03  0.76044601407E+03  0.41800000000E+01 0.  1.
        -11    1    3    3    0    0  0.17287128059E+02 -0.21416834820E+01 -0.32027801368E+02  0.36458355217E+02  0.00000000000E+00 0.  1.
         11    1    3    3    0    0 -0.83052822212E+02 -0.16085968614E+02 -0.27290893794E+03  0.28571982443E+03  0.00000000000E+00 0. -1.
</event>
<event>
 8    1  0.2184156E-005  0.1441244E+03  0.7561462E-02  0.1207885E+00
         -2   -1    0    0    0  501 -0.00000000000E+00  0.00000000000E+00  0.45100119054E+02  0.45100119054E+02  0.00000000000E+00 0.  1.
          2   -1    0    0  501    0  0.00000000000E+00 -0.00000000000E+00 -0.58856561800E+03  0.58856561800E+03  0.00000000000E+00 0. -1.
         23    2    1    2    0    0  0.10785337069E+03 -0.51946389387E+02 -0.22633325219E+03  0.27234726480E+03  0.92819796699E+02 0.  0.
         23    2    1    2    0    0 -0.10785337069E+03  0.51946389387E+02 -0.31713224675E+03  0.36131847225E+03  0.12508956599E+03 0.  0.
          5    1    4    4  502    0  0.19603687482E+02 -0.60598444285E+01 -0.10521295037E+03  0.10727657528E+03  0.41800000000E+01 0.  1.
         -5    1    4    4    0  502 -0.12745705817E+03  0.58006233816E+02 -0.21191929638E+03  0.25404189697E+03  0.41800000000E+01 0.  1.
        -11    1    3    3    0    0  0.25421919623E+02 -0.34663716414E+02 -0.15843532469E+03  0.16416333130E+03  0.00000000000E+00 0. -1.
         11    1    3    3    0    0  0.82431451064E+02 -0.17282672973E+02 -0.67897927499E+02  0.10818393350E+03  0.00000000000E+00 0.  1.
</event>
<event>
 8    1  0.2184156E-005  0.1976144E+03  0.7561462E-02  0.1151768E+00
         -2   -1    0    0    0  501 -0.00000000000E+00  0.00000000000E+00  0.18173823775E+03  0.18173823775E+03  0.00000000000E+00 0.  1.
          2   -1    0    0  501    0  0.00000000000E+00 -0.00000000000E+00 -0.22976192101E+03  0.22976192101E+03  0.00000000000E+00 0. -1.
         23    2    1    2    0    0 -0.10857590142E+03  0.12675782109E+03  0.17934388433E+02  0.19274420048E+03  0.94722821720E+02 0.  0.
         23    2    1    2    0    0  0.10857590142E+03 -0.12675782109E+03 -0.65958071695E+02  0.21875595828E+03  0.12508968976E+03 0.  0.
          5    1    4    4  502    0  0.48469568176E+02 -0.13437890017E+03 -0.23939035301E+02  0.14490527134E+03  0.41800000000E+01 0.  1.
         -5    1    4    4    0  502  0.60106333243E+02  0.76210790817E+01 -0.42019036394E+02  0.73850686942E+02  0.41800000000E+01 0.  1.
        -11    1    3    3    0    0 -0.52286266657E+02  0.12474241919E+03  0.17759721810E+02  0.13641822659E+03  0.00000000000E+00 0.  1.
         11    1    3    3    0    0 -0.56289634762E+02  0.20154018964E+01  0.17466662304E+00  0.56325973892E+02  0.00000000000E+00 0. -1.
</event>
<event>
 8    1  0.2184156E-005  0.1256540E+03  0.7561462E-02  0.1234051E+00
          2   -1    0    0  501    0  0.00000000000E+00  0.00000000000E+00  0.12139679185E+04  0.12139679185E+04  0.00000000000E+00 0. -1.
         -2   -1    0    0    0  501 -0.00000000000E+00 -0.00000000000E+00 -0.13902137403E+02  0.13902137403E+02  0.00000000000E+00 0.  1.
         23    2    1    2    0    0 -0.68201010928E+02  0.26908167989E+01  0.62296454718E+03  0.63343581901E+03  0.92181838617E+02 0.  0.
         23    2    1    2    0    0  0.68201010928E+02 -0.26908167989E+01  0.57710123392E+03  0.59443423690E+03  0.12509040499E+03 0.  0.
          5    1    4    4  502    0  0.93768576984E+02 -0.31665755565E+02  0.33882331057E+03  0.35300704567E+03  0.41800000000E+01 0.  1.
         -5    1    4    4    0  502 -0.25567566057E+02  0.28974938766E+02  0.23827792334E+03  0.24142719123E+03  0.41800000000E+01 0.  1.
        -11    1    3    3    0    0  0.16402109051E+02 -0.19924335810E+02  0.10531562049E+03  0.10843149108E+03  0.00000000000E+00 0. -1.
         11    1    3    3    0    0 -0.84603119979E+02  0.22615152609E+02  0.51764892670E+03  0.52500432793E+03  0.00000000000E+00 0.  1.
</event>
<event>
 8    1  0.2184156E-005  0.9398042E+02  0.7561462E-02  0.1293489E+00
          2   -1    0    0  501    0  0.00000000000E+00  0.00000000000E+00  0.80379915919E+02  0.80379915919E+02  0.00000000000E+00 0.  1.
         -2   -1    0    0    0  501 -0.00000000000E+00 -0.00000000000E+00 -0.16058581344E+03  0.16058581344E+03  0.00000000000E+00 0. -1.
         23    2    1    2    0    0 -0.34188155904E+02  0.28639252583E+01 -0.46261858798E+02  0.10689160897E+03  0.90047900682E+02 0.  0.
         23    2    1    2    0    0  0.34188155904E+02 -0.28639252583E+01 -0.33944038728E+02  0.13407412039E+03  0.12508652974E+03 0.  0.
          5    1    4    4  502    0  0.75506596269E+02  0.10833509238E+02 -0.45402750488E+02  0.88867840946E+02  0.41800000000E+01 0. -1.
         -5    1    4    4    0  502 -0.41318440365E+02 -0.13697434497E+02  0.11458711760E+02  0.45206279445E+02  0.41800000000E+01 0. -1.
        -11    1    3    3    0    0 -0.59828920169E+01 -0.26472807234E+02 -0.58421218593E+02  0.64417725057E+02  0.00000000000E+00 0. -1.
         11    1    3    3    0    0 -0.28205263887E+02  0.29336732492E+02  0.12159359794E+02  0.42473883915E+02  0.00000000000E+00 0.  1.
</event>
<event>
 8    1  0.2184156E-005  0.6041485E+02  0.7561462E-02  0.1396099E+00
         -3   -1    0    0    0  501 -0.00000000000E+00  0.00000000000E+00  0.11273347554E+03  0.11273347554E+03  0.00000000000E+00 0.  1.
          3   -1    0    0  501    0  0.00000000000E+00 -0.00000000000E+00 -0.41482760584E+03  0.41482760584E+03  0.00000000000E+00 0. -1.
         23    2    1    2    0    0 -0.45389077823E+00 -0.40123295333E+02  0.74961794199E+02  0.12827578364E+03  0.96048535823E+02 0.  0.
         23    2    1    2    0    0  0.45389077823E+00  0.40123295333E+02 -0.37705592449E+03  0.39928529774E+03  0.12508994344E+03 0.  0.
          5    1    4    4  502    0  0.15347310151E+02  0.18681194468E+02 -0.34873702419E+01  0.24782274045E+02  0.41800000000E+01 0.  1.
         -5    1    4    4    0  502 -0.14893419373E+02  0.21442100865E+02 -0.37356855425E+03  0.37450302369E+03  0.41800000000E+01 0.  1.
        -11    1    3    3    0    0  0.28363197065E+02 -0.19640450979E+02 -0.10275295924E+02  0.35997221681E+02  0.00000000000E+00 0. -1.
         11    1    3    3    0    0 -0.28817087843E+02 -0.20482844355E+02  0.85237090124E+02  0.92278561960E+02  0.00000000000E+00 0.  1.
</event>
<event>
 8    1  0.2184156E-005  0.2529785E+03  0.7561462E-02  0.1111437E+00
         -2   -1    0    0    0  501 -0.00000000000E+00  0.00000000000E+00  0.48852115334E+03  0.48852115334E+03  0.00000000000E+00 0.  1.
          2   -1    0    0  501    0  0.00000000000E+00 -0.00000000000E+00 -0.14790145073E+03  0.14790145073E+03  0.00000000000E+00 0. -1.
         23    2    1    2    0    0 -0.10129776330E+03  0.21157910723E+03  0.25182486219E+03  0.35613784807E+03  0.91604858720E+02 0.  0.
         23    2    1    2    0    0  0.10129776330E+03 -0.21157910723E+03  0.88794840423E+02  0.28028475601E+03  0.12509222717E+03 0.  0.
          5    1    4    4  502    0 -0.28925308990E+02 -0.46465370649E+02  0.10697376665E+02  0.55925043024E+02  0.41800000000E+01 0. -1.
         -5    1    4    4    0  502  0.13022307229E+03 -0.16511373658E+03  0.78097463758E+02  0.22435971298E+03  0.41800000000E+01 0. -1.
        -11    1    3    3    0    0 -0.98413783779E+02  0.15194275187E+03  0.22970546256E+03  0.29246618987E+03  0.00000000000E+00 0. -1.
         11    1    3    3    0    0 -0.28839795247E+01  0.59636355354E+02  0.22119399632E+02  0.63671658200E+02  0.00000000000E+00 0.  1.
</event>
<event>
 8    1  0.2184156E-005  0.1041557E+03  0.7561462E-02  0.1271792E+00
         -2   -1    0    0    0  501 -0.00000000000E+00  0.00000000000E+00  0.23328633517E+02  0.23328633517E+02  0.00000000000E+00 0.  1.
          2   -1    0    0  501    0  0.00000000000E+00 -0.00000000000E+00 -0.66098851833E+03  0.66098851833E+03  0.00000000000E+00 0. -1.
         23    2    1    2    0    0  0.19296704158E+02 -0.28561665363E+02 -0.14569126471E+03  0.17552572698E+03  0.91625349669E+02 0.  0.
         23    2    1    2    0    0 -0.19296704158E+02  0.28561665363E+02 -0.49196862011E+03  0.50879142487E+03  0.12508980504E+03 0.  0.
          5    1    4    4  502    0 -0.38329381737E+02  0.71864269618E+02 -0.28452361269E+03  0.29598103542E+03  0.41800000000E+01 0.  1.
         -5    1    4    4    0  502  0.19032677580E+02 -0.43302604255E+02 -0.20744500742E+03  0.21281038945E+03  0.41800000000E+01 0.  1.
        -11    1    3    3    0    0 -0.20818676616E+02 -0.32888650217E+02 -0.20498445116E+02  0.43991668089E+02  0.00000000000E+00 0.  1.
         11    1    3    3    0    0  0.40115380773E+02  0.43269848535E+01 -0.12519281959E+03  0.13153405889E+03  0.00000000000E+00 0. -1.
</event>
<event>
 8    1  0.2184156E-005  0.2159495E+03  0.7561462E-02  0.1136939E+00
         -1   -1    0    0    0  501 -0.00000000000E+00  0.00000000000E+00  0.21989947959E+02  0.21989947959E+02  0.00000000000E+00 0.  1.
          1   -1    0    0  501    0  0.00000000000E+00 -0.00000000000E+00 -0.21824855275E+04  0.21824855275E+04  0.00000000000E+00 0. -1.
         23    2    1    2    0    0 -0.13042035495E+03 -0.13817470001E+03 -0.10026698663E+04  0.10245138674E+04  0.90443833019E+02 0.  0.
         23    2    1    2    0    0  0.13042035495E+03  0.13817470001E+03 -0.11578257132E+04  0.11799616080E+04  0.12508915869E+03 0.  0.
          5    1    4    4  502    0  0.14966795805E+03  0.10486520744E+03 -0.83189553050E+03  0.85174224708E+03  0.41800000000E+01 0. -1.
         -5    1    4    4    0  502 -0.19247603106E+02  0.33309492572E+02 -0.32593018269E+03  0.32821936096E+03  0.41800000000E+01 0. -1.
        -11    1    3    3    0    0 -0.32544909994E+02 -0.10031538512E+03 -0.49431218078E+03  0.50543731532E+03  0.00000000000E+00 0. -1.
         11    1    3    3    0    0 -0.97875444953E+02 -0.37859314894E+02 -0.50835768557E+03  0.51907655209E+03  0.00000000000E+00 0.  1.
</event>
<event>
 8    1  0.2184156E-005  0.1510283E+03  0.7561462E-02  0.1199215E+00
         -1   -1    0    0    0  501 -0.00000000000E+00  0.00000000000E+00  0.20021785104E+02  0.20021785104E+02  0.00000000000E+00 0.  1.
          1   -1    0    0  501    0  0.00000000000E+00 -0.00000000000E+00 -0.18022535375E+04  0.18022535375E+04  0.00000000000E+00 0. -1.
         23    2    1    2    0    0  0.67178871210E+02  0.92580617022E+02 -0.34496326588E+03  0.37504606261E+03  0.92605199033E+02 0.  0.
         23    2    1    2    0    0 -0.67178871210E+02 -0.92580617022E+02 -0.14372684865E+04  0.14472292599E+04  0.12509059623E+03 0.  0.
          5    1    4    4  502    0 -0.77280172134E+02 -0.10989482444E+03 -0.94238140191E+03  0.95191873419E+03  0.41800000000E+01 0.  1.
         -5    1    4    4    0  502  0.10101300924E+02  0.17314207416E+02 -0.49488708455E+03  0.49531052575E+03  0.41800000000E+01 0.  1.
        -11    1    3    3    0    0  0.81672018837E+02  0.36880030901E+02 -0.21155202119E+03  0.22974923941E+03  0.00000000000E+00 0. -1.
         11    1    3    3    0    0 -0.14493147627E+02  0.55700586120E+02 -0.13341124469E+03  0.14529682320E+03  0.00000000000E+00 0.  1.
</event>
<event>
 8    1  0.2184156E-005  0.7109649E+02  0.7561462E-02  0.1356404E+00
         -3   -1    0    0    0  501 -0.00000000000E+00  0.00000000000E+00  0.12820457206E+03  0.12820457206E+03  0.00000000000E+00 0.  1.
          3   -1    0    0  501    0  0.00000000000E+00 -0.00000000000E+00 -0.11927426407E+03  0.11927426407E+03  0.00000000000E+00 0. -1.
         23    2    1    2    0    0 -0.31122471761E+02 -0.45106534537E+02  0.30441014876E+02  0.10922334152E+03  0.89442021670E+02 0.  0.
         23    2    1    2    0    0  0.31122471761E+02  0.45106534537E+02 -0.21510706887E+02  0.13825549460E+03  0.12509461847E+03 0.  0.
          5    1    4    4  502    0  0.19553645820E+02  0.19379466512E+02  0.52232106772E+02  0.59190997331E+02  0.41800000000E+01 0. -1.
         -5    1    4    4    0  502  0.11568825941E+02  0.25727068024E+02 -0.73742813659E+02  0.79064497274E+02  0.41800000000E+01 0. -1.
        -11    1    3    3    0    0 -0.21447678993E+02 -0.62417572668E+02 -0.74877424927E+01  0.66423057741E+02  0.00000000000E+00 0. -1.
         11    1    3    3    0    0 -0.96747927678E+01  0.17311038132E+02  0.37928757369E+02  0.42800283783E+02  0.00000000000E+00 0.  1.
</event>
<event>
 8    1  0.2184156E-005  0.1089027E+03  0.7561462E-02  0.1262615E+00
         -2   -1    0    0    0  501 -0.00000000000E+00  0.00000000000E+00  0.28036031419E+03  0.28036031419E+03  0.00000000000E+00 0.  1.
          2   -1    0    0  501    0  0.00000000000E+00 -0.00000000000E+00 -0.71840955985E+02  0.71840955985E+02  0.00000000000E+00 0. -1.
         23    2    1    2    0    0 -0.75104114870E+02 -0.47148662558E+02  0.12085856131E+03  0.17558168348E+03  0.91424894194E+02 0.  0.
         23    2    1    2    0    0  0.75104114870E+02  0.47148662558E+02  0.87660796889E+02  0.17661958670E+03  0.12508572517E+03 0.  0.
          5    1    4    4  502    0  0.53978481682E+01 -0.26656240400E+02  0.67691717214E+02  0.73070738990E+02  0.41800000000E+01 0.  1.
         -5    1    4    4    0  502  0.69706266702E+02  0.73804902959E+02  0.19969079675E+02  0.10354884771E+03  0.41800000000E+01 0.  1.
        -11    1    3    3    0    0 -0.26724651112E+02 -0.16163090102E+02 -0.98956477876E+01  0.32762422130E+02  0.00000000000E+00 0. -1.
         11    1    3    3    0    0 -0.48379463758E+02 -0.30985572456E+02  0.13075420910E+03  0.14281926135E+03  0.00000000000E+00 0.  1.
</event>
<event>
 8    1  0.2184156E-005  0.8702346E+02  0.7561462E-02  0.1310224E+00
         -2   -1    0    0    0  501 -0.00000000000E+00  0.00000000000E+00  0.17268892688E+02  0.17268892688E+02  0.00000000000E+00 0.  1.
          2   -1    0    0  501    0  0.00000000000E+00 -0.00000000000E+00 -0.79545180841E+03  0.79545180841E+03  0.00000000000E+00 0. -1.
         23    2    1    2    0    0  0.12398112942E+02  0.25881476938E+02 -0.21981135028E+03  0.23979002700E+03  0.91425725496E+02 0.  0.
         23    2    1    2    0    0 -0.12398112942E+02 -0.25881476938E+02 -0.55837156544E+03  0.57293067410E+03  0.12508872123E+03 0.  0.
          5    1    4    4  502    0 -0.20673008403E+02  0.41441187729E+02 -0.10979697840E+03  0.11923755357E+03  0.41800000000E+01 0. -1.
         -5    1    4    4    0  502  0.82748954603E+01 -0.67322664666E+02 -0.44857458704E+03  0.45369312053E+03  0.41800000000E+01 0. -1.
        -11    1    3    3    0    0 -0.59473030664E+01  0.37437923358E+02 -0.21401561592E+03  0.21734684810E+03  0.00000000000E+00 0. -1.
         11    1    3    3    0    0  0.18345416009E+02 -0.11556446420E+02 -0.57957343574E+01  0.22443178900E+02  0.00000000000E+00 0.  1.
</event>
<event>
 7    1  0.2184156E-005  0.1315224E+03  0.7561462E-02  0.1225214E+00
         -2   -1    0    0    0  501 -0.00000000000E+00  0.00000000000E+00  0.18307434006E+03  0.18307434006E+03  0.00000000000E+00 0.  1.
          2   -1    0    0  501    0  0.00000000000E+00 -0.00000000000E+00 -0.18845362757E+03  0.18845362757E+03  0.00000000000E+00 0. -1.
         23    2    1    2    0    0 -0.37532633075E+02  0.51278160520E+02  0.12675135015E+03  0.16804839690E+03  0.90200945919E+02 0.  0.
          5    1    1    2  502    0  0.83476408185E+02  0.16266894385E+01 -0.82978383833E+02  0.11778727192E+03  0.41800000000E+01 0. -1.
         -5    1    1    2    0  502 -0.45943775110E+02 -0.52904849959E+02 -0.49152253822E+02  0.85692298816E+02  0.41800000000E+01 0.  1.
        -11    1    3    3    0    0 -0.12588445651E+02  0.74270290332E+02  0.76035529212E+02  0.10703245626E+03  0.00000000000E+00 0.  1.
         11    1    3    3    0    0 -0.24944187423E+02 -0.22992129811E+02  0.50715820934E+02  0.61015940643E+02  0.00000000000E+00 0. -1.
</event>
<event>
 8    1  0.2184156E-005  0.8277041E+02  0.7561462E-02  0.1321368E+00
          3   -1    0    0  501    0  0.00000000000E+00  0.00000000000E+00  0.17566556287E+03  0.17566556287E+03  0.00000000000E+00 0. -1.
         -3   -1    0    0    0  501 -0.00000000000E+00 -0.00000000000E+00 -0.96008064776E+02  0.96008064776E+02  0.00000000000E+00 0.  1.
         23    2    1    2    0    0 -0.29833688825E+02  0.47430265576E+02 -0.90475665114E+01  0.10841250667E+03  0.92367386352E+02 0.  0.
         23    2    1    2    0    0  0.29833688825E+02 -0.47430265576E+02  0.88705064608E+02  0.16326112098E+03  0.12508367621E+03 0.  0.
          5    1    4    4  502    0  0.13330810214E+02 -0.42345497712E+02 -0.22985453741E+02  0.50166275137E+02  0.41800000000E+01 0.  1.
         -5    1    4    4    0  502  0.16502878612E+02 -0.50847678647E+01  0.11169051835E+03  0.11309484584E+03  0.41800000000E+01 0.  1.
        -11    1    3    3    0    0  0.27428617271E+02  0.35207653927E+02 -0.19894418728E+02  0.48864054651E+02  0.00000000000E+00 0. -1.
         11    1    3    3    0    0 -0.57262306097E+02  0.12222611650E+02  0.10846852217E+02  0.59548452021E+02  0.00000000000E+00 0.  1.
</event>
<event>
 8    1  0.2184156E-005  0.2102513E+03  0.7561462E-02  0.1141367E+00
         -2   -1    0    0    0  501 -0.00000000000E+00  0.00000000000E+00  0.67384694306E+02  0.67384694306E+02  0.00000000000E+00 0.  1.
          2   -1    0    0  501    0  0.00000000000E+00 -0.00000000000E+00 -0.12779684479E+04  0.12779684479E+04  0.00000000000E+00 0. -1.
         23    2    1    2    0    0  0.98311172553E+02  0.16535319206E+03 -0.15025664143E+03  0.26048056611E+03  0.90919207309E+02 0.  0.
         23    2    1    2    0    0 -0.98311172553E+02 -0.16535319206E+03 -0.10603271122E+04  0.10848725761E+04  0.12509259284E+03 0.  0.
          5    1    4    4  502    0 -0.30704162268E+02  0.15667211088E+02 -0.21041465913E+03  0.21326042357E+03  0.41800000000E+01 0. -1.
         -5    1    4    4    0  502 -0.67607010285E+02 -0.18102040315E+03 -0.84991245303E+03  0.87161215252E+03  0.41800000000E+01 0. -1.
        -11    1    3    3    0    0  0.44436268256E+02  0.81649689028E+02 -0.17567862953E+02  0.94603823726E+02  0.00000000000E+00 0.  1.
         11    1    3    3    0    0  0.53874904297E+02  0.83703503032E+02 -0.13268877847E+03  0.16587674239E+03  0.00000000000E+00 0. -1.
</event>
<event>
 8    1  0.2184156E-005  0.1263059E+03  0.7561462E-02  0.1233042E+00
         -2   -1    0    0    0  501 -0.00000000000E+00  0.00000000000E+00  0.11683079050E+03  0.11683079050E+03  0.00000000000E+00 0.  1.
          2   -1    0    0  501    0  0.00000000000E+00 -0.00000000000E+00 -0.21381663087E+03  0.21381663087E+03  0.00000000000E+00 0. -1.
         23    2    1    2    0    0 -0.58447633353E+02 -0.88291852556E+02  0.17828222790E+01  0.13929780642E+03  0.90493775172E+02 0.  0.
         23    2    1    2    0    0  0.58447633353E+02  0.88291852556E+02 -0.98768662654E+02  0.19134961496E+03  0.12509136401E+03 0.  0.
          5    1    4    4  502    0  0.34021420060E+02  0.81782367739E+02 -0.12592479857E+03  0.15401409023E+03  0.41800000000E+01 0.  1.
         -5    1    4    4    0  502  0.24426213293E+02  0.65094848168E+01  0.27156135916E+02  0.37335524722E+02  0.41800000000E+01 0.  1.
        -11    1    3    3    0    0 -0.82213544536E+02 -0.73801558026E+02 -0.51945340510E+01  0.11060162773E+03  0.00000000000E+00 0.  1.
         11    1    3    3    0    0  0.23765911183E+02 -0.14490294530E+02  0.69773563300E+01  0.28696178688E+02  0.00000000000E+00 0. -1.
</event>
<event>
 8    1  0.2184156E-005  0.1045618E+03  0.7561462E-02  0.1270985E+00
         -3   -1    0    0    0  501 -0.00000000000E+00  0.00000000000E+00  0.20649932174E+03  0.20649932174E+03  0.00000000000E+00 0.  1.
          3   -1    0    0  501    0  0.00000000000E+00 -0.00000000000E+00 -0.77508384330E+02  0.77508384330E+02  0.00000000000E+00 0. -1.
         23    2    1    2    0    0  0.29323369356E+02 -0.41859398294E+02  0.99386680416E+02  0.14567782470E+03  0.93446493513E+02 0.  0.
         23    2    1    2    0    0 -0.29323369356E+02  0.41859398294E+02  0.29604256990E+02  0.13832988136E+03  0.12508666928E+03 0.  0.
          5    1    4    4  502    0 -0.65856561180E+02  0.10813084990E+00 -0.14223715385E+02  0.67504702222E+02  0.41800000000E+01 0.  1.
         -5    1    4    4    0  502  0.36533191824E+02  0.41751267444E+02  0.43827972375E+02  0.70825179142E+02  0.41800000000E+01 0.  1.
        -11    1    3    3    0    0 -0.23756552626E+02 -0.12944649705E+02  0.76333964675E+02  0.80986492155E+02  0.00000000000E+00 0.  1.
         11    1    3    3    0    0  0.53079921982E+02 -0.28914748589E+02  0.23052715741E+02  0.64691332546E+02  0.00000000000E+00 0. -1.
</event>
<event>
 7    1  0.2184156E-005  0.1098032E+03  0.7561462E-02  0.1260935E+00
         -1   -1    0    0    0  501 -0.00000000000E+00  0.00000000000E+00  0.72462288754E+02  0.72462288754E+02  0.00000000000E+00 0.  1.
          1   -1    0    0  501    0  0.00000000000E+00 -0.00000000000E+00 -0.43379721420E+03  0.43379721420E+03  0.00000000000E+00 0. -1.
         23    2    1    2    0    0 -0.48710222831E+02 -0.36061414441E+02  0.64859307523E+01  0.11028949265E+03  0.91916230727E+02 0.  0.
          5    1    1    2  502    0  0.33132589249E+02  0.78905386576E+02 -0.31316595710E+03  0.32467555742E+03  0.41800000000E+01 0. -1.
         -5    1    1    2    0  502  0.15577633582E+02 -0.42843972136E+02 -0.54654899094E+02  0.71294452879E+02  0.41800000000E+01 0.  1.
        -11    1    3    3    0    0 -0.41630108320E+02 -0.54392227042E+02 -0.25217691611E+02  0.72989809230E+02  0.00000000000E+00 0.  1.
         11    1    3    3    0    0 -0.70801145111E+01  0.18330812601E+02  0.31703622363E+02  0.37299683418E+02  0.00000000000E+00 0. -1.
</event>
<event>
 8    1  0.2184156E-005  0.9194345E+02  0.7561462E-02  0.1298212E+00
          2   -1    0    0  501    0  0.00000000000E+00  0.00000000000E+00  0.48803602315E+03  0.48803602315E+03  0.00000000000E+00 0. -1.
         -2   -1    0    0    0  501 -0.00000000000E+00 -0.00000000000E+00 -0.26266720463E+02  0.26266720463E+02  0.00000000000E+00 0.  1.
         23    2    1    2    0    0 -0.61412005779E+01  0.15910640393E+02  0.13396431153E+03  0.16302727410E+03  0.91326844442E+02 0.  0.
         23    2    1    2    0    0  0.61412005779E+01 -0.15910640393E+02  0.32780499116E+03  0.35127546951E+03  0.12508988940E+03 0.  0.
          5    1    4    4  502    0 -0.22400939808E+01  0.38338103478E+02  0.26482062394E+03  0.26762336120E+03  0.41800000000E+01 0. -1.
         -5    1    4    4    0  502  0.83812945587E+01 -0.54248743871E+02  0.62984367224E+02  0.83652108310E+02  0.41800000000E+01 0. -1.
        -11    1    3    3    0    0  0.41274537438E+02  0.52628020992E+01  0.81545105354E+02  0.91547194025E+02  0.00000000000E+00 0.  1.
         11    1    3    3    0    0 -0.47415738016E+02  0.10647838294E+02  0.52419206174E+02  0.71480080077E+02  0.00000000000E+00 0. -1.
</event>
<event>
 8    1  0.2184156E-005  0.1280759E+03  0.7561462E-02  0.1230339E+00
         -1   -1    0    0    0  501 -0.00000000000E+00  0.00000000000E+00  0.21467474564E+02  0.21467474564E+02  0.00000000000E+00 0.  1.
          1   -1    0    0  501    0  0.00000000000E+00 -0.00000000000E+00 -0.78435123828E+03  0.78435123828E+03  0.00000000000E+00 0. -1.
         23    2    1    2    0    0  0.36061677869E+02 -0.62286648857E+02 -0.31455711907E+03  0.33483452180E+03  0.89375078174E+02 0.  0.
         23    2    1    2    0    0 -0.36061677869E+02  0.62286648857E+02 -0.44832664465E+03  0.47098419104E+03  0.12509698906E+03 0.  0.
          5    1    4    4  502    0 -0.77690925272E+02  0.64954272272E+02 -0.28999351066E+03  0.30719480136E+03  0.41800000000E+01 0. -1.
         -5    1    4    4    0  502  0.41629247403E+02 -0.26676234150E+01 -0.15833313399E+03  0.16378938968E+03  0.41800000000E+01 0. -1.
        -11    1    3    3    0    0 -0.24656223013E+02 -0.42283965868E+02 -0.10718847556E+03  0.11783561599E+03  0.00000000000E+00 0.  1.
         11    1    3    3    0    0  0.60717900881E+02 -0.20002682990E+02 -0.20736864351E+03  0.21699890581E+03  0.00000000000E+00 0. -1.
</event>
<event>
 8    1  0.2184156E-005  0.2346570E+03  0.7561462E-02  0.1123404E+00
         -2   -1    0    0    0  501 -0.00000000000E+00  0.00000000000E+00  0.29558526636E+03  0.29558526636E+03  0.00000000000E+00 0.  1.
          2   -1    0    0  501    0  0.00000000000E+00 -0.00000000000E+00 -0.36156780921E+03  0.36156780921E+03  0.00000000000E+00 0. -1.
         23    2    1    2    0    0  0.10233870829E+03  0.18385749799E+03  0.18841457115E+03  0.30410616812E+03  0.11271078068E+03 0.  0.
         23    2    1    2    0    0 -0.10233870829E+03 -0.18385749799E+03 -0.25439711400E+03  0.35304690746E+03  0.12508971368E+03 0.  0.
          5    1    4    4  502    0 -0.88428670090E+02 -0.36164828618E+02 -0.11342965455E+03  0.14836200138E+03  0.41800000000E+01 0. -1.
         -5    1    4    4    0  502 -0.13910038197E+02 -0.14769266938E+03 -0.14096745945E+03  0.20468490607E+03  0.41800000000E+01 0. -1.
        -11    1    3    3    0    0  0.87592802705E+02  0.74669605956E+02  0.14630628371E+03  0.18615471467E+03  0.00000000000E+00 0.  1.
         11    1    3    3    0    0  0.14745905583E+02  0.10918789204E+03  0.42108287440E+02  0.11795145345E+03  0.00000000000E+00 0. -1.
</event>
<event>
 8    1  0.2184156E-005  0.1169343E+03  0.7561462E-02  0.1248242E+00
         -1   -1    0    0    0  501 -0.00000000000E+00  0.00000000000E+00  0.61590217174E+02  0.61590217174E+02  0.00000000000E+00 0.  1.
          1   -1    0    0  501    0  0.00000000000E+00 -0.00000000000E+00 -0.26184307292E+03  0.26184307292E+03  0.00000000000E+00 0. -1.
         23    2    1    2    0    0  0.37268104568E+02  0.35625346713E+02 -0.40025706859E+02  0.11372328593E+03  0.93128146159E+02 0.  0.
         23    2    1    2    0    0 -0.37268104568E+02 -0.35625346713E+02 -0.16022714889E+03  0.20971000417E+03  0.12508984635E+03 0.  0.
          5    1    4    4  502    0  0.16824093681E+02  0.34769786172E+02 -0.84282245014E+02  0.92806020189E+02  0.41800000000E+01 0. -1.
         -5    1    4    4    0  502 -0.54092198249E+02 -0.70395132885E+02 -0.75944903877E+02  0.11690398398E+03  0.41800000000E+01 0. -1.
        -11    1    3    3    0    0 -0.17400856819E+02  0.47160559847E+02 -0.23263187130E+02  0.55390288847E+02  0.00000000000E+00 0.  1.
         11    1    3    3    0    0  0.54668961386E+02 -0.11535213135E+02 -0.16762519729E+02  0.58332997084E+02  0.00000000000E+00 0. -1.
</event>
<event>
 8    1  0.2184156E-005  0.1221044E+03  0.7561462E-02  0.1239665E+00
         -2   -1    0    0    0  501 -0.00000000000E+00  0.00000000000E+00  0.29448308241E+02  0.29448308241E+02  0.00000000000E+00 0.  1.
          2   -1    0    0  501    0  0.00000000000E+00 -0.00000000000E+00 -0.54964905123E+03  0.54964905123E+03  0.00000000000E+00 0. -1.
         23    2    1    2    0    0  0.35165316821E+02  0.46749249067E+02 -0.16099235996E+03  0.19428135155E+03  0.91676669882E+02 0.  0.
         23    2    1    2    0    0 -0.35165316821E+02 -0.46749249067E+02 -0.35920838304E+03  0.38481600792E+03  0.12502242085E+03 0.  0.
          5    1    4    4  502    0 -0.50648088640E+02 -0.83060802516E+02 -0.27473090153E+03  0.29147704275E+03  0.41800000000E+01 0. -1.
         -5    1    4    4    0  502  0.15482771819E+02  0.36311553449E+02 -0.84477481506E+02  0.93338965168E+02  0.41800000000E+01 0. -1.
        -11    1    3    3    0    0 -0.29043733245E+02  0.27770383081E+02 -0.44824588276E+02  0.60199471188E+02  0.00000000000E+00 0.  1.
         11    1    3    3    0    0  0.64209050065E+02  0.18978865986E+02 -0.11616777168E+03  0.13408188036E+03  0.00000000000E+00 0. -1.
</event>
<event>
 8    1  0.2184156E-005  0.8888584E+02  0.7561462E-02  0.1305572E+00
         -1   -1    0    0    0  501 -0.00000000000E+00  0.00000000000E+00  0.92093045596E+02  0.92093045596E+02  0.00000000000E+00 0.  1.
          1   -1    0    0  501    0  0.00000000000E+00 -0.00000000000E+00 -0.14281450437E+03  0.14281450437E+03  0.00000000000E+00 0. -1.
         23    2    1    2    0    0  0.23404651083E+02  0.33729926196E+02 -0.25935846853E+02  0.10093801242E+03  0.88489143885E+02 0.  0.
         23    2    1    2    0    0 -0.23404651083E+02 -0.33729926196E+02 -0.24785611921E+02  0.13396953755E+03  0.12509206537E+03 0.  0.
          5    1    4    4  502    0 -0.32273343632E+01 -0.63238008225E+02 -0.57275395792E+02  0.85483359402E+02  0.41800000000E+01 0.  1.
         -5    1    4    4    0  502 -0.20177316720E+02  0.29508082029E+02  0.32489783872E+02  0.48486178145E+02  0.41800000000E+01 0.  1.
        -11    1    3    3    0    0 -0.10073192441E+02  0.42530960415E+02  0.16015333611E+02  0.46549357787E+02  0.00000000000E+00 0.  1.
         11    1    3    3    0    0  0.33477843524E+02 -0.88010342185E+01 -0.41951180464E+02  0.54388654632E+02  0.00000000000E+00 0. -1.
</event>
<event>
 8    1  0.2184156E-005  0.1013300E+03  0.7561462E-02  0.1277524E+00
          2   -1    0    0  501    0  0.00000000000E+00  0.00000000000E+00  0.78998323725E+02  0.78998323725E+02  0.00000000000E+00 0. -1.
         -2   -1    0    0    0  501 -0.00000000000E+00 -0.00000000000E+00 -0.18436337605E+03  0.18436337605E+03  0.00000000000E+00 0.  1.
         23    2    1    2    0    0  0.51058441916E+02 -0.21494462047E+02 -0.33935949552E+02  0.10901304528E+03  0.87539813679E+02 0.  0.
         23    2    1    2    0    0 -0.51058441916E+02  0.21494462047E+02 -0.71429102778E+02  0.15434865450E+03  0.12510960808E+03 0.  0.
          5    1    4    4  502    0  0.11508935720E+02  0.58659075434E+02 -0.13965280396E+02  0.61529214108E+02  0.41800000000E+01 0.  1.
         -5    1    4    4    0  502 -0.62567377636E+02 -0.37164613387E+02 -0.57463822382E+02  0.92819440394E+02  0.41800000000E+01 0.  1.
        -11    1    3    3    0    0  0.27566827662E+02 -0.33563554296E+02  0.20861259020E+02  0.48183340401E+02  0.00000000000E+00 0. -1.
         11    1    3    3    0    0  0.23491614253E+02  0.12069092249E+02 -0.54797208572E+02  0.60829704876E+02  0.00000000000E+00 0.  1.
</event>
<event>
 8    1  0.2184156E-005  0.1482298E+03  0.7561462E-02  0.1202665E+00
          1   -1    0    0  501    0  0.00000000000E+00  0.00000000000E+00  0.16000472651E+03  0.16000472651E+03  0.00000000000E+00 0. -1.
         -1   -1    0    0    0  501 -0.00000000000E+00 -0.00000000000E+00 -0.16937795119E+03  0.16937795119E+03  0.00000000000E+00 0.  1.
         23    2    1    2    0    0 -0.10884365560E+03 -0.92855192170E+01 -0.62052303761E+02  0.15516958279E+03  0.91071119404E+02 0.  0.
         23    2    1    2    0    0  0.10884365560E+03  0.92855192170E+01  0.52679079086E+02  0.17421309491E+03  0.12506780095E+03 0.  0.
          5    1    4    4  502    0  0.43455924535E+02  0.60491083770E+02  0.52210774561E+02  0.91055071101E+02  0.41800000000E+01 0. -1.
         -5    1    4    4    0  502  0.65387731063E+02 -0.51205564553E+02  0.46830452551E+00  0.83158023810E+02  0.41800000000E+01 0. -1.
        -11    1    3    3    0    0 -0.88708833937E+02  0.30752274464E+02 -0.25369190871E+02  0.97255105000E+02  0.00000000000E+00 0. -1.
         11    1    3    3    0    0 -0.20134821662E+02 -0.40037793681E+02 -0.36683112890E+02  0.57914477788E+02  0.00000000000E+00 0.  1.
</event>
<event>
 8    1  0.2184156E-005  0.1228043E+03  0.7561462E-02  0.1238541E+00
          2   -1    0    0  501    0  0.00000000000E+00  0.00000000000E+00  0.84922827151E+03  0.84922827151E+03  0.00000000000E+00 0. -1.
         -2   -1    0    0    0  501 -0.00000000000E+00 -0.00000000000E+00 -0.20589416445E+02  0.20589416445E+02  0.00000000000E+00 0.  1.
         23    2    1    2    0    0  0.70478453879E+01 -0.73765584309E+02  0.38286696818E+03  0.40093477312E+03  0.93115752782E+02 0.  0.
         23    2    1    2    0    0 -0.70478453879E+01  0.73765584309E+02  0.44577188688E+03  0.46888291484E+03  0.12509028395E+03 0.  0.
          5    1    4    4  502    0  0.51637895254E+02  0.32926044797E+02  0.11407564611E+03  0.12954274232E+03  0.41800000000E+01 0. -1.
         -5    1    4    4    0  502 -0.58685740642E+02  0.40839539512E+02  0.33169624077E+03  0.33934017251E+03  0.41800000000E+01 0. -1.
        -11    1    3    3    0    0  0.15385317071E+02  0.16148730949E+02  0.34714781892E+02  0.41262641390E+02  0.00000000000E+00 0.  1.
         11    1    3    3    0    0 -0.83374716833E+01 -0.89914315258E+02  0.34815218629E+03  0.35967213173E+03  0.00000000000E+00 0. -1.
</event>
<event>
 8    1  0.2184156E-005  0.9208416E+02  0.7561462E-02  0.1297882E+00
         -1   -1    0    0    0  501 -0.00000000000E+00  0.00000000000E+00  0.22060624300E+03  0.22060624300E+03  0.00000000000E+00 0.  1.
          1   -1    0    0  501    0  0.00000000000E+00 -0.00000000000E+00 -0.67055522429E+02  0.67055522429E+02  0.00000000000E+00 0. -1.
         23    2    1    2    0    0 -0.10647406611E+02  0.19428560875E+01  0.13185851236E+03  0.16024014743E+03  0.90405174680E+02 0.  0.
         23    2    1    2    0    0  0.10647406611E+02 -0.19428560875E+01  0.21692208207E+02  0.12742161800E+03  0.12509426397E+03 0.  0.
          5    1    4    4  502    0  0.38791663865E+02 -0.33455230437E+02 -0.30792630466E+02  0.59914139566E+02  0.41800000000E+01 0.  1.
         -5    1    4    4    0  502 -0.28144257254E+02  0.31512374349E+02  0.52484838673E+02  0.67507478430E+02  0.41800000000E+01 0.  1.
        -11    1    3    3    0    0  0.36619442794E+02 -0.15727201623E+02  0.48218481906E+02  0.62556777880E+02  0.00000000000E+00 0.  1.
         11    1    3    3    0    0 -0.47266849404E+02  0.17670057711E+02  0.83640030453E+02  0.97683369548E+02  0.00000000000E+00 0. -1.
</event>
<event>
 8    1  0.2184156E-005  0.1879667E+03  0.7561462E-02  0.1160308E+00
          2   -1    0    0  501    0  0.00000000000E+00  0.00000000000E+00  0.13887046301E+03  0.13887046301E+03  0.00000000000E+00 0. -1.
         -2   -1    0    0    0  501 -0.00000000000E+00 -0.00000000000E+00 -0.33044800590E+03  0.33044800590E+03  0.00000000000E+00 0.  1.
         23    2    1    2    0    0 -0.15676091378E+03  0.93416733582E+02 -0.12353586246E+03  0.23784838824E+03  0.89499029437E+02 0.  0.
         23    2    1    2    0    0  0.15676091378E+03 -0.93416733582E+02 -0.68041680433E+02  0.23147008068E+03  0.12509219708E+03 0.  0.
          5    1    4    4  502    0  0.46548541830E+02 -0.37374511133E+02 -0.87733773394E+02  0.10619937958E+03  0.41800000000E+01 0.  1.
         -5    1    4    4    0  502  0.11021237195E+03 -0.56042222449E+02  0.19692092961E+02  0.12527070110E+03  0.41800000000E+01 0.  1.
        -11    1    3    3    0    0 -0.33707314156E+02  0.53086747053E+02 -0.78863591469E+02  0.10086551343E+03  0.00000000000E+00 0.  1.
         11    1    3    3    0    0 -0.12305359963E+03  0.40329986529E+02 -0.44672270990E+02  0.13698287481E+03  0.00000000000E+00 0. -1.
</event>
<event>
 8    1  0.2184156E-005  0.1091630E+03  0.7561462E-02  0.1262128E+00
          1   -1    0    0  501    0  0.00000000000E+00  0.00000000000E+00  0.20167495787E+03  0.20167495787E+03  0.00000000000E+00 0. -1.
         -1   -1    0    0    0  501 -0.00000000000E+00 -0.00000000000E+00 -0.86244714365E+02  0.86244714365E+02  0.00000000000E+00 0.  1.
         23    2    1    2    0    0  0.60037391033E+01  0.27404097870E+02 -0.25198759800E+02  0.97627968225E+02  0.90051170015E+02 0.  0.
         23    2    1    2    0    0 -0.60037391033E+01 -0.27404097870E+02  0.14062900331E+03  0.19029170401E+03  0.12508951427E+03 0.  0.
          5    1    4    4  502    0 -0.30284268258E+02 -0.69608851332E+02  0.10579050187E+03  0.13027521550E+03  0.41800000000E+01 0. -1.
         -5    1    4    4    0  502  0.24280529154E+02  0.42204753462E+02  0.34838501440E+02  0.60016488512E+02  0.41800000000E+01 0. -1.
        -11    1    3    3    0    0  0.42453863223E+02 -0.73281253033E+01 -0.49676498907E+01  0.43367147341E+02  0.00000000000E+00 0. -1.
         11    1    3    3    0    0 -0.36450124120E+02  0.34732223173E+02 -0.20231109910E+02  0.54260820885E+02  0.00000000000E+00 0.  1.
</event>
<event>
 8    1  0.2184156E-005  0.1534064E+03  0.7561462E-02  0.1196349E+00
         -2   -1    0    0    0  501 -0.00000000000E+00  0.00000000000E+00  0.20498937153E+03  0.20498937153E+03  0.00000000000E+00 0.  1.
          2   -1    0    0  501    0  0.00000000000E+00 -0.00000000000E+00 -0.28433937833E+03  0.28433937833E+03  0.00000000000E+00 0. -1.
         23    2    1    2    0    0 -0.32724431302E+02 -0.12465945024E+03  0.13563370517E+03  0.20919387451E+03  0.93566597772E+02 0.  0.
         23    2    1    2    0    0  0.32724431302E+02  0.12465945024E+03 -0.21498371197E+03  0.28013487535E+03  0.12508671006E+03 0.  0.
          5    1    4    4  502    0  0.16366408488E+02  0.12901364630E+03 -0.10070518960E+03  0.16453385023E+03  0.41800000000E+01 0.  1.
         -5    1    4    4    0  502  0.16358022814E+02 -0.43541960584E+01 -0.11427852237E+03  0.11560102512E+03  0.41800000000E+01 0.  1.
        -11    1    3    3    0    0  0.31867564137E+02 -0.59595078390E+02  0.58268749769E+02  0.89232069414E+02  0.00000000000E+00 0. -1.
         11    1    3    3    0    0 -0.64591995439E+02 -0.65064371849E+02  0.77364955397E+02  0.11996180510E+03  0.00000000000E+00 0.  1.
</event>
<event>
 8    1  0.2184156E-005  0.1388818E+03  0.7561462E-02  0.1214841E+00
          2   -1    0    0  501    0  0.00000000000E+00  0.00000000000E+00  0.53868871427E+03  0.53868871427E+03  0.00000000000E+00 0. -1.
         -2   -1    0    0    0  501 -0.00000000000E+00 -0.00000000000E+00 -0.52454385748E+02  0.52454385748E+02  0.00000000000E+00 0.  1.
         23    2    1    2    0    0  0.11385292734E+03 -0.61036721218E+02  0.26279994096E+03  0.30432932813E+03  0.82852643842E+02 0.  0.
         23    2    1    2    0    0 -0.11385292734E+03  0.61036721218E+02  0.22343438756E+03  0.28681377189E+03  0.12510493115E+03 0.  0.
          5    1    4    4  502    0 -0.56264797273E+02  0.90788942021E+01  0.19643695407E+03  0.20458030955E+03  0.41800000000E+01 0.  1.
         -5    1    4    4    0  502 -0.57588130065E+02  0.51957827016E+02  0.26997433492E+02  0.82233462336E+02  0.41800000000E+01 0.  1.
        -11    1    3    3    0    0  0.96133521833E+02 -0.73724955434E+02  0.16842383558E+03  0.20746954347E+03  0.00000000000E+00 0.  1.
         11    1    3    3    0    0  0.17719405505E+02  0.12688234216E+02  0.94376105382E+02  0.96859784669E+02  0.00000000000E+00 0. -1.
</event>
<event>
 8    1  0.2184156E-005  0.1115498E+03  0.7561462E-02  0.1257727E+00
         -2   -1    0    0    0  501 -0.00000000000E+00  0.00000000000E+00  0.42418998382E+02  0.42418998382E+02  0.00000000000E+00 0.  1.
          2   -1    0    0  501    0  0.00000000000E+00 -0.00000000000E+00 -0.56566482416E+03  0.56566482416E+03  0.00000000000E+00 0. -1.
         23    2    1    2    0    0 -0.84400273716E+02  0.34361248188E+02 -0.11563497145E+03  0.17208245228E+03  0.89088844299E+02 0.  0.
         23    2    1    2    0    0  0.84400273716E+02 -0.34361248188E+02 -0.40761085433E+03  0.43600137027E+03  0.12508590939E+03 0.  0.
          5    1    4    4  502    0  0.10551785480E+03 -0.31599584718E+02 -0.20971167931E+03  0.23691562269E+03  0.41800000000E+01 0. -1.
         -5    1    4    4    0  502 -0.21117581081E+02 -0.27616634697E+01 -0.19789917502E+03  0.19908574758E+03  0.41800000000E+01 0. -1.
        -11    1    3    3    0    0 -0.45018132168E+02  0.19814731140E+02 -0.13190971652E+00  0.49186107736E+02  0.00000000000E+00 0.  1.
         11    1    3    3    0    0 -0.39382141549E+02  0.14546517048E+02 -0.11550306174E+03  0.12289634454E+03  0.00000000000E+00 0. -1.
</event>
<event>
 8    1  0.2184156E-005  0.1900607E+03  0.7561462E-02  0.1158407E+00
          1   -1    0    0  501    0  0.00000000000E+00  0.00000000000E+00  0.91860170342E+02  0.91860170342E+02  0.00000000000E+00 0. -1.
         -1   -1    0    0    0  501 -0.00000000000E+00 -0.00000000000E+00 -0.45730893027E+03  0.45730893027E+03  0.00000000000E+00 0.  1.
         23    2    1    2    0    0  0.13365656084E+03  0.11158030486E+03 -0.17327873491E+03  0.26126161963E+03  0.88982432154E+02 0.  0.
         23    2    1    2    0    0 -0.13365656084E+03 -0.11158030486E+03 -0.19217002502E+03  0.28790748098E+03  0.12508860221E+03 0.  0.
          5    1    4    4  502    0 -0.13903831311E+03 -0.65455642667E+02 -0.96579526170E+02  0.18155211633E+03  0.41800000000E+01 0.  1.
         -5    1    4    4    0  502  0.53817522741E+01 -0.46124662191E+02 -0.95590498848E+02  0.10635536465E+03  0.41800000000E+01 0.  1.
        -11    1    3    3    0    0  0.10440563648E+03  0.59869433556E+02 -0.16029635449E+03  0.20044901413E+03  0.00000000000E+00 0.  1.
         11    1    3    3    0    0  0.29250924357E+02  0.51710871302E+02 -0.12982380426E+02  0.60812605503E+02  0.00000000000E+00 0. -1.
</event>
<event>
 8    1  0.2184156E-005  0.2189052E+03  0.7561462E-02  0.1134702E+00
         -1   -1    0    0    0  501 -0.00000000000E+00  0.00000000000E+00  0.41028781012E+02  0.41028781012E+02  0.00000000000E+00 0.  1.
          1   -1    0    0  501    0  0.00000000000E+00 -0.00000000000E+00 -0.13867941997E+04  0.13867941997E+04  0.00000000000E+00 0. -1.
         23    2    1    2    0    0 -0.17830034877E+03  0.90590284016E+02 -0.43978645944E+03  0.49163737694E+03  0.91090979638E+02 0.  0.
         23    2    1    2    0    0  0.17830034877E+03 -0.90590284016E+02 -0.90597895924E+03  0.93618560376E+03  0.12509195086E+03 0.  0.
          5    1    4    4  502    0  0.85887976393E+02  0.40907018664E+01 -0.19749591193E+03  0.21544276725E+03  0.41800000000E+01 0. -1.
         -5    1    4    4    0  502  0.92412372380E+02 -0.94680985882E+02 -0.70848304731E+03  0.72074283651E+03  0.41800000000E+01 0. -1.
        -11    1    3    3    0    0 -0.93690051433E+02  0.96547081853E+02 -0.25494593506E+03  0.28826479937E+03  0.00000000000E+00 0.  1.
         11    1    3    3    0    0 -0.84610297340E+02 -0.59567978377E+01 -0.18484052438E+03  0.20337257757E+03  0.00000000000E+00 0. -1.
</event>
<event>
 8    1  0.2184156E-005  0.1085099E+03  0.7561462E-02  0.1263354E+00
          1   -1    0    0  501    0  0.00000000000E+00  0.00000000000E+00  0.35954944005E+02  0.35954944005E+02  0.00000000000E+00 0. -1.
         -1   -1    0    0    0  501 -0.00000000000E+00 -0.00000000000E+00 -0.40664280186E+03  0.40664280186E+03  0.00000000000E+00 0.  1.
         23    2    1    2    0    0 -0.49725852424E+02  0.19853971051E+02 -0.15538204278E+03  0.18790034869E+03  0.91083045917E+02 0.  0.
         23    2    1    2    0    0  0.49725852424E+02 -0.19853971051E+02 -0.21530581507E+03  0.25469739717E+03  0.12508928634E+03 0.  0.
          5    1    4    4  502    0 -0.36481443767E+02 -0.18899562831E+02 -0.11595230946E+03  0.12308736606E+03  0.41800000000E+01 0. -1.
         -5    1    4    4    0  502  0.86207296191E+02 -0.95440822084E+00 -0.99353505602E+02  0.13161003110E+03  0.41800000000E+01 0. -1.
        -11    1    3    3    0    0 -0.61906682346E+02 -0.46107357645E+01 -0.14658810218E+03  0.15919097934E+03  0.00000000000E+00 0.  1.
         11    1    3    3    0    0  0.12180829922E+02  0.24464706816E+02 -0.87939406049E+01  0.28709369351E+02  0.00000000000E+00 0. -1.
</event>
<event>
 6    1  0.2184156E-005  0.1327634E+03  0.7561462E-02  0.1223412E+00
         -2   -1    0    0    0  501 -0.00000000000E+00  0.00000000000E+00  0.73677234724E+03  0.73677234724E+03  0.00000000000E+00 0.  1.
          2   -1    0    0  501    0  0.00000000000E+00 -0.00000000000E+00 -0.40453544185E+02  0.40453544185E+02  0.00000000000E+00 0. -1.
          5    1    1    2  502    0 -0.88564747098E+01 -0.74473215591E+02  0.31763650551E+02  0.81554269545E+02  0.41800000000E+01 0. -1.
         -5    1    1    2    0  502  0.47683597405E+02  0.43379829962E+02  0.26537392466E+03  0.27312328242E+03  0.41800000000E+01 0.  1.
        -11    1    1    2    0    0 -0.65646481448E+02  0.58164166198E+02  0.18178192175E+03  0.20183458037E+03  0.00000000000E+00 0.  1.
         11    1    1    2    0    0  0.26819358753E+02 -0.27070780568E+02  0.21739930609E+03  0.22071375909E+03  0.00000000000E+00 0. -1.
</event>
<event>
 8    1  0.2184156E-005  0.1582184E+03  0.7561462E-02  0.1190723E+00
         -2   -1    0    0    0  501 -0.00000000000E+00  0.00000000000E+00  0.40674404886E+02  0.40674404886E+02  0.00000000000E+00 0. -1.
          2   -1    0    0  501    0  0.00000000000E+00 -0.00000000000E+00 -0.86699141732E+03  0.86699141732E+03  0.00000000000E+00 0.  1.
         23    2    1    2    0    0  0.15502733392E+02  0.13004688983E+03 -0.19591291947E+03  0.25176205056E+03  0.88598700839E+02 0.  0.
         23    2    1    2    0    0 -0.15502733392E+02 -0.13004688983E+03 -0.63040409297E+03  0.65590377165E+03  0.12509160216E+03 0.  0.
          5    1    4    4  502    0 -0.66400037841E+02 -0.10107682661E+03 -0.38474669279E+03  0.40332738552E+03  0.41800000000E+01 0.  1.
         -5    1    4    4    0  502  0.50897304449E+02 -0.28970063223E+02 -0.24565740019E+03  0.25257638613E+03  0.41800000000E+01 0.  1.
        -11    1    3    3    0    0  0.16156463553E+02  0.16244475824E+02  0.24808845555E+01  0.23044936483E+02  0.00000000000E+00 0. -1.
         11    1    3    3    0    0 -0.65373016061E+00  0.11380241401E+03 -0.19839380402E+03  0.22871711408E+03  0.00000000000E+00 0.  1.
</event>
<event>
 8    1  0.2184156E-005  0.8996621E+02  0.7561462E-02  0.1302934E+00
         -3   -1    0    0    0  501 -0.00000000000E+00  0.00000000000E+00  0.52331336589E+02  0.52331336589E+02  0.00000000000E+00 0.  1.
          3   -1    0    0  501    0  0.00000000000E+00 -0.00000000000E+00 -0.31455753536E+03  0.31455753536E+03  0.00000000000E+00 0. -1.
         23    2    1    2    0    0  0.34890571554E+02 -0.57258892077E+02 -0.10928541813E+03  0.15825423997E+03  0.92764050940E+02 0.  0.
         23    2    1    2    0    0 -0.34890571554E+02  0.57258892077E+02 -0.15294078063E+03  0.20863463198E+03  0.12506636068E+03 0.  0.
          5    1    4    4  502    0 -0.28272056502E+02  0.53002651096E+02 -0.49980940599E+01  0.60423865701E+02  0.41800000000E+01 0.  1.
         -5    1    4    4    0  502 -0.66185150517E+01  0.42562409807E+01 -0.14794268657E+03  0.14821076627E+03  0.41800000000E+01 0.  1.
        -11    1    3    3    0    0 -0.27169623451E+02 -0.36216224386E+02 -0.64803835162E+02  0.79052769711E+02  0.00000000000E+00 0.  1.
         11    1    3    3    0    0  0.62060195005E+02 -0.21042667691E+02 -0.44481582970E+02  0.79201470258E+02  0.00000000000E+00 0. -1.
</event>
<event>
 8    1  0.2184156E-005  0.1210613E+03  0.7561462E-02  0.1241356E+00
         -2   -1    0    0    0  501 -0.00000000000E+00  0.00000000000E+00  0.79320653843E+02  0.79320653843E+02  0.00000000000E+00 0.  1.
          2   -1    0    0  501    0  0.00000000000E+00 -0.00000000000E+00 -0.29238874467E+03  0.29238874467E+03  0.00000000000E+00 0. -1.
         23    2    1    2    0    0  0.88253995629E+02 -0.59109795213E+02 -0.10270262152E+03  0.17394561045E+03  0.91796030927E+02 0.  0.
         23    2    1    2    0    0 -0.88253995629E+02  0.59109795213E+02 -0.11036546931E+03  0.19776378806E+03  0.12508894203E+03 0.  0.
          5    1    4    4  502    0 -0.38908331612E+02  0.55409890704E+02  0.90480237348E+01  0.68435761048E+02  0.41800000000E+01 0. -1.
         -5    1    4    4    0  502 -0.49345664016E+02  0.36999045096E+01 -0.11941349304E+03  0.12932802701E+03  0.41800000000E+01 0. -1.
        -11    1    3    3    0    0 -0.45514498020E+01 -0.25531448086E+02 -0.61968886217E+02  0.67176732546E+02  0.00000000000E+00 0. -1.
         11    1    3    3    0    0  0.92805445431E+02 -0.33578347127E+02 -0.40733735300E+02  0.10676887790E+03  0.00000000000E+00 0.  1.
</event>
<event>
 8    1  0.2184156E-005  0.7423708E+02  0.7561462E-02  0.1346250E+00
          2   -1    0    0  501    0  0.00000000000E+00  0.00000000000E+00  0.20642136860E+03  0.20642136860E+03  0.00000000000E+00 0. -1.
         -2   -1    0    0    0  501 -0.00000000000E+00 -0.00000000000E+00 -0.64799079635E+02  0.64799079635E+02  0.00000000000E+00 0.  1.
         23    2    1    2    0    0 -0.24247307244E+02  0.56053453487E+02  0.83560488840E+02  0.12039623452E+03  0.61505905692E+02 0.  0.
         23    2    1    2    0    0  0.24247307244E+02 -0.56053453487E+02  0.58061800124E+02  0.15082421371E+03  0.12508736648E+03 0.  0.
          5    1    4    4  502    0  0.35256823359E+02 -0.18478700875E+02  0.91047663209E+02  0.99456801453E+02  0.41800000000E+01 0.  1.
         -5    1    4    4    0  502 -0.11009516115E+02 -0.37574752612E+02 -0.32985863085E+02  0.51367412262E+02  0.41800000000E+01 0.  1.
        -11    1    3    3    0    0 -0.18165025263E+02  0.67241474228E+01 -0.39384994595E+01  0.19765982884E+02  0.00000000000E+00 0.  1.
         11    1    3    3    0    0 -0.60822819805E+01  0.49329306064E+02  0.87498988299E+02  0.10063025164E+03  0.00000000000E+00 0. -1.
</event>
<event>
 8    1  0.2184156E-005  0.1025766E+03  0.7561462E-02  0.1274969E+00
          3   -1    0    0  501    0  0.00000000000E+00  0.00000000000E+00  0.16458167077E+03  0.16458167077E+03  0.00000000000E+00 0. -1.
         -3   -1    0    0    0  501 -0.00000000000E+00 -0.00000000000E+00 -0.13526678717E+03  0.13526678717E+03  0.00000000000E+00 0.  1.
         23    2    1    2    0    0  0.36437191387E+02  0.51236457686E+02 -0.66664372968E+02  0.13010587107E+03  0.92361006663E+02 0.  0.
         23    2    1    2    0    0 -0.36437191387E+02 -0.51236457686E+02  0.95979256572E+02  0.16974258686E+03  0.12509070545E+03 0.  0.
          5    1    4    4  502    0 -0.22579655543E+02 -0.89892356272E+02  0.42138256456E+02  0.10189986073E+03  0.41800000000E+01 0.  1.
         -5    1    4    4    0  502 -0.13857535844E+02  0.38655898586E+02  0.53841000115E+02  0.67842726129E+02  0.41800000000E+01 0.  1.
        -11    1    3    3    0    0  0.20603338879E+02  0.36223101939E+01 -0.76209233513E+02  0.79028260621E+02  0.00000000000E+00 0.  1.
         11    1    3    3    0    0  0.15833852507E+02  0.47614147492E+02  0.95448605444E+01  0.51077610451E+02  0.00000000000E+00 0. -1.
</event>
<event>
 8    1  0.2184156E-005  0.1007332E+03  0.7561462E-02  0.1278762E+00
          1   -1    0    0  501    0  0.00000000000E+00  0.00000000000E+00  0.27121768329E+03  0.27121768329E+03  0.00000000000E+00 0. -1.
         -1   -1    0    0    0  501 -0.00000000000E+00 -0.00000000000E+00 -0.53481807326E+02  0.53481807326E+02  0.00000000000E+00 0.  1.
         23    2    1    2    0    0  0.52280654495E+02 -0.94313826369E+01  0.87789277032E+02  0.13669736582E+03  0.90316082991E+02 0.  0.
         23    2    1    2    0    0 -0.52280654495E+02  0.94313826369E+01  0.12994659894E+03  0.18800212480E+03  0.12504584176E+03 0.  0.
          5    1    4    4  502    0 -0.38789951740E+02 -0.56356317187E+02  0.67642565734E+02  0.96299968546E+02  0.41800000000E+01 0.  1.
         -5    1    4    4    0  502 -0.13490702755E+02  0.65787699824E+02  0.62304033202E+02  0.91702156257E+02  0.41800000000E+01 0.  1.
        -11    1    3    3    0    0  0.42783908734E+02 -0.23385035341E+02  0.15084996563E+01  0.48781126428E+02  0.00000000000E+00 0.  1.
         11    1    3    3    0    0  0.94967457616E+01  0.13953652704E+02  0.86280777376E+02  0.87916239390E+02  0.00000000000E+00 0. -1.
</event>
<event>
 8    1  0.2184156E-005  0.8450055E+02  0.7561462E-02  0.1316744E+00
          1   -1    0    0  501    0  0.00000000000E+00  0.00000000000E+00  0.17892324060E+03  0.17892324060E+03  0.00000000000E+00 0. -1.
         -1   -1    0    0    0  501 -0.00000000000E+00 -0.00000000000E+00 -0.11028200940E+03  0.11028200940E+03  0.00000000000E+00 0.  1.
         23    2    1    2    0    0  0.32357165293E+02  0.55215404282E+02 -0.30375402220E+02  0.11730957312E+03  0.93504779930E+02 0.  0.
         23    2    1    2    0    0 -0.32357165293E+02 -0.55215404282E+02  0.99016633422E+02  0.17189567688E+03  0.12509237795E+03 0.  0.
          5    1    4    4  502    0 -0.25025966993E+02 -0.23003865788E+02  0.12503297107E+03  0.12963870225E+03  0.41800000000E+01 0.  1.
         -5    1    4    4    0  502 -0.73311982999E+01 -0.32211538493E+02 -0.26016337648E+02  0.42256974634E+02  0.41800000000E+01 0.  1.
        -11    1    3    3    0    0  0.56364712667E+02  0.22078932148E+02 -0.43266953576E+02  0.74407589334E+02  0.00000000000E+00 0.  1.
         11    1    3    3    0    0 -0.24007547373E+02  0.33136472134E+02  0.12891551357E+02  0.42901983786E+02  0.00000000000E+00 0. -1.
</event>
<event>
 8    1  0.2184156E-005  0.2336284E+03  0.7561462E-02  0.1124112E+00
         -1   -1    0    0    0  501 -0.00000000000E+00  0.00000000000E+00  0.19891730373E+03  0.19891730373E+03  0.00000000000E+00 0.  1.
          1   -1    0    0  501    0  0.00000000000E+00 -0.00000000000E+00 -0.33367601757E+03  0.33367601757E+03  0.00000000000E+00 0. -1.
         23    2    1    2    0    0  0.19876280763E+03 -0.12217326117E+03 -0.62488527252E+02  0.25817049107E+03  0.91182383043E+02 0.  0.
         23    2    1    2    0    0 -0.19876280763E+03  0.12217326117E+03 -0.72270186590E+02  0.27442283024E+03  0.12510775534E+03 0.  0.
          5    1    4    4  502    0 -0.45518661754E+02  0.33791880703E+02  0.35705057380E+02  0.67127962071E+02  0.41800000000E+01 0. -1.
         -5    1    4    4    0  502 -0.15324414587E+03  0.88381380471E+02 -0.10797524397E+03  0.20729486817E+03  0.41800000000E+01 0. -1.
        -11    1    3    3    0    0  0.30802699701E+02 -0.22564508622E+02 -0.49428078137E+02  0.62458772535E+02  0.00000000000E+00 0. -1.
         11    1    3    3    0    0  0.16796010793E+03 -0.99608752552E+02 -0.13060449116E+02  0.19571171853E+03  0.00000000000E+00 0.  1.
</event>
<event>
 8    1  0.2184156E-005  0.6161834E+02  0.7561462E-02  0.1391163E+00
         -2   -1    0    0    0  501 -0.00000000000E+00  0.00000000000E+00  0.31044783046E+02  0.31044783046E+02  0.00000000000E+00 0.  1.
          2   -1    0    0  501    0  0.00000000000E+00 -0.00000000000E+00 -0.79378368697E+03  0.79378368697E+03  0.00000000000E+00 0. -1.
         23    2    1    2    0    0  0.49549770979E+02 -0.17763658216E+02 -0.52598643293E+02  0.10384067893E+03  0.72426113848E+02 0.  0.
         23    2    1    2    0    0 -0.49549770979E+02  0.17763658216E+02 -0.71014026063E+03  0.72098779109E+03  0.11293129667E+03 0.  0.
          5    1    4    4  502    0 -0.47170399346E+02  0.70262895644E+01 -0.70725545707E+03  0.70887387403E+03  0.41800000000E+01 0. -1.
         -5    1    4    4    0  502 -0.23793716329E+01  0.10737368652E+02 -0.28848035584E+01  0.12113917059E+02  0.41800000000E+01 0.  1.
        -11    1    3    3    0    0  0.24767369122E+02 -0.27465829300E+02 -0.64762594186E+02  0.74578736635E+02  0.00000000000E+00 0. -1.
         11    1    3    3    0    0  0.24782401857E+02  0.97021710839E+01  0.12163950893E+02  0.29261942295E+02  0.00000000000E+00 0.  1.
</event>
<event>
 7    1  0.2184156E-005  0.1280133E+03  0.7561462E-02  0.1230434E+00
         -2   -1    0    0    0  501 -0.00000000000E+00  0.00000000000E+00  0.51353091251E+02  0.51353091251E+02  0.00000000000E+00 0.  1.
          2   -1    0    0  501    0  0.00000000000E+00 -0.00000000000E+00 -0.62945749296E+03  0.62945749296E+03  0.00000000000E+00 0. -1.
         23    2    1    2    0    0 -0.81759493795E+02  0.27744114971E+02 -0.13562887903E+03  0.18703603300E+03  0.95566385677E+02 0.  0.
          5    1    1    2  502    0  0.21407970968E+02 -0.67355874756E+02 -0.40721651254E+03  0.41332538704E+03  0.41800000000E+01 0. -1.
         -5    1    1    2    0  502  0.60351522827E+02  0.39611759785E+02 -0.35259010140E+02  0.80449164178E+02  0.41800000000E+01 0.  1.
        -11    1    3    3    0    0 -0.68611174893E+02 -0.13237853162E+02 -0.36211049240E+02  0.78701805339E+02  0.00000000000E+00 0.  1.
         11    1    3    3    0    0 -0.13148318902E+02  0.40981968133E+02 -0.99417829794E+02  0.10833422766E+03  0.00000000000E+00 0. -1.
</event>
<event>
 8    1  0.2184156E-005  0.1613204E+03  0.7561462E-02  0.1187214E+00
          1   -1    0    0  501    0  0.00000000000E+00  0.00000000000E+00  0.33497276482E+03  0.33497276482E+03  0.00000000000E+00 0. -1.
         -1   -1    0    0    0  501 -0.00000000000E+00 -0.00000000000E+00 -0.10424897100E+03  0.10424897100E+03  0.00000000000E+00 0.  1.
         23    2    1    2    0    0 -0.12306086157E+03 -0.32737030729E+02  0.12636132360E+02  0.15739500938E+03  0.91639665563E+02 0.  0.
         23    2    1    2    0    0  0.12306086157E+03  0.32737030729E+02  0.21808766145E+03  0.28182672644E+03  0.12509351233E+03 0.  0.
          5    1    4    4  502    0  0.61173371077E+02 -0.46132839204E+02  0.77075235385E+02  0.10875883638E+03  0.41800000000E+01 0.  1.
         -5    1    4    4    0  502  0.61887490495E+02  0.78869869933E+02  0.14101242607E+03  0.17306789006E+03  0.41800000000E+01 0.  1.
        -11    1    3    3    0    0 -0.49962157775E+01 -0.26899822392E+02 -0.21004191610E+02  0.34492588798E+02  0.00000000000E+00 0.  1.
         11    1    3    3    0    0 -0.11806464579E+03 -0.58372083365E+01  0.33640323970E+02  0.12290242058E+03  0.00000000000E+00 0. -1.
</event>
<event>
 8    1  0.2184156E-005  0.1021839E+03  0.7561462E-02  0.1275769E+00
          1   -1    0    0  501    0  0.00000000000E+00  0.00000000000E+00  0.14770463839E+03  0.14770463839E+03  0.00000000000E+00 0. -1.
         -1   -1    0    0    0  501 -0.00000000000E+00 -0.00000000000E+00 -0.89395932923E+02  0.89395932923E+02  0.00000000000E+00 0.  1.
         23    2    1    2    0    0 -0.24748540438E+01  0.86285974069E+01 -0.30557715536E+01  0.97479433454E+02  0.97017135656E+02 0.  0.
         23    2    1    2    0    0  0.24748540438E+01 -0.86285974069E+01  0.61364477023E+02  0.13962113786E+03  0.12509150851E+03 0.  0.
          5    1    4    4  502    0  0.61511231750E+02 -0.14146572687E+02  0.17149226674E+02  0.65538733019E+02  0.41800000000E+01 0.  1.
         -5    1    4    4    0  502 -0.59036377706E+02  0.55179752803E+01  0.44215250349E+02  0.74082404843E+02  0.41800000000E+01 0.  1.
        -11    1    3    3    0    0  0.38951496649E+02 -0.16601801016E+01  0.25078824172E+02  0.46356474316E+02  0.00000000000E+00 0. -1.
         11    1    3    3    0    0 -0.41426350693E+02  0.10288777508E+02 -0.28134595726E+02  0.51122959138E+02  0.00000000000E+00 0.  1.
</event>
<event>
 8    1  0.2184156E-005  0.1614030E+03  0.7561462E-02  0.1187122E+00
          4   -1    0    0  501    0  0.00000000000E+00  0.00000000000E+00  0.61173223404E+02  0.61173223404E+02  0.00000000000E+00 0. -1.
         -4   -1    0    0    0  501 -0.00000000000E+00 -0.00000000000E+00 -0.44628441530E+03  0.44628441530E+03  0.00000000000E+00 0.  1.
         23    2    1    2    0    0  0.94487351813E+02 -0.82614310993E+02 -0.16995836349E+03  0.22872542550E+03  0.87615586054E+02 0.  0.
         23    2    1    2    0    0 -0.94487351813E+02  0.82614310993E+02 -0.21515282841E+03  0.27873221320E+03  0.12509165867E+03 0.  0.
          5    1    4    4  502    0 -0.41577322816E+02 -0.28676998035E+02 -0.88429606271E+02  0.10192306733E+03  0.41800000000E+01 0. -1.
         -5    1    4    4    0  502 -0.52910028997E+02  0.11129130903E+03 -0.12672322214E+03  0.17680914587E+03  0.41800000000E+01 0. -1.
        -11    1    3    3    0    0  0.87693049499E+01 -0.59367795511E+02 -0.95687020535E+02  0.11294884573E+03  0.00000000000E+00 0.  1.
         11    1    3    3    0    0  0.85718046863E+02 -0.23246515481E+02 -0.74271342952E+02  0.11577657977E+03  0.00000000000E+00 0. -1.
</event>
<event>
 8    1  0.2184156E-005  0.1213803E+03  0.7561462E-02  0.1240837E+00
          2   -1    0    0  501    0  0.00000000000E+00  0.00000000000E+00  0.21234092463E+04  0.21234092463E+04  0.00000000000E+00 0. -1.
         -2   -1    0    0    0  501 -0.00000000000E+00 -0.00000000000E+00 -0.99900671759E+01  0.99900671759E+01  0.00000000000E+00 0.  1.
         23    2    1    2    0    0 -0.49173538269E+02 -0.26134733077E+02  0.37706760976E+03  0.39165699946E+03  0.90078642096E+02 0.  0.
         23    2    1    2    0    0  0.49173538269E+02  0.26134733077E+02  0.17363515694E+04  0.17417423140E+04  0.12509378418E+03 0.  0.
          5    1    4    4  502    0  0.24382642624E+01 -0.48483715477E+02  0.64284168752E+03  0.64468560044E+03  0.41800000000E+01 0. -1.
         -5    1    4    4    0  502  0.46735274006E+02  0.74618448554E+02  0.10935098819E+04  0.10970567136E+04  0.41800000000E+01 0. -1.
        -11    1    3    3    0    0  0.15625187154E+02 -0.37021530446E+02  0.14033472005E+03  0.14597456574E+03  0.00000000000E+00 0.  1.
         11    1    3    3    0    0 -0.64798725422E+02  0.10886797369E+02  0.23673288971E+03  0.24568243373E+03  0.00000000000E+00 0. -1.
</event>
<event>
 8    1  0.2184156E-005  0.2200316E+03  0.7561462E-02  0.1133860E+00
         -2   -1    0    0    0  501 -0.00000000000E+00  0.00000000000E+00  0.91272734837E+02  0.91272734837E+02  0.00000000000E+00 0.  1.
          2   -1    0    0  501    0  0.00000000000E+00 -0.00000000000E+00 -0.58134953905E+03  0.58134953905E+03  0.00000000000E+00 0. -1.
         23    2    1    2    0    0 -0.16036351266E+03 -0.11957928809E+03 -0.18972630236E+03  0.29068949101E+03  0.92133859370E+02 0.  0.
         23    2    1    2    0    0  0.16036351266E+03  0.11957928809E+03 -0.30035050185E+03  0.38193278288E+03  0.12508622763E+03 0.  0.
          5    1    4    4  502    0  0.11119056305E+03  0.14187286562E+03 -0.24798522493E+03  0.30660299329E+03  0.41800000000E+01 0.  1.
         -5    1    4    4    0  502  0.49172949610E+02 -0.22293577530E+02 -0.52365276927E+02  0.75329789593E+02  0.41800000000E+01 0.  1.
        -11    1    3    3    0    0 -0.12134566200E+03 -0.62573517587E+02 -0.72402491931E+02  0.15453910711E+03  0.00000000000E+00 0.  1.
         11    1    3    3    0    0 -0.39017850657E+02 -0.57005770505E+02 -0.11732381043E+03  0.13615038389E+03  0.00000000000E+00 0. -1.
</event>
<event>
 8    1  0.2184156E-005  0.9019281E+02  0.7561462E-02  0.1302385E+00
         -2   -1    0    0    0  501 -0.00000000000E+00  0.00000000000E+00  0.74501857711E+02  0.74501857711E+02  0.00000000000E+00 0.  1.
          2   -1    0    0  501    0  0.00000000000E+00 -0.00000000000E+00 -0.22364292755E+03  0.22364292755E+03  0.00000000000E+00 0. -1.
         23    2    1    2    0    0 -0.44108460628E+02 -0.31919934253E+02 -0.15544026904E+02  0.10719791621E+03  0.91023831856E+02 0.  0.
         23    2    1    2    0    0  0.44108460628E+02  0.31919934253E+02 -0.13359704293E+03  0.19094686905E+03  0.12509235955E+03 0.  0.
          5    1    4    4  502    0  0.26862984790E+02  0.46742352442E+02 -0.15204105543E+03  0.16137045083E+03  0.41800000000E+01 0. -1.
         -5    1    4    4    0  502  0.17245475838E+02 -0.14822418190E+02  0.18444012496E+02  0.29576418222E+02  0.41800000000E+01 0. -1.
        -11    1    3    3    0    0 -0.23448585695E+02 -0.62234783169E+02 -0.21790482964E+02  0.69984495104E+02  0.00000000000E+00 0. -1.
         11    1    3    3    0    0 -0.20659874934E+02  0.30314848917E+02  0.62464560602E+01  0.37213421106E+02  0.00000000000E+00 0.  1.
</event>
<event>
 7    1  0.2184156E-005  0.6848937E+02  0.7561462E-02  0.1365307E+00
          1   -1    0    0  501    0  0.00000000000E+00  0.00000000000E+00  0.34468872104E+02  0.34468872104E+02  0.00000000000E+00 0. -1.
         -1   -1    0    0    0  501 -0.00000000000E+00 -0.00000000000E+00 -0.18384975329E+03  0.18384975329E+03  0.00000000000E+00 0.  1.
         23    2    1    2    0    0  0.11818514925E+02  0.21896449951E+02 -0.11170262736E+03  0.16391420360E+03  0.11735100071E+03 0.  0.
          5    1    3    3  502    0  0.47249042244E+02  0.44858769743E+02 -0.10082244276E+03  0.12011418975E+03  0.41800000000E+01 0. -1.
         -5    1    3    3    0  502 -0.35430527318E+02 -0.22962319792E+02 -0.10880184602E+02  0.43800013850E+02  0.41800000000E+01 0.  1.
        -11    1    1    2    0    0  0.24696163451E+01 -0.11061779443E+02  0.13885928750E+01  0.11418851059E+02  0.00000000000E+00 0. -1.
         11    1    1    2    0    0 -0.14288131271E+02 -0.10834670508E+02 -0.39066846700E+02  0.42985570734E+02  0.00000000000E+00 0.  1.
</event>
<event>
 8    1  0.2184156E-005  0.1195231E+03  0.7561462E-02  0.1243886E+00
          1   -1    0    0  501    0  0.00000000000E+00  0.00000000000E+00  0.61542209667E+03  0.61542209667E+03  0.00000000000E+00 0. -1.
         -1   -1    0    0    0  501 -0.00000000000E+00 -0.00000000000E+00 -0.25685635463E+02  0.25685635463E+02  0.00000000000E+00 0.  1.
         23    2    1    2    0    0  0.59429724193E+02  0.45937637148E+01  0.19288393361E+03  0.22075747674E+03  0.89312131945E+02 0.  0.
         23    2    1    2    0    0 -0.59429724193E+02 -0.45937637148E+01  0.39685252760E+03  0.42035025539E+03  0.12509761692E+03 0.  0.
          5    1    4    4  502    0 -0.68734204526E+02  0.44305446717E+02  0.17892807449E+03  0.19677421508E+03  0.41800000000E+01 0.  1.
         -5    1    4    4    0  502  0.93044803332E+01 -0.48899210432E+02  0.21792445311E+03  0.22357604030E+03  0.41800000000E+01 0.  1.
        -11    1    3    3    0    0  0.23914847669E+01  0.40003936602E+02  0.78091271346E+02  0.87774032626E+02  0.00000000000E+00 0.  1.
         11    1    3    3    0    0  0.57038239426E+02 -0.35410172888E+02  0.11479266226E+03  0.13298344412E+03  0.00000000000E+00 0. -1.
</event>
<event>
 7    1  0.2184156E-005  0.4961794E+03  0.7561462E-02  0.1014781E+00
         -2   -1    0    0    0  501 -0.00000000000E+00  0.00000000000E+00  0.64329384184E+03  0.64329384184E+03  0.00000000000E+00 0.  1.
          2   -1    0    0  501    0  0.00000000000E+00 -0.00000000000E+00 -0.47191521964E+03  0.47191521964E+03  0.00000000000E+00 0. -1.
         23    2    1    2    0    0 -0.51773994999E+02  0.26703652791E+02  0.11595787509E+03  0.15861790935E+03  0.91212832107E+02 0.  0.
          5    1    1    2  502    0 -0.36121434365E+03 -0.22569817386E+03 -0.15352411568E+03  0.45277212176E+03  0.41800000000E+01 0. -1.
         -5    1    1    2    0  502  0.41298833865E+03  0.19899452107E+03  0.20894486279E+03  0.50381903037E+03  0.41800000000E+01 0.  1.
        -11    1    3    3    0    0  0.67937299593E+01  0.45843640076E+02  0.55343539625E+02  0.72185188788E+02  0.00000000000E+00 0.  1.
         11    1    3    3    0    0 -0.58567724958E+02 -0.19139987285E+02  0.60614335468E+02  0.86432720566E+02  0.00000000000E+00 0. -1.
</event>
<event>
 8    1  0.2272432E-005  0.3394018E+03  0.7561462E-02  0.1067051E+00
         -1   -1    0    0    0  501 -0.00000000000E+00  0.00000000000E+00  0.30151668712E+03  0.30151668712E+03  0.00000000000E+00 0.  1.
          1   -1    0    0  501    0  0.00000000000E+00 -0.00000000000E+00 -0.48922194353E+03  0.48922194353E+03  0.00000000000E+00 0. -1.
         23    2    1    2    0    0 -0.23864545613E+03  0.23269657032E+03  0.68496173298E+02  0.35212023973E+03  0.90540542847E+02 0.  0.
         23    2    1    2    0    0  0.23864545613E+03 -0.23269657032E+03 -0.25620142971E+03  0.43861839093E+03  0.12509025824E+03 0.  0.
          5    1    4    4  502    0  0.13642245383E+03 -0.10544097773E+03 -0.58312655182E+02  0.18206241745E+03  0.41800000000E+01 0.  1.
         -5    1    4    4    0  502  0.10222300230E+03 -0.12725559259E+03 -0.19788877453E+03  0.25655597348E+03  0.41800000000E+01 0.  1.
        -11    1    3    3    0    0 -0.12576087210E+03  0.17711989290E+03  0.62994487725E+02  0.22617594677E+03  0.00000000000E+00 0.  1.
         11    1    3    3    0    0 -0.11288458403E+03  0.55576677418E+02  0.55016855733E+01  0.12594429296E+03  0.00000000000E+00 0. -1.
</event>
<event>
 7    1  0.2184156E-005  0.1661018E+03  0.7561462E-02  0.1181975E+00
          2   -1    0    0  501    0  0.00000000000E+00  0.00000000000E+00  0.27752631447E+03  0.27752631447E+03  0.00000000000E+00 0. -1.
         -2   -1    0    0    0  501 -0.00000000000E+00 -0.00000000000E+00 -0.24738734633E+03  0.24738734633E+03  0.00000000000E+00 0.  1.
         23    2    1    2    0    0  0.95265792898E+01 -0.32380163383E+02 -0.50530594720E+01  0.96086947906E+02  0.89821698126E+02 0.  0.
          5    1    1    2  502    0  0.87103477683E+02  0.93481479783E+02  0.19446599867E+03  0.23272365571E+03  0.41800000000E+01 0. -1.
         -5    1    1    2    0  502 -0.96630056973E+02 -0.61101316400E+02 -0.15927397107E+03  0.19610305718E+03  0.41800000000E+01 0.  1.
        -11    1    3    3    0    0  0.46203792241E+02 -0.10962999340E+02  0.14042261239E+02  0.49519318177E+02  0.00000000000E+00 0.  1.
         11    1    3    3    0    0 -0.36677212952E+02 -0.21417164043E+02 -0.19095320711E+02  0.46567629729E+02  0.00000000000E+00 0. -1.
</event>
<event>
 8    1  0.2184156E-005  0.1189823E+03  0.7561462E-02  0.1244785E+00
         -1   -1    0    0    0  501 -0.00000000000E+00  0.00000000000E+00  0.26086146036E+03  0.26086146036E+03  0.00000000000E+00 0.  1.
          1   -1    0    0  501    0  0.00000000000E+00 -0.00000000000E+00 -0.13071286932E+03  0.13071286932E+03  0.00000000000E+00 0. -1.
         23    2    1    2    0    0 -0.12115887509E+02  0.86785061107E+02  0.18759308573E+03  0.22839924298E+03  0.96418913173E+02 0.  0.
         23    2    1    2    0    0  0.12115887509E+02 -0.86785061107E+02 -0.57444494694E+02  0.16317508670E+03  0.12509115632E+03 0.  0.
          5    1    4    4  502    0  0.55359587483E+02 -0.82377679333E+02 -0.65198527423E+02  0.11882376175E+03  0.41800000000E+01 0. -1.
         -5    1    4    4    0  502 -0.43243699974E+02 -0.44073817740E+01  0.77540327287E+01  0.44351324953E+02  0.41800000000E+01 0. -1.
        -11    1    3    3    0    0  0.10703009224E+02  0.53764221628E+02  0.17919398444E+03  0.18739164867E+03  0.00000000000E+00 0.  1.
         11    1    3    3    0    0 -0.22818896733E+02  0.33020839479E+02  0.83991012904E+01  0.41007594302E+02  0.00000000000E+00 0. -1.
</event>
<event>
 8    1  0.2184156E-005  0.1541097E+03  0.7561462E-02  0.1195512E+00
          2   -1    0    0  501    0  0.00000000000E+00  0.00000000000E+00  0.41647457832E+03  0.41647457832E+03  0.00000000000E+00 0. -1.
         -2   -1    0    0    0  501 -0.00000000000E+00 -0.00000000000E+00 -0.60978012148E+02  0.60978012148E+02  0.00000000000E+00 0.  1.
         23    2    1    2    0    0 -0.81408682152E+02 -0.76248627485E+02  0.10644403805E+03  0.17725192830E+03  0.87445332220E+02 0.  0.
         23    2    1    2    0    0  0.81408682152E+02  0.76248627485E+02  0.24905252813E+03  0.30020066217E+03  0.12510814953E+03 0.  0.
          5    1    4    4  502    0  0.91900970009E+02  0.10328171685E+03  0.20529951327E+03  0.24754446848E+03  0.41800000000E+01 0.  1.
         -5    1    4    4    0  502 -0.10492287856E+02 -0.27033089367E+02  0.43753014859E+02  0.52656193695E+02  0.41800000000E+01 0.  1.
        -11    1    3    3    0    0  0.53310179735E+01 -0.49575009655E+02  0.27330233130E+02  0.56859853833E+02  0.00000000000E+00 0.  1.
         11    1    3    3    0    0 -0.86739700126E+02 -0.26673617830E+02  0.79113804915E+02  0.12039207447E+03  0.00000000000E+00 0. -1.
</event>
<event>
 8    1  0.2184156E-005  0.1022991E+03  0.7561462E-02  0.1275534E+00
          1   -1    0    0  501    0  0.00000000000E+00  0.00000000000E+00  0.15192138765E+03  0.15192138765E+03  0.00000000000E+00 0. -1.
         -1   -1    0    0    0  501 -0.00000000000E+00 -0.00000000000E+00 -0.11534772700E+03  0.11534772700E+03  0.00000000000E+00 0.  1.
         23    2    1    2    0    0 -0.58348754164E+02 -0.37432201483E+02 -0.14011694105E+02  0.11557149683E+03  0.91404028833E+02 0.  0.
         23    2    1    2    0    0  0.58348754164E+02  0.37432201483E+02  0.50585354755E+02  0.15169761782E+03  0.12509013676E+03 0.  0.
          5    1    4    4  502    0 -0.30693720433E+02 -0.11970496196E+02  0.35603119221E+02  0.48687285316E+02  0.41800000000E+01 0.  1.
         -5    1    4    4    0  502  0.89042474597E+02  0.49402697679E+02  0.14982235534E+02  0.10301033250E+03  0.41800000000E+01 0.  1.
        -11    1    3    3    0    0 -0.37653466164E+02 -0.21528577728E+02  0.37815217525E+02  0.57543495285E+02  0.00000000000E+00 0. -1.
         11    1    3    3    0    0 -0.20695287999E+02 -0.15903623755E+02 -0.51826911629E+02  0.58028001542E+02  0.00000000000E+00 0.  1.
</event>
<event>
 8    1  0.2184156E-005  0.1733642E+03  0.7561462E-02  0.1174384E+00
          2   -1    0    0  501    0  0.00000000000E+00  0.00000000000E+00  0.93623781355E+03  0.93623781355E+03  0.00000000000E+00 0.  1.
         -2   -1    0    0    0  501 -0.00000000000E+00 -0.00000000000E+00 -0.54780398515E+02  0.54780398515E+02  0.00000000000E+00 0. -1.
         23    2    1    2    0    0  0.98826474187E+02  0.13676276312E+03  0.19659216905E+03  0.27466598455E+03  0.91226075004E+02 0.  0.
         23    2    1    2    0    0 -0.98826474187E+02 -0.13676276312E+03  0.68486524598E+03  0.71635222751E+03  0.12509749531E+03 0.  0.
          5    1    4    4  502    0 -0.64508959342E+01 -0.49949420170E+02  0.58644358834E+02  0.77415708075E+02  0.41800000000E+01 0.  1.
         -5    1    4    4    0  502 -0.92375578253E+02 -0.86813342947E+02  0.62622088715E+03  0.63893651944E+03  0.41800000000E+01 0.  1.
        -11    1    3    3    0    0  0.28094156046E+02  0.28378063105E+02  0.77065896347E+00  0.39939829553E+02  0.00000000000E+00 0. -1.
         11    1    3    3    0    0  0.70732318142E+02  0.10838470001E+03  0.19582151009E+03  0.23472615500E+03  0.00000000000E+00 0.  1.
</event>
<event>
 8    1  0.2696571E-005  0.1051769E+03  0.7561462E-02  0.1269771E+00
          3   -1    0    0  501    0  0.00000000000E+00  0.00000000000E+00  0.39163144524E+03  0.39163144524E+03  0.00000000000E+00 0. -1.
         -3   -1    0    0    0  501 -0.00000000000E+00 -0.00000000000E+00 -0.63202186458E+02  0.63202186458E+02  0.00000000000E+00 0.  1.
         23    2    1    2    0    0  0.93630587439E+02 -0.27550292193E+02  0.68329792884E+02  0.15016153303E+03  0.91399233592E+02 0.  0.
         23    2    1    2    0    0 -0.93630587439E+02  0.27550292193E+02  0.26009946590E+03  0.30467209867E+03  0.12509056737E+03 0.  0.
          5    1    4    4  502    0 -0.56693981758E+02  0.30289200306E+02  0.29094836669E+02  0.70679736443E+02  0.41800000000E+01 0.  1.
         -5    1    4    4    0  502 -0.36936605681E+02 -0.27389081133E+01  0.23100462923E+03  0.23399236223E+03  0.41800000000E+01 0.  1.
        -11    1    3    3    0    0  0.54537810668E+02 -0.40006376376E+02 -0.31851592842E+01  0.67712836175E+02  0.00000000000E+00 0.  1.
         11    1    3    3    0    0  0.39092776771E+02  0.12456084183E+02  0.71514952169E+02  0.82448696851E+02  0.00000000000E+00 0. -1.
</event>
<event>
 8    1  0.2184156E-005  0.1104596E+03  0.7561462E-02  0.1259721E+00
          2   -1    0    0  501    0  0.00000000000E+00  0.00000000000E+00  0.70831679230E+03  0.70831679230E+03  0.00000000000E+00 0. -1.
         -2   -1    0    0    0  501 -0.00000000000E+00 -0.00000000000E+00 -0.22756468184E+02  0.22756468184E+02  0.00000000000E+00 0.  1.
         23    2    1    2    0    0  0.14593820202E+02  0.58128767845E+02  0.22448932740E+03  0.24959061073E+03  0.91148678592E+02 0.  0.
         23    2    1    2    0    0 -0.14593820202E+02 -0.58128767845E+02  0.46107099672E+03  0.48148264975E+03  0.12508854769E+03 0.  0.
          5    1    4    4  502    0  0.40080703307E+02 -0.68810046135E+02  0.21948896825E+03  0.23352551212E+03  0.41800000000E+01 0. -1.
         -5    1    4    4    0  502 -0.54674523510E+02  0.10681278291E+02  0.24158202846E+03  0.24795713763E+03  0.41800000000E+01 0. -1.
        -11    1    3    3    0    0 -0.19095655556E+02  0.45481459177E+02  0.45792331501E+02  0.67306350475E+02  0.00000000000E+00 0.  1.
         11    1    3    3    0    0  0.33689475759E+02  0.12647308668E+02  0.17869699590E+03  0.18228426026E+03  0.00000000000E+00 0. -1.
</event>
<event>
 8    1  0.2184156E-005  0.1197192E+03  0.7561462E-02  0.1243561E+00
          2   -1    0    0  501    0  0.00000000000E+00  0.00000000000E+00  0.58672802037E+03  0.58672802037E+03  0.00000000000E+00 0.  1.
         -2   -1    0    0    0  501 -0.00000000000E+00 -0.00000000000E+00 -0.34441858883E+02  0.34441858883E+02  0.00000000000E+00 0. -1.
         23    2    1    2    0    0  0.38596071431E+02  0.65132146704E+02  0.13924709541E+03  0.18301368910E+03  0.91500839094E+02 0.  0.
         23    2    1    2    0    0 -0.38596071431E+02 -0.65132146704E+02  0.41303906608E+03  0.43815619015E+03  0.12509086137E+03 0.  0.
          5    1    4    4  502    0  0.23185122293E+02 -0.55002608823E+02  0.32247771989E+03  0.32798199508E+03  0.41800000000E+01 0.  1.
         -5    1    4    4    0  502 -0.61781193724E+02 -0.10129537881E+02  0.90561346189E+02  0.11017419507E+03  0.41800000000E+01 0.  1.
        -11    1    3    3    0    0  0.65931244463E+02  0.59791102956E+02  0.11889016403E+03  0.14851523858E+03  0.00000000000E+00 0.  1.
         11    1    3    3    0    0 -0.27335173032E+02  0.53410437484E+01  0.20356931386E+02  0.34498450522E+02  0.00000000000E+00 0. -1.
</event>
<event>
 8    1  0.2184156E-005  0.2997931E+03  0.7561462E-02  0.1085344E+00
          2   -1    0    0  501    0  0.00000000000E+00  0.00000000000E+00  0.22290434189E+04  0.22290434189E+04  0.00000000000E+00 0. -1.
         -2   -1    0    0    0  501 -0.00000000000E+00 -0.00000000000E+00 -0.86968881647E+02  0.86968881647E+02  0.00000000000E+00 0.  1.
         23    2    1    2    0    0 -0.28895528916E+03  0.12954933355E+02  0.23683749026E+03  0.38488891310E+03  0.91566856476E+02 0.  0.
         23    2    1    2    0    0  0.28895528916E+03 -0.12954933355E+02  0.19052370470E+04  0.19311233875E+04  0.12508534235E+03 0.  0.
          5    1    4    4  502    0  0.65824948968E+01  0.11621499588E+02  0.18432112776E+02  0.23143112866E+02  0.41800000000E+01 0.  1.
         -5    1    4    4    0  502  0.28237279426E+03 -0.24576432944E+02  0.18868049342E+04  0.19079802746E+04  0.41800000000E+01 0.  1.
        -11    1    3    3    0    0 -0.85080356343E+02  0.44180882575E+02  0.91919652687E+02  0.13281505928E+03  0.00000000000E+00 0.  1.
         11    1    3    3    0    0 -0.20387493282E+03 -0.31225949220E+02  0.14491783757E+03  0.25207385383E+03  0.00000000000E+00 0. -1.
</event>
<event>
 8    1  0.2184156E-005  0.1008106E+03  0.7561462E-02  0.1278601E+00
         -1   -1    0    0    0  501 -0.00000000000E+00  0.00000000000E+00  0.58343260087E+02  0.58343260087E+02  0.00000000000E+00 0.  1.
          1   -1    0    0  501    0  0.00000000000E+00 -0.00000000000E+00 -0.30301293704E+03  0.30301293704E+03  0.00000000000E+00 0. -1.
         23    2    1    2    0    0 -0.18431267026E+02 -0.72787910514E+02 -0.96633064425E+02  0.15350991580E+03  0.92679844565E+02 0.  0.
         23    2    1    2    0    0  0.18431267026E+02  0.72787910514E+02 -0.14803661253E+03  0.20784628132E+03  0.12508975374E+03 0.  0.
          5    1    4    4  502    0  0.15671061223E+02 -0.17889362352E+02 -0.10427959909E+03  0.10703886505E+03  0.41800000000E+01 0. -1.
         -5    1    4    4    0  502  0.27602058033E+01  0.90677272866E+02 -0.43757013437E+02  0.10080741627E+03  0.41800000000E+01 0. -1.
        -11    1    3    3    0    0  0.11683781295E+02 -0.41984546421E+02  0.42770089325E+01  0.43789333050E+02  0.00000000000E+00 0.  1.
         11    1    3    3    0    0 -0.30115048321E+02 -0.30803364093E+02 -0.10091007336E+03  0.10972058275E+03  0.00000000000E+00 0. -1.
</event>
<event>
 8    1  0.2184156E-005  0.4099288E+03  0.7561462E-02  0.1040395E+00
          1   -1    0    0  501    0  0.00000000000E+00  0.00000000000E+00  0.15644746927E+03  0.15644746927E+03  0.00000000000E+00 0. -1.
         -1   -1    0    0    0  501 -0.00000000000E+00 -0.00000000000E+00 -0.11139296039E+04  0.11139296039E+04  0.00000000000E+00 0.  1.
         23    2    1    2    0    0  0.19697561686E+03  0.34909642869E+03 -0.53078427447E+03  0.67172306501E+03  0.93873424796E+02 0.  0.
         23    2    1    2    0    0 -0.19697561686E+03 -0.34909642869E+03 -0.42669786018E+03  0.59865400817E+03  0.12509135648E+03 0.  0.
          5    1    4    4  502    0 -0.17885474204E+03 -0.24522596363E+03 -0.25181619874E+03  0.39440291878E+03  0.41800000000E+01 0. -1.
         -5    1    4    4    0  502 -0.18120874816E+02 -0.10387046505E+03 -0.17488166143E+03  0.20425108940E+03  0.41800000000E+01 0. -1.
        -11    1    3    3    0    0  0.20450677936E+03  0.31282686741E+03 -0.49470192990E+03  0.62001102508E+03  0.00000000000E+00 0. -1.
         11    1    3    3    0    0 -0.75311624990E+01  0.36269561278E+02 -0.36082344571E+02  0.51712039929E+02  0.00000000000E+00 0.  1.
</event>
<event>
 8    1  0.2184156E-005  0.1023363E+03  0.7561462E-02  0.1275458E+00
          2   -1    0    0  501    0  0.00000000000E+00  0.00000000000E+00  0.41712889836E+03  0.41712889836E+03  0.00000000000E+00 0. -1.
         -2   -1    0    0    0  501 -0.00000000000E+00 -0.00000000000E+00 -0.35592520095E+02  0.35592520095E+02  0.00000000000E+00 0.  1.
         23    2    1    2    0    0 -0.32788338590E+01 -0.13047827547E+02  0.64568486401E+02  0.11169930107E+03  0.90147922157E+02 0.  0.
         23    2    1    2    0    0  0.32788338590E+01  0.13047827547E+02  0.31696789186E+03  0.34102211738E+03  0.12508574465E+03 0.  0.
          5    1    4    4  502    0 -0.27252955789E+02  0.57082981331E+02  0.23180758057E+03  0.24031940656E+03  0.41800000000E+01 0. -1.
         -5    1    4    4    0  502  0.30531789648E+02 -0.44035153784E+02  0.85160311291E+02  0.10070271082E+03  0.41800000000E+01 0. -1.
        -11    1    3    3    0    0  0.39266376958E+02 -0.20569241740E+02  0.17097184449E+02  0.47510585992E+02  0.00000000000E+00 0.  1.
         11    1    3    3    0    0 -0.42545210817E+02  0.75214141929E+01  0.47471301952E+02  0.64188715083E+02  0.00000000000E+00 0. -1.
</event>
<event>
 8    1  0.2184156E-005  0.1810534E+03  0.7561462E-02  0.1166787E+00
         -1   -1    0    0    0  501 -0.00000000000E+00  0.00000000000E+00  0.37035967127E+02  0.37035967127E+02  0.00000000000E+00 0.  1.
          1   -1    0    0  501    0  0.00000000000E+00 -0.00000000000E+00 -0.10290978193E+04  0.10290978193E+04  0.00000000000E+00 0. -1.
         23    2    1    2    0    0 -0.15392388339E+03 -0.25455476008E+02 -0.35166196842E+03  0.39523944700E+03  0.90595459581E+02 0.  0.
         23    2    1    2    0    0  0.15392388339E+03  0.25455476008E+02 -0.64039988379E+03  0.67089433947E+03  0.12508661171E+03 0.  0.
          5    1    4    4  502    0  0.98279858130E+02  0.70185814494E+02 -0.48501101449E+03  0.49983810944E+03  0.41800000000E+01 0. -1.
         -5    1    4    4    0  502  0.55644025258E+02 -0.44730338486E+02 -0.15538886930E+03  0.17105623003E+03  0.41800000000E+01 0. -1.
        -11    1    3    3    0    0 -0.56557279493E+02 -0.42702780643E+02 -0.84027105288E+02  0.10992182568E+03  0.00000000000E+00 0.  1.
         11    1    3    3    0    0 -0.97366603896E+02  0.17247304636E+02 -0.26763486313E+03  0.28531762132E+03  0.00000000000E+00 0. -1.
</event>
<event>
 8    1  0.2184156E-005  0.9055303E+02  0.7561462E-02  0.1301518E+00
          1   -1    0    0  501    0  0.00000000000E+00  0.00000000000E+00  0.14941861708E+03  0.14941861708E+03  0.00000000000E+00 0. -1.
         -1   -1    0    0    0  501 -0.00000000000E+00 -0.00000000000E+00 -0.99802052017E+02  0.99802052017E+02  0.00000000000E+00 0.  1.
         23    2    1    2    0    0 -0.42350198090E+02  0.15211330945E+02 -0.14447733755E+02  0.10165073343E+03  0.89995615058E+02 0.  0.
         23    2    1    2    0    0  0.42350198090E+02 -0.15211330945E+02  0.64064298817E+02  0.14756993566E+03  0.12509087761E+03 0.  0.
          5    1    4    4  502    0 -0.11433828673E+02  0.26585863556E+02  0.73099381480E+02  0.78730759884E+02  0.41800000000E+01 0.  1.
         -5    1    4    4    0  502  0.53784026763E+02 -0.41797194501E+02 -0.90350826632E+01  0.68839175777E+02  0.41800000000E+01 0.  1.
        -11    1    3    3    0    0 -0.62176737965E+02  0.88725461405E+01 -0.35417121865E+02  0.72104378093E+02  0.00000000000E+00 0.  1.
         11    1    3    3    0    0  0.19826539875E+02  0.63387848047E+01  0.20969388110E+02  0.29546355341E+02  0.00000000000E+00 0. -1.
</event>
<event>
 8    1  0.2184156E-005  0.1152943E+03  0.7561462E-02  0.1251068E+00
         -1   -1    0    0    0  501 -0.00000000000E+00  0.00000000000E+00  0.88306222282E+02  0.88306222282E+02  0.00000000000E+00 0.  1.
          1   -1    0    0  501    0  0.00000000000E+00 -0.00000000000E+00 -0.15560099512E+03  0.15560099512E+03  0.00000000000E+00 0. -1.
         23    2    1    2    0    0  0.44627359403E+02  0.74641040635E+01 -0.19899336705E+02  0.10367763167E+03  0.91135907578E+02 0.  0.
         23    2    1    2    0    0 -0.44627359403E+02 -0.74641040635E+01 -0.47395436132E+02  0.14022958573E+03  0.12397860820E+03 0.  0.
          5    1    4    4  502    0 -0.86802027038E+02 -0.29457505805E+00 -0.43181231421E+02  0.97040042351E+02  0.41800000000E+01 0.  1.
         -5    1    4    4    0  502  0.42174667635E+02 -0.71695290054E+01 -0.42142047119E+01  0.43189543383E+02  0.41800000000E+01 0.  1.
        -11    1    3    3    0    0  0.15592832421E+02  0.48210416270E+02 -0.25902482149E+01  0.50735490987E+02  0.00000000000E+00 0.  1.
         11    1    3    3    0    0  0.29034526982E+02 -0.40746312207E+02 -0.17309088490E+02  0.52942140681E+02  0.00000000000E+00 0. -1.
</event>
<event>
 8    1  0.2184156E-005  0.3539123E+03  0.7561462E-02  0.1061021E+00
          1   -1    0    0  501    0  0.00000000000E+00  0.00000000000E+00  0.11667395501E+04  0.11667395501E+04  0.00000000000E+00 0. -1.
         -1   -1    0    0    0  501 -0.00000000000E+00 -0.00000000000E+00 -0.11567446938E+03  0.11567446938E+03  0.00000000000E+00 0.  1.
         23    2    1    2    0    0 -0.34723901482E+03 -0.48030712666E+01  0.43088848472E+03  0.56070695068E+03  0.90163159678E+02 0.  0.
         23    2    1    2    0    0  0.34723901482E+03  0.48030712666E+01  0.62017659598E+03  0.72170706879E+03  0.12507629689E+03 0.  0.
          5    1    4    4  502    0  0.48707939838E+02  0.33335811875E+02  0.50029521547E+02  0.77486548400E+02  0.41800000000E+01 0.  1.
         -5    1    4    4    0  502  0.29853107498E+03 -0.28532740608E+02  0.57014707443E+03  0.64422052040E+03  0.41800000000E+01 0.  1.
        -11    1    3    3    0    0 -0.18796374243E+03 -0.18487964891E+02  0.29806028937E+03  0.35286273452E+03  0.00000000000E+00 0. -1.
         11    1    3    3    0    0 -0.15927527239E+03  0.13684893624E+02  0.13282819535E+03  0.20784421615E+03  0.00000000000E+00 0.  1.
</event>
<event>
 8    1  0.2184156E-005  0.1604252E+03  0.7561462E-02  0.1188218E+00
          1   -1    0    0  501    0  0.00000000000E+00  0.00000000000E+00  0.24274492974E+03  0.24274492974E+03  0.00000000000E+00 0. -1.
         -1   -1    0    0    0  501 -0.00000000000E+00 -0.00000000000E+00 -0.13647000653E+03  0.13647000653E+03  0.00000000000E+00 0.  1.
         23    2    1    2    0    0  0.53247778067E+01  0.14525332036E+03  0.63730483756E+02  0.18278610143E+03  0.90676920887E+02 0.  0.
         23    2    1    2    0    0 -0.53247778067E+01 -0.14525332036E+03  0.42544439458E+02  0.19642883484E+03  0.12508947794E+03 0.  0.
          5    1    4    4  502    0  0.27513048859E+02 -0.44135725884E+02  0.69273203508E+02  0.86724732811E+02  0.41800000000E+01 0.  1.
         -5    1    4    4    0  502 -0.32837826666E+02 -0.10111759448E+03 -0.26728764050E+02  0.10970410202E+03  0.41800000000E+01 0.  1.
        -11    1    3    3    0    0 -0.28739394202E+02  0.10816407810E+03  0.70051094763E+02  0.13203248254E+03  0.00000000000E+00 0.  1.
         11    1    3    3    0    0  0.34064172009E+02  0.37089242267E+02 -0.63206110074E+01  0.50753618887E+02  0.00000000000E+00 0. -1.
</event>
<event>
 8    1  0.3526581E-005  0.1675991E+03  0.7561462E-02  0.1180375E+00
          2   -1    0    0  501    0  0.00000000000E+00  0.00000000000E+00  0.18073388379E+04  0.18073388379E+04  0.00000000000E+00 0.  1.
         -2   -1    0    0    0  501 -0.00000000000E+00 -0.00000000000E+00 -0.17654459545E+02  0.17654459545E+02  0.00000000000E+00 0. -1.
         23    2    1    2    0    0 -0.76085805157E+02  0.11828633741E+03  0.76438719154E+03  0.78256246030E+03  0.91299059826E+02 0.  0.
         23    2    1    2    0    0  0.76085805157E+02 -0.11828633741E+03  0.10252971868E+04  0.10424308372E+04  0.12508805524E+03 0.  0.
          5    1    4    4  502    0  0.14101702708E+02 -0.12488210154E+03  0.68786040404E+03  0.69925946912E+03  0.41800000000E+01 0.  1.
         -5    1    4    4    0  502  0.61984102449E+02  0.65957641267E+01  0.33743678280E+03  0.34317136805E+03  0.41800000000E+01 0.  1.
        -11    1    3    3    0    0 -0.52229115608E+02  0.10992041587E+03  0.72890837710E+03  0.73899783529E+03  0.00000000000E+00 0.  1.
         11    1    3    3    0    0 -0.23856689549E+02  0.83659215396E+01  0.35478814432E+02  0.43564625018E+02  0.00000000000E+00 0. -1.
</event>
<event>
 8    1  0.2184156E-005  0.1484689E+03  0.7561462E-02  0.1202367E+00
         -2   -1    0    0    0  501 -0.00000000000E+00  0.00000000000E+00  0.31312103049E+03  0.31312103049E+03  0.00000000000E+00 0.  1.
          2   -1    0    0  501    0  0.00000000000E+00 -0.00000000000E+00 -0.11054846065E+03  0.11054846065E+03  0.00000000000E+00 0. -1.
         23    2    1    2    0    0  0.10258354361E+03  0.74572420540E+02  0.18946971330E+03  0.24504856967E+03  0.89808685094E+02 0.  0.
         23    2    1    2    0    0 -0.10258354361E+03 -0.74572420540E+02  0.13102856544E+02  0.17862092147E+03  0.12509723983E+03 0.  0.
          5    1    4    4  502    0 -0.99598276063E+02 -0.66637238193E+01  0.36863430937E+02  0.10649228493E+03  0.41800000000E+01 0. -1.
         -5    1    4    4    0  502 -0.29852675422E+01 -0.67908696721E+02 -0.23760574393E+02  0.72128636533E+02  0.41800000000E+01 0. -1.
        -11    1    3    3    0    0  0.32720755780E+02  0.11145538282E+02  0.12763547110E+03  0.13223344647E+03  0.00000000000E+00 0.  1.
         11    1    3    3    0    0  0.69862787825E+02  0.63426882258E+02  0.61834242201E+02  0.11281512321E+03  0.00000000000E+00 0. -1.
</event>
<event>
 8    1  0.2184156E-005  0.1414869E+03  0.7561462E-02  0.1211342E+00
          3   -1    0    0  501    0  0.00000000000E+00  0.00000000000E+00  0.13506660250E+03  0.13506660250E+03  0.00000000000E+00 0. -1.
         -3   -1    0    0    0  501 -0.00000000000E+00 -0.00000000000E+00 -0.17238100905E+03  0.17238100905E+03  0.00000000000E+00 0.  1.
         23    2    1    2    0    0 -0.62011611665E+02  0.85562342321E+02 -0.61943793005E+02  0.14186114703E+03  0.71562540064E+02 0.  0.
         23    2    1    2    0    0  0.62011611665E+02 -0.85562342321E+02  0.24629386462E+02  0.16558646452E+03  0.12508363661E+03 0.  0.
          5    1    4    4  502    0  0.94845551740E+02 -0.74109567509E+02 -0.37667168865E+01  0.12049716693E+03  0.41800000000E+01 0.  1.
         -5    1    4    4    0  502 -0.32833940075E+02 -0.11452774812E+02  0.28396103349E+02  0.45089297590E+02  0.41800000000E+01 0.  1.
        -11    1    3    3    0    0 -0.75738829126E+02  0.53778519352E+02 -0.47737381461E+02  0.10443829264E+03  0.00000000000E+00 0. -1.
         11    1    3    3    0    0  0.13727217461E+02  0.31783822970E+02 -0.14206411544E+02  0.37422854390E+02  0.00000000000E+00 0.  1.
</event>
<event>
 8    1  0.2184156E-005  0.2246668E+03  0.7561462E-02  0.1130451E+00
         -2   -1    0    0    0  501 -0.00000000000E+00  0.00000000000E+00  0.50005856851E+02  0.50005856851E+02  0.00000000000E+00 0. -1.
          2   -1    0    0  501    0  0.00000000000E+00 -0.00000000000E+00 -0.13849826711E+04  0.13849826711E+04  0.00000000000E+00 0.  1.
         23    2    1    2    0    0 -0.55624021006E+02  0.20903260603E+03 -0.37112449931E+03  0.43927500500E+03  0.91872051954E+02 0.  0.
         23    2    1    2    0    0  0.55624021006E+02 -0.20903260603E+03 -0.96385231495E+03  0.99571352297E+03  0.12508186395E+03 0.  0.
          5    1    4    4  502    0  0.20273076236E+02 -0.10712008556E+02 -0.32512294031E+03  0.32595727245E+03  0.41800000000E+01 0. -1.
         -5    1    4    4    0  502  0.35350944770E+02 -0.19832059747E+03 -0.63872937464E+03  0.66975625052E+03  0.41800000000E+01 0. -1.
        -11    1    3    3    0    0 -0.48956493240E+02  0.70429825624E+02 -0.20875114506E+03  0.22568593030E+03  0.00000000000E+00 0.  1.
         11    1    3    3    0    0 -0.66675277658E+01  0.13860278040E+03 -0.16237335425E+03  0.21358907470E+03  0.00000000000E+00 0. -1.
</event>
<event>
 8    1  0.2184156E-005  0.1264145E+03  0.7561462E-02  0.1232875E+00
         -2   -1    0    0    0  501 -0.00000000000E+00  0.00000000000E+00  0.13449566658E+02  0.13449566658E+02  0.00000000000E+00 0.  1.
          2   -1    0    0  501    0  0.00000000000E+00 -0.00000000000E+00 -0.13001056394E+04  0.13001056394E+04  0.00000000000E+00 0. -1.
         23    2    1    2    0    0  0.53500924943E+02  0.21180444185E+02 -0.41538339896E+03  0.43146931653E+03  0.10154527457E+03 0.  0.
         23    2    1    2    0    0 -0.53500924943E+02 -0.21180444185E+02 -0.87127267374E+03  0.88208588949E+03  0.12509390170E+03 0.  0.
          5    1    4    4  502    0 -0.76848267599E+02  0.28437844632E+02 -0.47886170753E+03  0.48583986516E+03  0.41800000000E+01 0.  1.
         -5    1    4    4    0  502  0.23347342656E+02 -0.49618288817E+02 -0.39241096622E+03  0.39624602434E+03  0.41800000000E+01 0.  1.
        -11    1    3    3    0    0  0.16733293112E+02  0.60016484804E+02 -0.19617512804E+03  0.20583163607E+03  0.00000000000E+00 0.  1.
         11    1    3    3    0    0  0.36767631832E+02 -0.38836040620E+02 -0.21920827092E+03  0.22563768045E+03  0.00000000000E+00 0. -1.
</event>
<event>
 8    1  0.2184156E-005  0.1021647E+03  0.7561462E-02  0.1275809E+00
          3   -1    0    0  501    0  0.00000000000E+00  0.00000000000E+00  0.11986559621E+03  0.11986559621E+03  0.00000000000E+00 0. -1.
         -3   -1    0    0    0  501 -0.00000000000E+00 -0.00000000000E+00 -0.10036777893E+03  0.10036777893E+03  0.00000000000E+00 0.  1.
         23    2    1    2    0    0 -0.15691935398E+01  0.39743081481E+01 -0.85397185794E+01  0.91967860278E+02  0.91470776957E+02 0.  0.
         23    2    1    2    0    0  0.15691935398E+01 -0.39743081481E+01  0.28037535852E+02  0.12826551486E+03  0.12509069267E+03 0.  0.
          5    1    4    4  502    0 -0.27477089908E+02 -0.57486947437E+02  0.10049601653E+02  0.64639047710E+02  0.41800000000E+01 0. -1.
         -5    1    4    4    0  502  0.29046283448E+02  0.53512639289E+02  0.17987934199E+02  0.63626467154E+02  0.41800000000E+01 0. -1.
        -11    1    3    3    0    0 -0.40415217199E+02  0.19020286569E+00 -0.27190292098E+02  0.48710757977E+02  0.00000000000E+00 0. -1.
         11    1    3    3    0    0  0.38846023659E+02  0.37841052824E+01  0.18650573518E+02  0.43257102301E+02  0.00000000000E+00 0.  1.
</event>
<event>
 8    1  0.2184156E-005  0.1760400E+03  0.7561462E-02  0.1171692E+00
         -1   -1    0    0    0  501 -0.00000000000E+00  0.00000000000E+00  0.65631287091E+02  0.65631287091E+02  0.00000000000E+00 0.  1.
          1   -1    0    0  501    0  0.00000000000E+00 -0.00000000000E+00 -0.52175642001E+03  0.52175642001E+03  0.00000000000E+00 0. -1.
         23    2    1    2    0    0  0.11531166219E+03 -0.87688220281E+02 -0.16873847908E+03  0.24209904734E+03  0.95672728553E+02 0.  0.
         23    2    1    2    0    0 -0.11531166219E+03  0.87688220281E+02 -0.28738665383E+03  0.34528865975E+03  0.12508863393E+03 0.  0.
          5    1    4    4  502    0 -0.13768965557E+03  0.65087115953E+02 -0.19481165194E+03  0.24731321446E+03  0.41800000000E+01 0.  1.
         -5    1    4    4    0  502  0.22377993382E+02  0.22601104329E+02 -0.92575001890E+02  0.97975445289E+02  0.41800000000E+01 0.  1.
        -11    1    3    3    0    0  0.12717875107E+03 -0.66882265903E+02 -0.11779120498E+03  0.18580215334E+03  0.00000000000E+00 0.  1.
         11    1    3    3    0    0 -0.11867088877E+02 -0.20805954378E+02 -0.50947274101E+02  0.56296894003E+02  0.00000000000E+00 0. -1.
</event>
<event>
 7    1  0.2184156E-005  0.9600040E+02  0.7561462E-02  0.1288939E+00
          2   -1    0    0  501    0  0.00000000000E+00  0.00000000000E+00  0.53988372943E+03  0.53988372943E+03  0.00000000000E+00 0.  1.
         -2   -1    0    0    0  501 -0.00000000000E+00 -0.00000000000E+00 -0.90141652620E+02  0.90141652620E+02  0.00000000000E+00 0. -1.
         23    2    1    2    0    0 -0.56437981104E+02 -0.69473680795E+02  0.64389523080E+02  0.14355703910E+03  0.91928095586E+02 0.  0.
          5    1    1    2  502    0  0.18675069741E+02  0.39202005140E+02 -0.39498732301E+02  0.58848769657E+02  0.41800000000E+01 0. -1.
         -5    1    1    2    0  502  0.37762911363E+02  0.30271675656E+02  0.42485128603E+03  0.42761957329E+03  0.41800000000E+01 0.  1.
        -11    1    3    3    0    0 -0.55569003680E+02 -0.35776075215E+02 -0.51378601236E+01  0.66289058935E+02  0.00000000000E+00 0. -1.
         11    1    3    3    0    0 -0.86897742393E+00 -0.33697605580E+02  0.69527383203E+02  0.77267980164E+02  0.00000000000E+00 0.  1.
</event>
<event>
 8    1  0.2184156E-005  0.1075624E+03  0.7561462E-02  0.1265152E+00
         -1   -1    0    0    0  501 -0.00000000000E+00  0.00000000000E+00  0.43632594584E+03  0.43632594584E+03  0.00000000000E+00 0.  1.
          1   -1    0    0  501    0  0.00000000000E+00 -0.00000000000E+00 -0.39169674777E+02  0.39169674777E+02  0.00000000000E+00 0. -1.
         23    2    1    2    0    0  0.29520981003E+02 -0.61327112470E+02  0.22668428002E+03  0.25336759693E+03  0.90426065500E+02 0.  0.
         23    2    1    2    0    0 -0.29520981003E+02  0.61327112470E+02  0.17047199104E+03  0.22212802369E+03  0.12509059171E+03 0.  0.
          5    1    4    4  502    0 -0.61902829482E+02 -0.74862618522E+01  0.52071426682E+02  0.81344393114E+02  0.41800000000E+01 0. -1.
         -5    1    4    4    0  502  0.32381848479E+02  0.68813374323E+02  0.11840056436E+03  0.14078363057E+03  0.41800000000E+01 0. -1.
        -11    1    3    3    0    0  0.12934095947E+02 -0.34647031571E-03 -0.44368147703E+01  0.13673922750E+02  0.00000000000E+00 0. -1.
         11    1    3    3    0    0  0.16586885056E+02 -0.61326766000E+02  0.23112109479E+03  0.23969367418E+03  0.00000000000E+00 0.  1.
</event>
<event>
 8    1  0.2184156E-005  0.1845185E+03  0.7561462E-02  0.1163500E+00
          1   -1    0    0  501    0  0.00000000000E+00  0.00000000000E+00  0.10306108337E+04  0.10306108337E+04  0.00000000000E+00 0. -1.
         -1   -1    0    0    0  501 -0.00000000000E+00 -0.00000000000E+00 -0.34234304319E+02  0.34234304319E+02  0.00000000000E+00 0.  1.
         23    2    1    2    0    0  0.14979233625E+03  0.51001587139E+01  0.37698745459E+03  0.41541915976E+03  0.89385579151E+02 0.  0.
         23    2    1    2    0    0 -0.14979233625E+03 -0.51001587139E+01  0.61938907479E+03  0.64942597825E+03  0.12509004615E+03 0.  0.
          5    1    4    4  502    0 -0.14507137885E+03 -0.47119353033E+02  0.49446605681E+03  0.51747472607E+03  0.41800000000E+01 0. -1.
         -5    1    4    4    0  502 -0.47209574014E+01  0.42019194319E+02  0.12492301798E+03  0.13195125218E+03  0.41800000000E+01 0. -1.
        -11    1    3    3    0    0  0.28481769629E+02  0.38727539130E+02  0.11947604080E+03  0.12878492852E+03  0.00000000000E+00 0.  1.
         11    1    3    3    0    0  0.12131056662E+03 -0.33627380416E+02  0.25751141378E+03  0.28663423124E+03  0.00000000000E+00 0. -1.
</event>
<event>
 8    1  0.2184156E-005  0.1084389E+03  0.7561462E-02  0.1263488E+00
          1   -1    0    0  501    0  0.00000000000E+00  0.00000000000E+00  0.27968943244E+03  0.27968943244E+03  0.00000000000E+00 0. -1.
         -1   -1    0    0    0  501 -0.00000000000E+00 -0.00000000000E+00 -0.51447803281E+02  0.51447803281E+02  0.00000000000E+00 0.  1.
         23    2    1    2    0    0 -0.42047202672E+02 -0.19474013745E+02  0.69670261490E+02  0.12391439818E+03  0.91398185307E+02 0.  0.
         23    2    1    2    0    0  0.42047202672E+02  0.19474013745E+02  0.15857136767E+03  0.20722283753E+03  0.12509684763E+03 0.  0.
          5    1    4    4  502    0  0.14754835520E+02 -0.47810828051E+02  0.10659873104E+03  0.11783183912E+03  0.41800000000E+01 0. -1.
         -5    1    4    4    0  502  0.27292367151E+02  0.67284841795E+02  0.51972636625E+02  0.89390998416E+02  0.41800000000E+01 0. -1.
        -11    1    3    3    0    0 -0.11640809675E+02 -0.49711527263E+02  0.12705669150E+02  0.52613481364E+02  0.00000000000E+00 0.  1.
         11    1    3    3    0    0 -0.30406392996E+02  0.30237513519E+02  0.56964592340E+02  0.71300916820E+02  0.00000000000E+00 0. -1.
</event>
<event>
 8    1  0.2184156E-005  0.1178573E+03  0.7561462E-02  0.1246674E+00
          1   -1    0    0  501    0  0.00000000000E+00  0.00000000000E+00  0.11313197270E+03  0.11313197270E+03  0.00000000000E+00 0. -1.
         -1   -1    0    0    0  501 -0.00000000000E+00 -0.00000000000E+00 -0.22233180946E+03  0.22233180946E+03  0.00000000000E+00 0.  1.
         23    2    1    2    0    0  0.69388984583E+02  0.95350652485E+01 -0.14714946509E+03  0.18710265251E+03  0.91916749570E+02 0.  0.
         23    2    1    2    0    0 -0.69388984583E+02 -0.95350652485E+01  0.37949628328E+02  0.14836112965E+03  0.12516030461E+03 0.  0.
          5    1    4    4  502    0  0.31334121017E+02 -0.22102946596E+02 -0.33051160239E+01  0.38713868059E+02  0.41800000000E+01 0.  1.
         -5    1    4    4    0  502 -0.10072310560E+03  0.12567881348E+02  0.41254744352E+02  0.10964726159E+03  0.41800000000E+01 0.  1.
        -11    1    3    3    0    0  0.21376477010E+02 -0.27560100373E+02 -0.87075748220E+01  0.35949057862E+02  0.00000000000E+00 0.  1.
         11    1    3    3    0    0  0.48012507573E+02  0.37095165621E+02 -0.13844189026E+03  0.15115359465E+03  0.00000000000E+00 0. -1.
</event>
<event>
 8    1  0.2184156E-005  0.4679538E+02  0.7561462E-02  0.1463435E+00
          1   -1    0    0  501    0  0.00000000000E+00  0.00000000000E+00  0.20877045540E+03  0.20877045540E+03  0.00000000000E+00 0. -1.
         -1   -1    0    0    0  501 -0.00000000000E+00 -0.00000000000E+00 -0.89659045133E+02  0.89659045133E+02  0.00000000000E+00 0.  1.
         23    2    1    2    0    0  0.32087242250E+02 -0.72218487955E+01 -0.33630643335E+02  0.98282192453E+02  0.86293817664E+02 0.  0.
         23    2    1    2    0    0 -0.32087242250E+02  0.72218487955E+01  0.15274205360E+03  0.20014730808E+03  0.12508822398E+03 0.  0.
          5    1    4    4  502    0 -0.21125880322E+02 -0.21807666501E+01 -0.18361550564E+02  0.28384458806E+02  0.41800000000E+01 0.  1.
         -5    1    4    4    0  502 -0.10961361928E+02  0.94026154456E+01  0.17110360416E+03  0.17176284927E+03  0.41800000000E+01 0.  1.
        -11    1    3    3    0    0  0.18047023117E+02  0.19595860936E+02  0.22263000218E+02  0.34717920270E+02  0.00000000000E+00 0. -1.
         11    1    3    3    0    0  0.14040219133E+02 -0.26817709731E+02 -0.55893643553E+02  0.63564272183E+02  0.00000000000E+00 0.  1.
</event>
<event>
 7    1  0.2184156E-005  0.2153118E+03  0.7561462E-02  0.1137427E+00
          1   -1    0    0  501    0  0.00000000000E+00  0.00000000000E+00  0.22808559425E+03  0.22808559425E+03  0.00000000000E+00 0. -1.
         -1   -1    0    0    0  501 -0.00000000000E+00 -0.00000000000E+00 -0.26406641010E+03  0.26406641010E+03  0.00000000000E+00 0.  1.
         23    2    1    2    0    0 -0.22458671797E+02 -0.11266549356E+03 -0.59283468901E+02  0.15749235656E+03  0.89952250167E+02 0.  0.
          5    1    1    2  502    0 -0.76337668677E+02 -0.55297761721E+02  0.88270855210E+02  0.12920719171E+03  0.41800000000E+01 0. -1.
         -5    1    1    2    0  502  0.98796340474E+02  0.16796325528E+03 -0.64968202157E+02  0.20545245608E+03  0.41800000000E+01 0.  1.
        -11    1    3    3    0    0 -0.52223088079E+02 -0.51544818032E+02 -0.50200205769E+02  0.88905454578E+02  0.00000000000E+00 0. -1.
         11    1    3    3    0    0  0.29764416282E+02 -0.61120675529E+02 -0.90832631326E+01  0.68586901977E+02  0.00000000000E+00 0.  1.
</event>
<event>
 8    1  0.2184156E-005  0.6701724E+02  0.7561462E-02  0.1370540E+00
          2   -1    0    0  501    0  0.00000000000E+00  0.00000000000E+00  0.31846494652E+03  0.31846494652E+03  0.00000000000E+00 0.  1.
         -2   -1    0    0    0  501 -0.00000000000E+00 -0.00000000000E+00 -0.11662051817E+03  0.11662051817E+03  0.00000000000E+00 0. -1.
         23    2    1    2    0    0  0.30663622306E+02  0.20401798381E+02 -0.86152922809E+02  0.11894163740E+03  0.73268655573E+02 0.  0.
         23    2    1    2    0    0 -0.30663622306E+02 -0.20401798381E+02  0.28799735116E+03  0.31614382728E+03  0.12509178289E+03 0.  0.
          5    1    4    4  502    0 -0.29008653525E+02  0.52610608969E+01  0.28855194097E+03  0.29008425634E+03  0.41800000000E+01 0. -1.
         -5    1    4    4    0  502 -0.16549687803E+01 -0.25662859278E+02 -0.55458980787E+00  0.26059570945E+02  0.41800000000E+01 0. -1.
        -11    1    3    3    0    0 -0.18605820724E+02 -0.91684222543E+01 -0.40682854515E+02  0.45665426560E+02  0.00000000000E+00 0. -1.
         11    1    3    3    0    0  0.49269443029E+02  0.29570220635E+02 -0.45470068294E+02  0.73276210843E+02  0.00000000000E+00 0.  1.
</event>
<event>
 8    1  0.2184156E-005  0.1898558E+03  0.7561462E-02  0.1158591E+00
          1   -1    0    0  501    0  0.00000000000E+00  0.00000000000E+00  0.21954556664E+03  0.21954556664E+03  0.00000000000E+00 0. -1.
         -1   -1    0    0    0  501 -0.00000000000E+00 -0.00000000000E+00 -0.21130831971E+03  0.21130831971E+03  0.00000000000E+00 0.  1.
         23    2    1    2    0    0  0.15151000211E+03  0.86771141959E+02 -0.57980062464E+02  0.20606006791E+03  0.92814611609E+02 0.  0.
         23    2    1    2    0    0 -0.15151000211E+03 -0.86771141959E+02  0.66217309401E+02  0.22479381844E+03  0.12515197532E+03 0.  0.
          5    1    4    4  502    0  0.63129900180E+01 -0.55100863897E+01  0.45003279338E+02  0.45967188800E+02  0.41800000000E+01 0.  1.
         -5    1    4    4    0  502 -0.15782299213E+03 -0.81261055569E+02  0.21214030064E+02  0.17882662964E+03  0.41800000000E+01 0.  1.
        -11    1    3    3    0    0  0.12015310085E+03  0.23872008972E+02 -0.14355877795E+02  0.12333990305E+03  0.00000000000E+00 0. -1.
         11    1    3    3    0    0  0.31356901259E+02  0.62899132987E+02 -0.43624184669E+02  0.82720164864E+02  0.00000000000E+00 0.  1.
</event>
<event>
 8    1  0.2184156E-005  0.1153429E+03  0.7561462E-02  0.1250984E+00
          1   -1    0    0  501    0  0.00000000000E+00  0.00000000000E+00  0.32580264096E+02  0.32580264096E+02  0.00000000000E+00 0. -1.
         -1   -1    0    0    0  501 -0.00000000000E+00 -0.00000000000E+00 -0.75787666695E+03  0.75787666695E+03  0.00000000000E+00 0.  1.
         23    2    1    2    0    0  0.11042907504E+03  0.49286602101E+01 -0.38295537955E+03  0.40958518364E+03  0.94267320037E+02 0.  0.
         23    2    1    2    0    0 -0.11042907504E+03 -0.49286602101E+01 -0.34234102331E+03  0.38087174741E+03  0.12508812665E+03 0.  0.
          5    1    4    4  502    0 -0.98772466203E+02  0.53941531409E+01 -0.34948457392E+03  0.36323826447E+03  0.41800000000E+01 0. -1.
         -5    1    4    4    0  502 -0.11656608834E+02 -0.10322813351E+02  0.71435506153E+01  0.17633482934E+02  0.41800000000E+01 0. -1.
        -11    1    3    3    0    0  0.31948193936E+02  0.16940123903E+02 -0.27660565387E+02  0.45527593514E+02  0.00000000000E+00 0. -1.
         11    1    3    3    0    0  0.78480881101E+02 -0.12011463693E+02 -0.35529481416E+03  0.36405759012E+03  0.00000000000E+00 0.  1.
</event>
<event>
 8    1  0.2184156E-005  0.1353449E+03  0.7561462E-02  0.1219734E+00
         -1   -1    0    0    0  501 -0.00000000000E+00  0.00000000000E+00  0.81795354629E+02  0.81795354629E+02  0.00000000000E+00 0.  1.
          1   -1    0    0  501    0  0.00000000000E+00 -0.00000000000E+00 -0.39775396559E+03  0.39775396559E+03  0.00000000000E+00 0. -1.
         23    2    1    2    0    0  0.63109730781E+02  0.11400278540E+03 -0.65819811558E+02  0.17100860290E+03  0.89063019666E+02 0.  0.
         23    2    1    2    0    0 -0.63109730781E+02 -0.11400278540E+03 -0.25013879941E+03  0.30854071733E+03  0.12509389306E+03 0.  0.
          5    1    4    4  502    0 -0.21815663205E+01 -0.53847070239E+02 -0.20430383137E+03  0.21133337199E+03  0.41800000000E+01 0. -1.
         -5    1    4    4    0  502 -0.60928164460E+02 -0.60155715166E+02 -0.45834968034E+02  0.97207345331E+02  0.41800000000E+01 0. -1.
        -11    1    3    3    0    0  0.47312829479E+01  0.17488356727E+02  0.21679431130E+02  0.28252882923E+02  0.00000000000E+00 0.  1.
         11    1    3    3    0    0  0.58378447833E+02  0.96514428678E+02 -0.87499242688E+02  0.14275571997E+03  0.00000000000E+00 0. -1.
</event>
<event>
 8    1  0.2184156E-005  0.2542991E+03  0.7561462E-02  0.1110618E+00
          3   -1    0    0  501    0  0.00000000000E+00  0.00000000000E+00  0.44911814185E+02  0.44911814185E+02  0.00000000000E+00 0. -1.
         -3   -1    0    0    0  501 -0.00000000000E+00 -0.00000000000E+00 -0.15076723851E+04  0.15076723851E+04  0.00000000000E+00 0.  1.
         23    2    1    2    0    0  0.19404406876E+03 -0.13412923613E+03 -0.70216641236E+03  0.74648466071E+03  0.92509055930E+02 0.  0.
         23    2    1    2    0    0 -0.19404406876E+03  0.13412923613E+03 -0.76059415854E+03  0.80609953855E+03  0.12509692023E+03 0.  0.
          5    1    4    4  502    0 -0.12463398149E+03  0.15061175565E+03 -0.55961963886E+03  0.59279772510E+03  0.41800000000E+01 0. -1.
         -5    1    4    4    0  502 -0.69410087270E+02 -0.16482519523E+02 -0.20097451967E+03  0.21330181345E+03  0.41800000000E+01 0. -1.
        -11    1    3    3    0    0  0.42000451784E+02 -0.53381985908E+01 -0.23208883967E+03  0.23591897722E+03  0.00000000000E+00 0.  1.
         11    1    3    3    0    0  0.15204361698E+03 -0.12879103754E+03 -0.47007757269E+03  0.51056568349E+03  0.00000000000E+00 0. -1.
</event>
<event>
 8    1  0.2184156E-005  0.2850483E+03  0.7561462E-02  0.1092963E+00
          2   -1    0    0  501    0  0.00000000000E+00  0.00000000000E+00  0.12210191973E+04  0.12210191973E+04  0.00000000000E+00 0. -1.
         -2   -1    0    0    0  501 -0.00000000000E+00 -0.00000000000E+00 -0.82125525883E+02  0.82125525883E+02  0.00000000000E+00 0.  1.
         23    2    1    2    0    0  0.46388381231E+02 -0.27514846464E+03  0.34764380135E+03  0.45486223721E+03  0.90470341642E+02 0.  0.
         23    2    1    2    0    0 -0.46388381231E+02  0.27514846464E+03  0.79124987010E+03  0.84828248600E+03  0.12509300388E+03 0.  0.
          5    1    4    4  502    0 -0.42566395346E+00  0.14727031782E+03  0.24966397722E+03  0.28989360397E+03  0.41800000000E+01 0.  1.
         -5    1    4    4    0  502 -0.45962717278E+02  0.12787814682E+03  0.54158589288E+03  0.55838888203E+03  0.41800000000E+01 0.  1.
        -11    1    3    3    0    0  0.61944803421E+02 -0.17898850211E+03  0.18185548416E+03  0.26257467447E+03  0.00000000000E+00 0.  1.
         11    1    3    3    0    0 -0.15556422189E+02 -0.96159962534E+02  0.16578831719E+03  0.19228756274E+03  0.00000000000E+00 0. -1.
</event>
<event>
 8    1  0.2184156E-005  0.1111019E+03  0.7561462E-02  0.1258543E+00
         -2   -1    0    0    0  501 -0.00000000000E+00  0.00000000000E+00  0.46442166580E+02  0.46442166580E+02  0.00000000000E+00 0.  1.
          2   -1    0    0  501    0  0.00000000000E+00 -0.00000000000E+00 -0.34904066395E+03  0.34904066395E+03  0.00000000000E+00 0. -1.
         23    2    1    2    0    0  0.25522554882E+02 -0.32328987967E+02 -0.49191080959E+02  0.10989495408E+03  0.89222050050E+02 0.  0.
         23    2    1    2    0    0 -0.25522554882E+02  0.32328987967E+02 -0.25340741641E+03  0.28558787645E+03  0.12509417338E+03 0.  0.
          5    1    4    4  502    0 -0.56135222370E+02 -0.23697720859E+02 -0.79278395642E+02  0.10007637873E+03  0.41800000000E+01 0.  1.
         -5    1    4    4    0  502  0.30612667488E+02  0.56026708826E+02 -0.17412902077E+03  0.18551149772E+03  0.41800000000E+01 0.  1.
        -11    1    3    3    0    0  0.55622022646E+02 -0.39230058554E+01 -0.36348125368E+02  0.66561141786E+02  0.00000000000E+00 0. -1.
         11    1    3    3    0    0 -0.30099467763E+02 -0.28405982111E+02 -0.12842955590E+02  0.43333812291E+02  0.00000000000E+00 0.  1.
</event>
<event>
 8    1  0.2184156E-005  0.1181771E+03  0.7561462E-02  0.1246135E+00
          2   -1    0    0  501    0  0.00000000000E+00  0.00000000000E+00  0.15601231253E+03  0.15601231253E+03  0.00000000000E+00 0. -1.
         -2   -1    0    0    0  501 -0.00000000000E+00 -0.00000000000E+00 -0.10913621409E+03  0.10913621409E+03  0.00000000000E+00 0.  1.
         23    2    1    2    0    0 -0.29732255376E+02 -0.64683397929E+02  0.10003570662E+02  0.11657081706E+03  0.91764562804E+02 0.  0.
         23    2    1    2    0    0  0.29732255376E+02  0.64683397929E+02  0.36872527772E+02  0.14857770956E+03  0.12509118073E+03 0.  0.
          5    1    4    4  502    0  0.55120339397E+02 -0.35524422438E+01 -0.16964674529E+02  0.57932238374E+02  0.41800000000E+01 0. -1.
         -5    1    4    4    0  502 -0.25388084021E+02  0.68235840173E+02  0.53837202301E+02  0.90645471183E+02  0.41800000000E+01 0. -1.
        -11    1    3    3    0    0 -0.11341426248E+02 -0.81996939925E+02  0.25890049835E+02  0.86731890253E+02  0.00000000000E+00 0. -1.
         11    1    3    3    0    0 -0.18390829129E+02  0.17313541996E+02 -0.15886479172E+02  0.29838926807E+02  0.00000000000E+00 0.  1.
</event>
<event>
 8    1  0.2184156E-005  0.1016026E+03  0.7561462E-02  0.1276962E+00
          1   -1    0    0  501    0  0.00000000000E+00  0.00000000000E+00  0.55137011900E+03  0.55137011900E+03  0.00000000000E+00 0. -1.
         -1   -1    0    0    0  501 -0.00000000000E+00 -0.00000000000E+00 -0.34596431040E+02  0.34596431040E+02  0.00000000000E+00 0.  1.
         23    2    1    2    0    0  0.35625270940E+02  0.53354931905E+02  0.11117696356E+03  0.15669708875E+03  0.89876313381E+02 0.  0.
         23    2    1    2    0    0 -0.35625270940E+02 -0.53354931905E+02  0.40559672440E+03  0.42926946130E+03  0.12509060264E+03 0.  0.
          5    1    4    4  502    0 -0.65300863273E+02 -0.28241344723E+01  0.11108739741E+03  0.12895759281E+03  0.41800000000E+01 0. -1.
         -5    1    4    4    0  502  0.29675592332E+02 -0.50530797433E+02  0.29450932699E+03  0.30031186848E+03  0.41800000000E+01 0. -1.
        -11    1    3    3    0    0  0.11065792539E+02 -0.74789617465E+01 -0.11470726695E+02  0.17605800301E+02  0.00000000000E+00 0.  1.
         11    1    3    3    0    0  0.24559478402E+02  0.60833893652E+02  0.12264769026E+03  0.13909128845E+03  0.00000000000E+00 0. -1.
</event>
<event>
 8    1  0.2184156E-005  0.8856561E+02  0.7561462E-02  0.1306363E+00
         -2   -1    0    0    0  501 -0.00000000000E+00  0.00000000000E+00  0.26520453280E+02  0.26520453280E+02  0.00000000000E+00 0.  1.
          2   -1    0    0  501    0  0.00000000000E+00 -0.00000000000E+00 -0.57555982169E+03  0.57555982169E+03  0.00000000000E+00 0. -1.
         23    2    1    2    0    0  0.34423312864E+02 -0.46806143095E+01 -0.12003129933E+03  0.15385912022E+03  0.89767719352E+02 0.  0.
         23    2    1    2    0    0 -0.34423312864E+02  0.46806143095E+01 -0.42900806908E+03  0.44822115475E+03  0.12508959833E+03 0.  0.
          5    1    4    4  502    0  0.28266415158E+02 -0.40128388593E+02 -0.21929533173E+03  0.22476030057E+03  0.41800000000E+01 0. -1.
         -5    1    4    4    0  502 -0.62689728022E+02  0.44809002902E+02 -0.20971273735E+03  0.22346085417E+03  0.41800000000E+01 0. -1.
        -11    1    3    3    0    0  0.80570935429E+01 -0.19040743797E+02  0.81388596893E+01  0.22219534598E+02  0.00000000000E+00 0.  1.
         11    1    3    3    0    0  0.26366219321E+02  0.14360129487E+02 -0.12817015902E+03  0.13163958562E+03  0.00000000000E+00 0. -1.
</event>
<event>
 7    1  0.2184156E-005  0.9911918E+02  0.7561462E-02  0.1282159E+00
          2   -1    0    0  501    0  0.00000000000E+00  0.00000000000E+00  0.10510267046E+04  0.10510267046E+04  0.00000000000E+00 0. -1.
         -2   -1    0    0    0  501 -0.00000000000E+00 -0.00000000000E+00 -0.12767627889E+02  0.12767627889E+02  0.00000000000E+00 0.  1.
         23    2    1    2    0    0 -0.28119514716E+02  0.13651261864E+02  0.37297698944E+03  0.38427535867E+03  0.87055456854E+02 0.  0.
          5    1    1    2  502    0  0.55310721388E+02  0.22935069130E+02  0.57663691399E+03  0.57975244396E+03  0.41800000000E+01 0. -1.
         -5    1    1    2    0  502 -0.27191206671E+02 -0.36586330994E+02  0.88645173276E+02  0.99766529863E+02  0.41800000000E+01 0.  1.
        -11    1    3    3    0    0 -0.50448933624E+02  0.35115502465E+02  0.25431366771E+03  0.26163645579E+03  0.00000000000E+00 0. -1.
         11    1    3    3    0    0  0.22329418908E+02 -0.21464240601E+02  0.11866332174E+03  0.12263890288E+03  0.00000000000E+00 0.  1.
</event>
<event>
 8    1  0.2184156E-005  0.1930533E+03  0.7561462E-02  0.1155736E+00
         -1   -1    0    0    0  501 -0.00000000000E+00  0.00000000000E+00  0.58101037696E+02  0.58101037696E+02  0.00000000000E+00 0.  1.
          1   -1    0    0  501    0  0.00000000000E+00 -0.00000000000E+00 -0.72392133426E+03  0.72392133426E+03  0.00000000000E+00 0. -1.
         23    2    1    2    0    0  0.11722529285E+03 -0.12014536992E+03 -0.23295289466E+03  0.30118849213E+03  0.90943814884E+02 0.  0.
         23    2    1    2    0    0 -0.11722529285E+03  0.12014536992E+03 -0.43286740190E+03  0.48083387982E+03  0.12510137152E+03 0.  0.
          5    1    4    4  502    0 -0.12182862631E+03  0.58445638494E+02 -0.21207476933E+03  0.25149808555E+03  0.41800000000E+01 0.  1.
         -5    1    4    4    0  502  0.46033334597E+01  0.61699731426E+02 -0.22079263257E+03  0.22933579427E+03  0.41800000000E+01 0.  1.
        -11    1    3    3    0    0  0.10199411717E+03 -0.43704361889E+02 -0.15785100806E+03  0.19295028357E+03  0.00000000000E+00 0. -1.
         11    1    3    3    0    0  0.15231175681E+02 -0.76441008031E+02 -0.75101886602E+02  0.10823820856E+03  0.00000000000E+00 0.  1.
</event>
<event>
 8    1  0.2184156E-005  0.1149311E+03  0.7561462E-02  0.1251701E+00
         -2   -1    0    0    0  501 -0.00000000000E+00  0.00000000000E+00  0.12649141624E+03  0.12649141624E+03  0.00000000000E+00 0.  1.
          2   -1    0    0  501    0  0.00000000000E+00 -0.00000000000E+00 -0.14595380857E+03  0.14595380857E+03  0.00000000000E+00 0. -1.
         23    2    1    2    0    0  0.31394823537E+01 -0.54714982259E+02  0.55384285483E+02  0.11671263216E+03  0.86895533792E+02 0.  0.
         23    2    1    2    0    0 -0.31394823537E+01  0.54714982259E+02 -0.74846677814E+02  0.15573259265E+03  0.12508808736E+03 0.  0.
          5    1    4    4  502    0  0.10041607597E+01 -0.37198033121E+02 -0.45800661095E+02  0.59159741071E+02  0.41800000000E+01 0. -1.
         -5    1    4    4    0  502 -0.41436431134E+01  0.91913015380E+02 -0.29046016719E+02  0.96572851577E+02  0.41800000000E+01 0. -1.
        -11    1    3    3    0    0 -0.40229299457E+02 -0.31699926704E+02  0.40837713503E+02  0.65505730528E+02  0.00000000000E+00 0.  1.
         11    1    3    3    0    0  0.43368781810E+02 -0.23015055555E+02  0.14546571980E+02  0.51206901628E+02  0.00000000000E+00 0. -1.
</event>
<event>
 8    1  0.2184156E-005  0.1733820E+03  0.7561462E-02  0.1174366E+00
          1   -1    0    0  501    0  0.00000000000E+00  0.00000000000E+00  0.53939043964E+03  0.53939043964E+03  0.00000000000E+00 0. -1.
         -1   -1    0    0    0  501 -0.00000000000E+00 -0.00000000000E+00 -0.84117942207E+02  0.84117942207E+02  0.00000000000E+00 0.  1.
         23    2    1    2    0    0  0.66233211062E+02 -0.14352590214E+03  0.93204898087E+02  0.20910787653E+03  0.10026179813E+03 0.  0.
         23    2    1    2    0    0 -0.66233211062E+02  0.14352590214E+03  0.36206759934E+03  0.41440050532E+03  0.12509320316E+03 0.  0.
          5    1    4    4  502    0 -0.19162745112E+02  0.21855603664E+02 -0.16794078048E+00  0.29366287063E+02  0.41800000000E+01 0. -1.
         -5    1    4    4    0  502 -0.47070465950E+02  0.12167029848E+03  0.36223554012E+03  0.38503421825E+03  0.41800000000E+01 0. -1.
        -11    1    3    3    0    0  0.44486049309E+01 -0.12104352182E+03  0.66146179894E+02  0.13800956987E+03  0.00000000000E+00 0. -1.
         11    1    3    3    0    0  0.61784606131E+02 -0.22482380327E+02  0.27058718193E+02  0.71098306662E+02  0.00000000000E+00 0.  1.
</event>
<event>
 8    1  0.2184156E-005  0.2211462E+03  0.7561462E-02  0.1133031E+00
         -2   -1    0    0    0  501 -0.00000000000E+00  0.00000000000E+00  0.76851282938E+03  0.76851282938E+03  0.00000000000E+00 0.  1.
          2   -1    0    0  501    0  0.00000000000E+00 -0.00000000000E+00 -0.80392858908E+02  0.80392858908E+02  0.00000000000E+00 0. -1.
         23    2    1    2    0    0 -0.64519805599E+02  0.20736398989E+03  0.42327603673E+03  0.48428043614E+03  0.90566593936E+02 0.  0.
         23    2    1    2    0    0  0.64519805599E+02 -0.20736398989E+03  0.26484393374E+03  0.36462525215E+03  0.12508651267E+03 0.  0.
          5    1    4    4  502    0  0.25647469235E+01 -0.10303798299E+03  0.20450893232E+03  0.22905191478E+03  0.41800000000E+01 0.  1.
         -5    1    4    4    0  502  0.61955058676E+02 -0.10432600689E+03  0.60335001423E+02  0.13557333737E+03  0.41800000000E+01 0.  1.
        -11    1    3    3    0    0 -0.38420395250E+02  0.14754563243E+03  0.19894771588E+03  0.25065121997E+03  0.00000000000E+00 0. -1.
         11    1    3    3    0    0 -0.26099410349E+02  0.59818357460E+02  0.22432832085E+03  0.23362921617E+03  0.00000000000E+00 0.  1.
</event>
<event>
 8    1  0.2184156E-005  0.1567406E+03  0.7561462E-02  0.1192427E+00
         -2   -1    0    0    0  501 -0.00000000000E+00  0.00000000000E+00  0.10535874499E+03  0.10535874499E+03  0.00000000000E+00 0.  1.
          2   -1    0    0  501    0  0.00000000000E+00 -0.00000000000E+00 -0.28600399828E+03  0.28600399828E+03  0.00000000000E+00 0. -1.
         23    2    1    2    0    0 -0.12242972747E+03  0.32149684536E+02 -0.34312047365E+02  0.16096057178E+03  0.93318533466E+02 0.  0.
         23    2    1    2    0    0  0.12242972747E+03 -0.32149684536E+02 -0.14633320592E+03  0.23040217149E+03  0.12509641516E+03 0.  0.
          5    1    4    4  502    0  0.77810346306E+01  0.29317904887E+02  0.47519263648E+01  0.30986081570E+02  0.41800000000E+01 0.  1.
         -5    1    4    4    0  502  0.11464869284E+03 -0.61467589423E+02 -0.15108513229E+03  0.19941608992E+03  0.41800000000E+01 0.  1.
        -11    1    3    3    0    0 -0.16101403502E+02 -0.26700431128E+02 -0.23321527778E+02  0.38936639237E+02  0.00000000000E+00 0.  1.
         11    1    3    3    0    0 -0.10632832397E+03  0.58850115664E+02 -0.10990519587E+02  0.12202393254E+03  0.00000000000E+00 0. -1.
</event>
<event>
 8    1  0.2184156E-005  0.1251411E+03  0.7561462E-02  0.1234849E+00
          2   -1    0    0  501    0  0.00000000000E+00  0.00000000000E+00  0.30431530618E+03  0.30431530618E+03  0.00000000000E+00 0. -1.
         -2   -1    0    0    0  501 -0.00000000000E+00 -0.00000000000E+00 -0.68384163799E+02  0.68384163799E+02  0.00000000000E+00 0.  1.
         23    2    1    2    0    0  0.47910251476E+02 -0.65202994504E+02  0.14395733866E+03  0.19762001652E+03  0.10855013996E+03 0.  0.
         23    2    1    2    0    0 -0.47910251476E+02  0.65202994504E+02  0.91973803720E+02  0.17507945346E+03  0.12508721663E+03 0.  0.
          5    1    4    4  502    0 -0.86957673539E+02  0.32254610030E+02  0.37079368967E+02  0.99971740299E+02  0.41800000000E+01 0.  1.
         -5    1    4    4    0  502  0.39047422062E+02  0.32948384474E+02  0.54894434753E+02  0.75107713159E+02  0.41800000000E+01 0.  1.
        -11    1    3    3    0    0  0.53884033788E+02 -0.15430975147E+02  0.13200801965E+02  0.57583550288E+02  0.00000000000E+00 0.  1.
         11    1    3    3    0    0 -0.59737823118E+01 -0.49772019357E+02  0.13075653670E+03  0.14003646623E+03  0.00000000000E+00 0. -1.
</event>
<event>
 8    1  0.2184156E-005  0.7891188E+02  0.7561462E-02  0.1332168E+00
         -2   -1    0    0    0  501 -0.00000000000E+00  0.00000000000E+00  0.86441567788E+02  0.86441567788E+02  0.00000000000E+00 0.  1.
          2   -1    0    0  501    0  0.00000000000E+00 -0.00000000000E+00 -0.15595820488E+03  0.15595820488E+03  0.00000000000E+00 0. -1.
         23    2    1    2    0    0  0.12084021166E+02  0.26160995035E+02 -0.22685186273E+02  0.10576253161E+03  0.99200172314E+02 0.  0.
         23    2    1    2    0    0 -0.12084021166E+02 -0.26160995035E+02 -0.46831450819E+02  0.13663724106E+03  0.12508448997E+03 0.  0.
          5    1    4    4  502    0  0.80548790652E+01  0.10251786441E+02  0.38905654105E+02  0.41244424149E+02  0.41800000000E+01 0. -1.
         -5    1    4    4    0  502 -0.20138900231E+02 -0.36412781477E+02 -0.85737104924E+02  0.95392816911E+02  0.41800000000E+01 0. -1.
        -11    1    3    3    0    0  0.54223078541E+02  0.26089213739E+02 -0.20491215531E+02  0.63566337270E+02  0.00000000000E+00 0. -1.
         11    1    3    3    0    0 -0.42139057375E+02  0.71781296824E-01 -0.21939707420E+01  0.42196194338E+02  0.00000000000E+00 0.  1.
</event>
<event>
 8    1  0.2184156E-005  0.1195159E+03  0.7561462E-02  0.1243898E+00
         -2   -1    0    0    0  501 -0.00000000000E+00  0.00000000000E+00  0.18456233071E+02  0.18456233071E+02  0.00000000000E+00 0.  1.
          2   -1    0    0  501    0  0.00000000000E+00 -0.00000000000E+00 -0.92509029122E+03  0.92509029122E+03  0.00000000000E+00 0. -1.
         23    2    1    2    0    0  0.25274763663E+02 -0.47370543950E+02 -0.22004468673E+03  0.24359277852E+03  0.89638136271E+02 0.  0.
         23    2    1    2    0    0 -0.25274763663E+02  0.47370543950E+02 -0.68658937142E+03  0.69995374577E+03  0.12508996430E+03 0.  0.
          5    1    4    4  502    0  0.50852664279E+02  0.14078600869E+02 -0.26848272206E+03  0.27365058909E+03  0.41800000000E+01 0.  1.
         -5    1    4    4    0  502 -0.76127427942E+02  0.33291943081E+02 -0.41810664936E+03  0.42630315668E+03  0.41800000000E+01 0.  1.
        -11    1    3    3    0    0  0.56564084019E+02 -0.43546909112E+02 -0.17087248664E+03  0.18518432867E+03  0.00000000000E+00 0. -1.
         11    1    3    3    0    0 -0.31289320356E+02 -0.38236348381E+01 -0.49172200093E+02  0.58408449848E+02  0.00000000000E+00 0.  1.
</event>
<event>
 8    1  0.2184156E-005  0.9975041E+02  0.7561462E-02  0.1280822E+00
          2   -1    0    0  501    0  0.00000000000E+00  0.00000000000E+00  0.24975305530E+03  0.24975305530E+03  0.00000000000E+00 0. -1.
         -2   -1    0    0    0  501 -0.00000000000E+00 -0.00000000000E+00 -0.64511261511E+02  0.64511261511E+02  0.00000000000E+00 0.  1.
         23    2    1    2    0    0  0.26143195929E+02  0.26977171198E+02  0.12432847854E+02  0.97648006575E+02  0.89271064870E+02 0.  0.
         23    2    1    2    0    0 -0.26143195929E+02 -0.26977171198E+02  0.17280894594E+03  0.21661631024E+03  0.12509380323E+03 0.  0.
          5    1    4    4  502    0  0.55625556106E+01 -0.73547794306E+02  0.91340393989E+02  0.11747663617E+03  0.41800000000E+01 0. -1.
         -5    1    4    4    0  502 -0.31705751539E+02  0.46570623108E+02  0.81468551948E+02  0.99139674066E+02  0.41800000000E+01 0. -1.
        -11    1    3    3    0    0 -0.18345450778E+02  0.29899695288E+01 -0.27528109113E+02  0.33215843710E+02  0.00000000000E+00 0.  1.
         11    1    3    3    0    0  0.44488646707E+02  0.23987201669E+02  0.39960956967E+02  0.64432162865E+02  0.00000000000E+00 0. -1.
</event>
<event>
 8    1  0.2184156E-005  0.1080093E+03  0.7561462E-02  0.1264301E+00
         -1   -1    0    0    0  501 -0.00000000000E+00  0.00000000000E+00  0.90951275375E+02  0.90951275375E+02  0.00000000000E+00 0.  1.
          1   -1    0    0  501    0  0.00000000000E+00 -0.00000000000E+00 -0.23561518577E+03  0.23561518577E+03  0.00000000000E+00 0. -1.
         23    2    1    2    0    0  0.75737017329E+02 -0.58679817262E+02 -0.45981532663E+02  0.14064493769E+03  0.92126437048E+02 0.  0.
         23    2    1    2    0    0 -0.75737017329E+02  0.58679817262E+02 -0.98682377732E+02  0.18592152346E+03  0.12509670045E+03 0.  0.
          5    1    4    4  502    0 -0.84980058708E+02  0.45461733582E+02 -0.12307858386E+03  0.15637835465E+03  0.41800000000E+01 0. -1.
         -5    1    4    4    0  502  0.92430413791E+01  0.13218083680E+02  0.24396206124E+02  0.29543168811E+02  0.41800000000E+01 0. -1.
        -11    1    3    3    0    0  0.76067804922E+02 -0.43343306709E+02  0.47167692360E+01  0.87676685009E+02  0.00000000000E+00 0.  1.
         11    1    3    3    0    0 -0.33078759286E+00 -0.15336510552E+02 -0.50698301899E+02  0.52968252678E+02  0.00000000000E+00 0. -1.
</event>
<event>
 8    1  0.2184156E-005  0.1842773E+03  0.7561462E-02  0.1163726E+00
         -1   -1    0    0    0  501 -0.00000000000E+00  0.00000000000E+00  0.32994442136E+02  0.32994442136E+02  0.00000000000E+00 0.  1.
          1   -1    0    0  501    0  0.00000000000E+00 -0.00000000000E+00 -0.11791001430E+04  0.11791001430E+04  0.00000000000E+00 0. -1.
         23    2    1    2    0    0  0.29210765596E+01  0.16308864536E+03 -0.60259797705E+03  0.63101442355E+03  0.91915405956E+02 0.  0.
         23    2    1    2    0    0 -0.29210765596E+01 -0.16308864536E+03 -0.54350772383E+03  0.58108016160E+03  0.12508824647E+03 0.  0.
          5    1    4    4  502    0 -0.83374211616E+01 -0.18358341524E+03 -0.47972991434E+03  0.51374180875E+03  0.41800000000E+01 0.  1.
         -5    1    4    4    0  502  0.54163446020E+01  0.20494769878E+02 -0.63777809493E+02  0.67338352853E+02  0.41800000000E+01 0.  1.
        -11    1    3    3    0    0  0.15493055142E+01  0.37765611656E+02 -0.41683646178E+02  0.56268713598E+02  0.00000000000E+00 0.  1.
         11    1    3    3    0    0  0.13717710454E+01  0.12532303371E+03 -0.56091433087E+03  0.57474570995E+03  0.00000000000E+00 0. -1.
</event>
<event>
 8    1  0.2184156E-005  0.8895072E+02  0.7561462E-02  0.1305413E+00
          2   -1    0    0  501    0  0.00000000000E+00  0.00000000000E+00  0.95898292639E+02  0.95898292639E+02  0.00000000000E+00 0. -1.
         -2   -1    0    0    0  501 -0.00000000000E+00 -0.00000000000E+00 -0.19843733434E+03  0.19843733434E+03  0.00000000000E+00 0.  1.
         23    2    1    2    0    0  0.51361448618E+02 -0.16380727642E+02 -0.11238536289E+03  0.15776901441E+03  0.96717451761E+02 0.  0.
         23    2    1    2    0    0 -0.51361448618E+02  0.16380727642E+02  0.98463211812E+01  0.13656661257E+03  0.12508862053E+03 0.  0.
          5    1    4    4  502    0  0.23892162878E+02  0.14180523688E+00 -0.38543152824E+02  0.45540120612E+02  0.41800000000E+01 0. -1.
         -5    1    4    4    0  502 -0.75253611496E+02  0.16238922405E+02  0.48389474005E+02  0.91026491960E+02  0.41800000000E+01 0. -1.
        -11    1    3    3    0    0  0.62421891840E+02 -0.85722091604E+01 -0.12454193949E+03  0.13957317093E+03  0.00000000000E+00 0.  1.
         11    1    3    3    0    0 -0.11060443222E+02 -0.78085184816E+01  0.12156576608E+02  0.18195843481E+02  0.00000000000E+00 0. -1.
</event>
<event>
 8    1  0.2184156E-005  0.1239886E+03  0.7561462E-02  0.1236658E+00
          1   -1    0    0  501    0  0.00000000000E+00  0.00000000000E+00  0.78520156911E+03  0.78520156911E+03  0.00000000000E+00 0. -1.
         -1   -1    0    0    0  501 -0.00000000000E+00 -0.00000000000E+00 -0.39278242405E+02  0.39278242405E+02  0.00000000000E+00 0.  1.
         23    2    1    2    0    0 -0.48195947559E+02  0.10023226096E+03  0.15478696788E+03  0.21010309755E+03  0.88402209679E+02 0.  0.
         23    2    1    2    0    0  0.48195947559E+02 -0.10023226096E+03  0.59113635882E+03  0.61437671396E+03  0.12508875425E+03 0.  0.
          5    1    4    4  502    0  0.29602828958E+02  0.20124593418E+01  0.35607960134E+03  0.35733812051E+03  0.41800000000E+01 0.  1.
         -5    1    4    4    0  502  0.18593118601E+02 -0.10224472030E+03  0.23505675748E+03  0.25703859346E+03  0.41800000000E+01 0.  1.
        -11    1    3    3    0    0 -0.12559841109E+02  0.55041133966E+02  0.13959687987E+03  0.15058075875E+03  0.00000000000E+00 0. -1.
         11    1    3    3    0    0 -0.35636106449E+02  0.45191126995E+02  0.15190088007E+02  0.59522338795E+02  0.00000000000E+00 0.  1.
</event>
<event>
 8    1  0.2184156E-005  0.9883482E+02  0.7561462E-02  0.1282765E+00
         -3   -1    0    0    0  501 -0.00000000000E+00  0.00000000000E+00  0.29251033819E+02  0.29251033819E+02  0.00000000000E+00 0.  1.
          3   -1    0    0  501    0  0.00000000000E+00 -0.00000000000E+00 -0.45137519917E+03  0.45137519917E+03  0.00000000000E+00 0. -1.
         23    2    1    2    0    0  0.25704977322E+01  0.34157858710E+02 -0.15188957868E+03  0.18087776159E+03  0.92048648845E+02 0.  0.
         23    2    1    2    0    0 -0.25704977322E+01 -0.34157858710E+02 -0.27023458667E+03  0.29974847140E+03  0.12509615304E+03 0.  0.
          5    1    4    4  502    0 -0.23998907340E+02  0.25971390894E+02 -0.18725358108E+02  0.40231481886E+02  0.41800000000E+01 0.  1.
         -5    1    4    4    0  502  0.21428409607E+02 -0.60129249605E+02 -0.25150922856E+03  0.25951698952E+03  0.41800000000E+01 0.  1.
        -11    1    3    3    0    0 -0.25226342252E+02  0.56858266470E+02 -0.91886242409E+02  0.11096085956E+03  0.00000000000E+00 0.  1.
         11    1    3    3    0    0  0.27796839985E+02 -0.22700407760E+02 -0.60003336276E+02  0.69916902032E+02  0.00000000000E+00 0. -1.
</event>
<event>
 8    1  0.2184156E-005  0.6939579E+02  0.7561462E-02  0.1362160E+00
         -2   -1    0    0    0  501 -0.00000000000E+00  0.00000000000E+00  0.31194989927E+03  0.31194989927E+03  0.00000000000E+00 0.  1.
          2   -1    0    0  501    0  0.00000000000E+00 -0.00000000000E+00 -0.55057390360E+02  0.55057390360E+02  0.00000000000E+00 0. -1.
         23    2    1    2    0    0  0.17939381968E+02 -0.69482690707E+01  0.21157453334E+03  0.23257769064E+03  0.94649348421E+02 0.  0.
         23    2    1    2    0    0 -0.17939381968E+02  0.69482690707E+01  0.45317975569E+02  0.13442959899E+03  0.12508996085E+03 0.  0.
          5    1    4    4  502    0  0.34962795905E+01  0.17695194415E+02 -0.40871147788E+02  0.44869443922E+02  0.41800000000E+01 0.  1.
         -5    1    4    4    0  502 -0.21435661558E+02 -0.10746925344E+02  0.86189123356E+02  0.89560155068E+02  0.41800000000E+01 0.  1.
        -11    1    3    3    0    0 -0.17331753475E+02 -0.42474310562E+02  0.11467585756E+03  0.12351116971E+03  0.00000000000E+00 0. -1.
         11    1    3    3    0    0  0.35271135443E+02  0.35526041491E+02  0.96898675787E+02  0.10906652093E+03  0.00000000000E+00 0.  1.
</event>
<event>
 8    1  0.2184156E-005  0.8807638E+02  0.7561462E-02  0.1307578E+00
          2   -1    0    0  501    0  0.00000000000E+00  0.00000000000E+00  0.13654673523E+03  0.13654673523E+03  0.00000000000E+00 0. -1.
         -2   -1    0    0    0  501 -0.00000000000E+00 -0.00000000000E+00 -0.12853895600E+03  0.12853895600E+03  0.00000000000E+00 0.  1.
         23    2    1    2    0    0 -0.76688935874E+01  0.12127392598E+02 -0.71510341895E+02  0.11617370048E+03  0.90425185121E+02 0.  0.
         23    2    1    2    0    0  0.76688935874E+01 -0.12127392598E+02  0.79518121127E+02  0.14891199076E+03  0.12508302772E+03 0.  0.
          5    1    4    4  502    0 -0.33348004592E+02  0.37382339650E+02  0.66196682087E+02  0.83120405722E+02  0.41800000000E+01 0. -1.
         -5    1    4    4    0  502  0.41016898179E+02 -0.49509732248E+02  0.13321439040E+02  0.65791585037E+02  0.41800000000E+01 0. -1.
        -11    1    3    3    0    0 -0.30702403046E+01 -0.24423445337E+02 -0.75222944214E+02  0.79148104171E+02  0.00000000000E+00 0.  1.
         11    1    3    3    0    0 -0.45986532828E+01  0.36550837935E+02  0.37126023191E+01  0.37025596305E+02  0.00000000000E+00 0. -1.
</event>
<event>
 8    1  0.2184156E-005  0.9295072E+02  0.7561462E-02  0.1295859E+00
          1   -1    0    0  501    0  0.00000000000E+00  0.00000000000E+00  0.89557409954E+03  0.89557409954E+03  0.00000000000E+00 0. -1.
         -1   -1    0    0    0  501 -0.00000000000E+00 -0.00000000000E+00 -0.19462041722E+02  0.19462041722E+02  0.00000000000E+00 0.  1.
         23    2    1    2    0    0  0.73018047356E+02 -0.12569606570E+02  0.37483692950E+03  0.39310472545E+03  0.92406553908E+02 0.  0.
         23    2    1    2    0    0 -0.73018047356E+02  0.12569606570E+02  0.50127512832E+03  0.52193141581E+03  0.12508404491E+03 0.  0.
          5    1    4    4  502    0 -0.58494841390E+02 -0.12001779012E+01  0.75222867134E+02  0.95388883190E+02  0.41800000000E+01 0.  1.
         -5    1    4    4    0  502 -0.14523205966E+02  0.13769784471E+02  0.42605226118E+03  0.42654253262E+03  0.41800000000E+01 0.  1.
        -11    1    3    3    0    0 -0.98004521410E+01 -0.21375096307E+02  0.28770778255E+02  0.37157789031E+02  0.00000000000E+00 0.  1.
         11    1    3    3    0    0  0.82818499497E+02  0.88054897366E+01  0.34606615124E+03  0.35594693642E+03  0.00000000000E+00 0. -1.
</event>
<event>
 8    1  0.2184156E-005  0.1253993E+03  0.7561462E-02  0.1234447E+00
         -2   -1    0    0    0  501 -0.00000000000E+00  0.00000000000E+00  0.88783503548E+02  0.88783503548E+02  0.00000000000E+00 0.  1.
          2   -1    0    0  501    0  0.00000000000E+00 -0.00000000000E+00 -0.29659898272E+03  0.29659898272E+03  0.00000000000E+00 0. -1.
         23    2    1    2    0    0  0.11172526752E+03  0.10000625971E+02 -0.45685843183E+02  0.15189409309E+03  0.91662813212E+02 0.  0.
         23    2    1    2    0    0 -0.11172526752E+03 -0.10000625971E+02 -0.16212963599E+03  0.23348839318E+03  0.12509301724E+03 0.  0.
          5    1    4    4  502    0 -0.12260321384E+03  0.51909583497E+00 -0.17463540544E+03  0.21341699730E+03  0.41800000000E+01 0. -1.
         -5    1    4    4    0  502  0.10877946323E+02 -0.10519721805E+02  0.12505769449E+02  0.20071395880E+02  0.41800000000E+01 0. -1.
        -11    1    3    3    0    0  0.80634402393E+02  0.10593565133E+02  0.15932924238E+02  0.82873328317E+02  0.00000000000E+00 0.  1.
         11    1    3    3    0    0  0.31090865124E+02 -0.59293916242E+00 -0.61618767421E+02  0.69020764771E+02  0.00000000000E+00 0. -1.
</event>
<event>
 8    1  0.2184156E-005  0.9466682E+02  0.7561462E-02  0.1291928E+00
         -1   -1    0    0    0  501 -0.00000000000E+00  0.00000000000E+00  0.32682031823E+03  0.32682031823E+03  0.00000000000E+00 0.  1.
          1   -1    0    0  501    0  0.00000000000E+00 -0.00000000000E+00 -0.41320437843E+02  0.41320437843E+02  0.00000000000E+00 0. -1.
         23    2    1    2    0    0 -0.31518760297E+02 -0.13856988054E+02  0.16415941041E+03  0.19049044282E+03  0.90293124933E+02 0.  0.
         23    2    1    2    0    0  0.31518760297E+02  0.13856988054E+02  0.12134046997E+03  0.17765031325E+03  0.12510266095E+03 0.  0.
          5    1    4    4  502    0 -0.13289182193E+02  0.42435292306E+02  0.11572587189E+03  0.12404558123E+03  0.41800000000E+01 0.  1.
         -5    1    4    4    0  502  0.44807942490E+02 -0.28578304252E+02  0.56145980819E+01  0.53604732027E+02  0.41800000000E+01 0.  1.
        -11    1    3    3    0    0  0.16977168680E+02 -0.34657059437E+02  0.10139682641E+03  0.10849263768E+03  0.00000000000E+00 0.  1.
         11    1    3    3    0    0 -0.48495928976E+02  0.20800071383E+02  0.62762584002E+02  0.81997805138E+02  0.00000000000E+00 0. -1.
</event>
<event>
 8    1  0.2184156E-005  0.9352776E+02  0.7561462E-02  0.1294527E+00
         -1   -1    0    0    0  501 -0.00000000000E+00  0.00000000000E+00  0.26267418925E+03  0.26267418925E+03  0.00000000000E+00 0.  1.
          1   -1    0    0  501    0  0.00000000000E+00 -0.00000000000E+00 -0.88667230995E+02  0.88667230995E+02  0.00000000000E+00 0. -1.
         23    2    1    2    0    0 -0.67234300609E+01  0.53721278172E+02  0.19227202184E+03  0.21947939771E+03  0.90947761906E+02 0.  0.
         23    2    1    2    0    0  0.67234300609E+01 -0.53721278172E+02 -0.18265063583E+02  0.13186202254E+03  0.11883938825E+03 0.  0.
          5    1    4    4  502    0 -0.45198469021E+02 -0.25200772062E+02  0.25740154938E+02  0.57948326038E+02  0.41800000000E+01 0. -1.
         -5    1    4    4    0  502  0.51921899082E+02 -0.28520506110E+02 -0.44005218522E+02  0.73913696500E+02  0.41800000000E+01 0.  1.
        -11    1    3    3    0    0 -0.30024560959E+02  0.32303357564E+02  0.28119768208E+02  0.52303943778E+02  0.00000000000E+00 0. -1.
         11    1    3    3    0    0  0.23301130898E+02  0.21417920608E+02  0.16415225363E+03  0.16717545393E+03  0.00000000000E+00 0.  1.
</event>
<event>
 8    1  0.2184156E-005  0.6988971E+02  0.7561462E-02  0.1360468E+00
         -1   -1    0    0    0  501 -0.00000000000E+00  0.00000000000E+00  0.33358821439E+03  0.33358821439E+03  0.00000000000E+00 0.  1.
          1   -1    0    0  501    0  0.00000000000E+00 -0.00000000000E+00 -0.42510081325E+02  0.42510081325E+02  0.00000000000E+00 0. -1.
         23    2    1    2    0    0 -0.46848361250E+01 -0.52251265120E+01  0.17165306741E+03  0.20301099912E+03  0.10816395229E+03 0.  0.
         23    2    1    2    0    0  0.46848361250E+01  0.52251265120E+01  0.11942506566E+03  0.17308729660E+03  0.12509043249E+03 0.  0.
          5    1    4    4  502    0  0.11361977184E+01  0.20174473609E+02 -0.22351258609E+02  0.30419590597E+02  0.41800000000E+01 0. -1.
         -5    1    4    4    0  502  0.35486384066E+01 -0.14949347097E+02  0.14177632427E+03  0.14266770600E+03  0.41800000000E+01 0. -1.
        -11    1    3    3    0    0  0.12171625201E+01 -0.54038942169E+02  0.12045063370E+03  0.13202289163E+03  0.00000000000E+00 0.  1.
         11    1    3    3    0    0 -0.59019986452E+01  0.48813815657E+02  0.51202433704E+02  0.70988107485E+02  0.00000000000E+00 0. -1.
</event>
<event>
 8    1  0.2184156E-005  0.1210560E+03  0.7561462E-02  0.1241365E+00
          2   -1    0    0  501    0  0.00000000000E+00  0.00000000000E+00  0.15049566915E+03  0.15049566915E+03  0.00000000000E+00 0. -1.
         -2   -1    0    0    0  501 -0.00000000000E+00 -0.00000000000E+00 -0.13403301856E+03  0.13403301856E+03  0.00000000000E+00 0.  1.
         23    2    1    2    0    0 -0.40740830834E+02 -0.50063305477E+02 -0.56532845247E+02  0.12596565387E+03  0.92223822902E+02 0.  0.
         23    2    1    2    0    0  0.40740830834E+02  0.50063305477E+02  0.72995495845E+02  0.15856303384E+03  0.12509094066E+03 0.  0.
          5    1    4    4  502    0 -0.15937823568E+02  0.75422668749E+02  0.29544612030E+02  0.82661657867E+02  0.41800000000E+01 0. -1.
         -5    1    4    4    0  502  0.56678654402E+02 -0.25359363272E+02  0.43450883814E+02  0.75901375973E+02  0.41800000000E+01 0. -1.
        -11    1    3    3    0    0  0.22467153239E+02 -0.70152386705E+00 -0.37209322610E+02  0.43471816152E+02  0.00000000000E+00 0.  1.
         11    1    3    3    0    0 -0.63207984073E+02 -0.49361781610E+02 -0.19323522636E+02  0.82493837717E+02  0.00000000000E+00 0. -1.
</event>
<event>
 8    1  0.2184156E-005  0.1365981E+03  0.7561462E-02  0.1217981E+00
          2   -1    0    0  501    0  0.00000000000E+00  0.00000000000E+00  0.47321038025E+03  0.47321038025E+03  0.00000000000E+00 0. -1.
         -2   -1    0    0    0  501 -0.00000000000E+00 -0.00000000000E+00 -0.48090436538E+02  0.48090436538E+02  0.00000000000E+00 0.  1.
         23    2    1    2    0    0  0.32607914188E+02 -0.98169448683E+02  0.16860780083E+03  0.21775351538E+03  0.91035631689E+02 0.  0.
         23    2    1    2    0    0 -0.32607914188E+02  0.98169448683E+02  0.25651214288E+03  0.30354730141E+03  0.12506785368E+03 0.  0.
          5    1    4    4  502    0 -0.23564240065E+02 -0.16921549029E+02  0.94242196024E+01  0.30787993545E+02  0.41800000000E+01 0.  1.
         -5    1    4    4    0  502 -0.90436741223E+01  0.11509099771E+03  0.24708792328E+03  0.27275930787E+03  0.41800000000E+01 0.  1.
        -11    1    3    3    0    0  0.52017463014E+02 -0.36062480527E+02  0.43707189204E+02  0.76919681151E+02  0.00000000000E+00 0.  1.
         11    1    3    3    0    0 -0.19409548827E+02 -0.62106968155E+02  0.12490061162E+03  0.14083383423E+03  0.00000000000E+00 0. -1.
</event>
<event>
 8    1  0.2184156E-005  0.1522444E+03  0.7561462E-02  0.1197742E+00
         -1   -1    0    0    0  501 -0.00000000000E+00  0.00000000000E+00  0.43017365419E+02  0.43017365419E+02  0.00000000000E+00 0.  1.
          1   -1    0    0  501    0  0.00000000000E+00 -0.00000000000E+00 -0.64284713097E+03  0.64284713097E+03  0.00000000000E+00 0. -1.
         23    2    1    2    0    0  0.10108444250E+02 -0.12420771954E+03 -0.23183162924E+03  0.27769706585E+03  0.88543875153E+02 0.  0.
         23    2    1    2    0    0 -0.10108444250E+02  0.12420771954E+03 -0.36799813630E+03  0.40816743053E+03  0.12509310447E+03 0.  0.
          5    1    4    4  502    0  0.23953449750E+02 -0.93230610710E+00 -0.16806167773E+03  0.16981412448E+03  0.41800000000E+01 0.  1.
         -5    1    4    4    0  502 -0.34061894001E+02  0.12514002565E+03 -0.19993645857E+03  0.23835330606E+03  0.41800000000E+01 0.  1.
        -11    1    3    3    0    0 -0.29087641932E+02 -0.10041508088E+03 -0.18268054683E+03  0.21047912384E+03  0.00000000000E+00 0. -1.
         11    1    3    3    0    0  0.39196086182E+02 -0.23792638662E+02 -0.49151082413E+02  0.67217942016E+02  0.00000000000E+00 0.  1.
</event>
<event>
 8    1  0.2184156E-005  0.6021074E+02  0.7561462E-02  0.1396949E+00
         -2   -1    0    0    0  501 -0.00000000000E+00  0.00000000000E+00  0.15754315562E+02  0.15754315562E+02  0.00000000000E+00 0.  1.
          2   -1    0    0  501    0  0.00000000000E+00 -0.00000000000E+00 -0.84333772598E+03  0.84333772598E+03  0.00000000000E+00 0. -1.
         23    2    1    2    0    0  0.27771690701E+02  0.87464620082E+00 -0.27502627566E+03  0.29201153814E+03  0.94123611775E+02 0.  0.
         23    2    1    2    0    0 -0.27771690701E+02 -0.87464620082E+00 -0.55255713476E+03  0.56708050340E+03  0.12445432236E+03 0.  0.
          5    1    4    4  502    0 -0.26467195736E+02 -0.84313663029E+01 -0.20074379030E+02  0.34526127517E+02  0.41800000000E+01 0. -1.
         -5    1    4    4    0  502 -0.13044949651E+01  0.75567201021E+01 -0.53248275573E+03  0.53255437589E+03  0.41800000000E+01 0. -1.
        -11    1    3    3    0    0  0.63898197071E+01 -0.38373982065E+02 -0.20694764769E+03  0.21057236566E+03  0.00000000000E+00 0. -1.
         11    1    3    3    0    0  0.21381870994E+02  0.39248628266E+02 -0.68078627968E+02  0.81439172478E+02  0.00000000000E+00 0.  1.
</event>
<event>
 8    1  0.2184156E-005  0.1378642E+03  0.7561462E-02  0.1216232E+00
          1   -1    0    0  501    0  0.00000000000E+00  0.00000000000E+00  0.26767240293E+03  0.26767240293E+03  0.00000000000E+00 0. -1.
         -1   -1    0    0    0  501 -0.00000000000E+00 -0.00000000000E+00 -0.74676967148E+02  0.74676967148E+02  0.00000000000E+00 0.  1.
         23    2    1    2    0    0 -0.79681812485E+02  0.34422136549E+02  0.11798930249E+03  0.17261957926E+03  0.91334379714E+02 0.  0.
         23    2    1    2    0    0  0.79681812485E+02 -0.34422136549E+02  0.75006133295E+02  0.16972979082E+03  0.12509279409E+03 0.  0.
          5    1    4    4  502    0 -0.21554096318E+02 -0.43850970291E+02  0.35629459055E+02  0.60616973003E+02  0.41800000000E+01 0. -1.
         -5    1    4    4    0  502  0.10123590880E+03  0.94288337424E+01  0.39376674240E+02  0.10911281781E+03  0.41800000000E+01 0. -1.
        -11    1    3    3    0    0 -0.63495793615E+02 -0.21244864964E+02  0.51958345553E+02  0.84750986819E+02  0.00000000000E+00 0. -1.
         11    1    3    3    0    0 -0.16186018869E+02  0.55667001513E+02  0.66030956936E+02  0.87868592444E+02  0.00000000000E+00 0.  1.
</event>
<event>
 8    1  0.2184156E-005  0.7683825E+02  0.7561462E-02  0.1338271E+00
         -1   -1    0    0    0  501 -0.00000000000E+00  0.00000000000E+00  0.57070549968E+02  0.57070549968E+02  0.00000000000E+00 0.  1.
          1   -1    0    0  501    0  0.00000000000E+00 -0.00000000000E+00 -0.34480451233E+03  0.34480451233E+03  0.00000000000E+00 0. -1.
         23    2    1    2    0    0 -0.29817454540E+02  0.21222203040E+02 -0.12635686687E+02  0.98380734070E+02  0.90441394068E+02 0.  0.
         23    2    1    2    0    0  0.29817454540E+02 -0.21222203040E+02 -0.27509827567E+03  0.30349432823E+03  0.12284251499E+03 0.  0.
          5    1    4    4  502    0 -0.11799752891E+02 -0.56878818401E+02 -0.21181207619E+03  0.21967308021E+03  0.41800000000E+01 0. -1.
         -5    1    4    4    0  502  0.41617207431E+02  0.35656615361E+02 -0.63286199489E+02  0.83821248017E+02  0.41800000000E+01 0.  1.
        -11    1    3    3    0    0 -0.17267617229E+02  0.18151162104E+01 -0.50843739519E+02  0.53726633060E+02  0.00000000000E+00 0. -1.
         11    1    3    3    0    0 -0.12549837311E+02  0.19407086830E+02  0.38208052833E+02  0.44654101010E+02  0.00000000000E+00 0.  1.
</event>
<event>
 8    1  0.2184156E-005  0.2432413E+03  0.7561462E-02  0.1117652E+00
          2   -1    0    0  501    0  0.00000000000E+00  0.00000000000E+00  0.32304418304E+03  0.32304418304E+03  0.00000000000E+00 0. -1.
         -2   -1    0    0    0  501 -0.00000000000E+00 -0.00000000000E+00 -0.20966037100E+03  0.20966037100E+03  0.00000000000E+00 0.  1.
         23    2    1    2    0    0 -0.21999600931E+03  0.41828691155E+02 -0.21311356759E+02  0.24298681620E+03  0.91872386538E+02 0.  0.
         23    2    1    2    0    0  0.21999600931E+03 -0.41828691155E+02  0.13469516880E+03  0.28971773783E+03  0.12508275501E+03 0.  0.
          5    1    4    4  502    0  0.66528045672E+02 -0.73942357824E+02  0.56279048828E+02  0.11436020671E+03  0.41800000000E+01 0. -1.
         -5    1    4    4    0  502  0.15346796363E+03  0.32113666668E+02  0.78416119971E+02  0.17535753112E+03  0.41800000000E+01 0. -1.
        -11    1    3    3    0    0 -0.13717480725E+03  0.51869082966E+02 -0.49723371956E+02  0.15485394161E+03  0.00000000000E+00 0.  1.
         11    1    3    3    0    0 -0.82821202055E+02 -0.10040391811E+02  0.28412015198E+02  0.88132874600E+02  0.00000000000E+00 0. -1.
</event>
<event>
 8    1  0.2184156E-005  0.1021275E+03  0.7561462E-02  0.1275885E+00
         -1   -1    0    0    0  501 -0.00000000000E+00  0.00000000000E+00  0.76340074858E+02  0.76340074858E+02  0.00000000000E+00 0.  1.
          1   -1    0    0  501    0  0.00000000000E+00 -0.00000000000E+00 -0.17436800176E+03  0.17436800176E+03  0.00000000000E+00 0. -1.
         23    2    1    2    0    0 -0.32959023917E+02 -0.16628255321E+02 -0.30203327100E+02  0.10370581537E+03  0.92086150108E+02 0.  0.
         23    2    1    2    0    0  0.32959023917E+02  0.16628255321E+02 -0.67824599805E+02  0.14700226125E+03  0.12508673927E+03 0.  0.
          5    1    4    4  502    0 -0.43953586644E+02  0.10589903379E+00 -0.17566308512E+01  0.44186956735E+02  0.41800000000E+01 0. -1.
         -5    1    4    4    0  502  0.76912610562E+02  0.16522356287E+02 -0.66067968954E+02  0.10281530451E+03  0.41800000000E+01 0. -1.
        -11    1    3    3    0    0  0.20116693305E+02 -0.19705427968E+02  0.16758880014E+02  0.32769578884E+02  0.00000000000E+00 0.  1.
         11    1    3    3    0    0 -0.53075717222E+02  0.30771726468E+01 -0.46962207115E+02  0.70936236489E+02  0.00000000000E+00 0. -1.
</event>
<event>
 7    1  0.2184156E-005  0.1385973E+03  0.7561462E-02  0.1215229E+00
         -1   -1    0    0    0  501 -0.00000000000E+00  0.00000000000E+00  0.21542099536E+02  0.21542099536E+02  0.00000000000E+00 0.  1.
          1   -1    0    0  501    0  0.00000000000E+00 -0.00000000000E+00 -0.14375749932E+04  0.14375749932E+04  0.00000000000E+00 0. -1.
         23    2    1    2    0    0  0.87730177405E+02 -0.57211848084E+02 -0.91641223075E+03  0.93082138443E+03  0.12508914208E+03 0.  0.
          5    1    3    3  502    0  0.68195958079E+02 -0.11618545983E+02 -0.18239322180E+03  0.19511647565E+03  0.41800000000E+01 0.  1.
         -5    1    3    3    0  502  0.19534219326E+02 -0.45593302101E+02 -0.73401900894E+03  0.73570490878E+03  0.41800000000E+01 0.  1.
        -11    1    1    2    0    0  0.27641036682E+02  0.27468981425E+02 -0.51352262840E+02  0.64464150876E+02  0.00000000000E+00 0.  1.
         11    1    1    2    0    0 -0.11537121409E+03  0.29742866659E+02 -0.44826840005E+03  0.46383155740E+03  0.00000000000E+00 0. -1.
</event>
<event>
 8    1  0.2184156E-005  0.2550477E+03  0.7561462E-02  0.1110156E+00
         -1   -1    0    0    0  501 -0.00000000000E+00  0.00000000000E+00  0.15560054016E+03  0.15560054016E+03  0.00000000000E+00 0.  1.
          1   -1    0    0  501    0  0.00000000000E+00 -0.00000000000E+00 -0.44165697929E+03  0.44165697929E+03  0.00000000000E+00 0. -1.
         23    2    1    2    0    0  0.15270765638E+03 -0.18216323244E+03 -0.11057363655E+03  0.27640637999E+03  0.87583595680E+02 0.  0.
         23    2    1    2    0    0 -0.15270765638E+03  0.18216323244E+03 -0.17548280257E+03  0.32085113946E+03  0.12509263817E+03 0.  0.
          5    1    4    4  502    0 -0.72509343343E+02  0.17068925026E+03 -0.13953479035E+03  0.23212034625E+03  0.41800000000E+01 0.  1.
         -5    1    4    4    0  502 -0.80198313034E+02  0.11473982178E+02 -0.35948012224E+02  0.88730793208E+02  0.41800000000E+01 0.  1.
        -11    1    3    3    0    0  0.61532106948E+02 -0.36248909801E+02  0.84982983585E+00  0.71420626278E+02  0.00000000000E+00 0.  1.
         11    1    3    3    0    0  0.91175549429E+02 -0.14591432264E+03 -0.11142346639E+03  0.20498575372E+03  0.00000000000E+00 0. -1.
</event>
<event>
 8    1  0.2184156E-005  0.1263772E+03  0.7561462E-02  0.1232933E+00
          3   -1    0    0  501    0  0.00000000000E+00  0.00000000000E+00  0.21518612065E+03  0.21518612065E+03  0.00000000000E+00 0.  1.
         -3   -1    0    0    0  501 -0.00000000000E+00 -0.00000000000E+00 -0.18734881720E+03  0.18734881720E+03  0.00000000000E+00 0. -1.
         23    2    1    2    0    0 -0.83328947377E+02  0.50301017344E+02 -0.12584444362E+03  0.18175932458E+03  0.87896087889E+02 0.  0.
         23    2    1    2    0    0  0.83328947377E+02 -0.50301017344E+02  0.15368174708E+03  0.22077561327E+03  0.12509950524E+03 0.  0.
          5    1    4    4  502    0 -0.22996564425E+02 -0.36621408624E+02  0.78671250237E+02  0.89869948029E+02  0.41800000000E+01 0. -1.
         -5    1    4    4    0  502  0.10632551180E+03 -0.13679608720E+02  0.75010496840E+02  0.13090566524E+03  0.41800000000E+01 0. -1.
        -11    1    3    3    0    0 -0.40083649844E+02  0.41875914118E+02 -0.12489372670E+03  0.13769071914E+03  0.00000000000E+00 0. -1.
         11    1    3    3    0    0 -0.43245297533E+02  0.84251032260E+01 -0.95071691934E+00  0.44068605444E+02  0.00000000000E+00 0.  1.
</event>
<event>
 8    1  0.2184156E-005  0.1173058E+03  0.7561462E-02  0.1247609E+00
         -3   -1    0    0    0  501 -0.00000000000E+00  0.00000000000E+00  0.50216894831E+03  0.50216894831E+03  0.00000000000E+00 0.  1.
          3   -1    0    0  501    0  0.00000000000E+00 -0.00000000000E+00 -0.30653795601E+02  0.30653795601E+02  0.00000000000E+00 0. -1.
         23    2    1    2    0    0 -0.53942647212E+02 -0.15298946992E+01  0.26669251768E+03  0.28683044472E+03  0.90745001327E+02 0.  0.
         23    2    1    2    0    0  0.53942647212E+02  0.15298946992E+01  0.20482263504E+03  0.24599229920E+03  0.12509096560E+03 0.  0.
          5    1    4    4  502    0  0.51508434315E+02  0.56259215369E+02  0.15023901860E+03  0.16854510741E+03  0.41800000000E+01 0.  1.
         -5    1    4    4    0  502  0.24342128963E+01 -0.54729320670E+02  0.54583616433E+02  0.77447191791E+02  0.41800000000E+01 0.  1.
        -11    1    3    3    0    0 -0.74623154513E+02 -0.18088823400E+02  0.16929618650E+03  0.18589518414E+03  0.00000000000E+00 0. -1.
         11    1    3    3    0    0  0.20680507301E+02  0.16558928701E+02  0.97396331176E+02  0.10093526058E+03  0.00000000000E+00 0.  1.
</event>
<event>
 8    1  0.2184156E-005  0.8367389E+02  0.7561462E-02  0.1318937E+00
          2   -1    0    0  501    0  0.00000000000E+00  0.00000000000E+00  0.11222643833E+03  0.11222643833E+03  0.00000000000E+00 0. -1.
         -2   -1    0    0    0  501 -0.00000000000E+00 -0.00000000000E+00 -0.12470728282E+03  0.12470728282E+03  0.00000000000E+00 0.  1.
         23    2    1    2    0    0 -0.32754793954E+01  0.39531525324E+02 -0.14375514118E+02  0.10569323605E+03  0.96906834020E+02 0.  0.
         23    2    1    2    0    0  0.32754793954E+01 -0.39531525324E+02  0.18946696315E+01  0.13124048511E+03  0.12508798863E+03 0.  0.
          5    1    4    4  502    0 -0.25062856501E+02 -0.23332665870E+02 -0.55344742191E+02  0.65215588327E+02  0.41800000000E+01 0.  1.
         -5    1    4    4    0  502  0.28338335896E+02 -0.16198859454E+02  0.57239411823E+02  0.66024896780E+02  0.41800000000E+01 0.  1.
        -11    1    3    3    0    0  0.19686580385E+02 -0.24783984736E+02 -0.19556003283E+02  0.37205437923E+02  0.00000000000E+00 0.  1.
         11    1    3    3    0    0 -0.22962059781E+02  0.64315510059E+02  0.51804891653E+01  0.68487798122E+02  0.00000000000E+00 0. -1.
</event>
<event>
 8    1  0.2442740E-005  0.1623758E+03  0.7561462E-02  0.1186040E+00
         -1   -1    0    0    0  501 -0.00000000000E+00  0.00000000000E+00  0.13984363433E+03  0.13984363433E+03  0.00000000000E+00 0.  1.
          1   -1    0    0  501    0  0.00000000000E+00 -0.00000000000E+00 -0.19517264122E+03  0.19517264122E+03  0.00000000000E+00 0. -1.
         23    2    1    2    0    0 -0.10349444348E+03  0.69281970287E+02  0.44739071291E+01  0.14864102213E+03  0.81012630971E+02 0.  0.
         23    2    1    2    0    0  0.10349444348E+03 -0.69281970287E+02 -0.59802914017E+02  0.18637525342E+03  0.12509298671E+03 0.  0.
          5    1    4    4  502    0  0.78690208972E+02  0.21739496781E+02 -0.33539378115E+02  0.88357891514E+02  0.41800000000E+01 0. -1.
         -5    1    4    4    0  502  0.24804234503E+02 -0.91021467068E+02 -0.26263535903E+02  0.98017361904E+02  0.41800000000E+01 0. -1.
        -11    1    3    3    0    0 -0.44810617599E+02 -0.13771978410E+02  0.14872927328E+01  0.46902781140E+02  0.00000000000E+00 0.  1.
         11    1    3    3    0    0 -0.58683825876E+02  0.83053948697E+02  0.29866143963E+01  0.10173824099E+03  0.00000000000E+00 0. -1.
</event>
<event>
 8    1  0.2184156E-005  0.9880222E+02  0.7561462E-02  0.1282835E+00
         -1   -1    0    0    0  501 -0.00000000000E+00  0.00000000000E+00  0.19763689252E+03  0.19763689252E+03  0.00000000000E+00 0.  1.
          1   -1    0    0  501    0  0.00000000000E+00 -0.00000000000E+00 -0.70278631351E+02  0.70278631351E+02  0.00000000000E+00 0. -1.
         23    2    1    2    0    0  0.43931033690E+02  0.12028024201E+02  0.58928542738E+02  0.11822528509E+03  0.91815226395E+02 0.  0.
         23    2    1    2    0    0 -0.43931033690E+02 -0.12028024201E+02  0.68429718432E+02  0.14969023878E+03  0.12509968879E+03 0.  0.
          5    1    4    4  502    0 -0.67406878417E+02  0.24433451206E+01  0.91320499408E+02  0.11360705614E+03  0.41800000000E+01 0.  1.
         -5    1    4    4    0  502  0.23475844727E+02 -0.14471369322E+02 -0.22890780977E+02  0.36083182640E+02  0.41800000000E+01 0.  1.
        -11    1    3    3    0    0  0.67704074325E+02  0.28238670612E+02  0.46699758130E+02  0.86960517522E+02  0.00000000000E+00 0.  1.
         11    1    3    3    0    0 -0.23773040635E+02 -0.16210646411E+02  0.12228784607E+02  0.31264767568E+02  0.00000000000E+00 0. -1.
</event>
<event>
 8    1  0.2184156E-005  0.1793254E+03  0.7561462E-02  0.1168458E+00
         -2   -1    0    0    0  501 -0.00000000000E+00  0.00000000000E+00  0.52002741987E+03  0.52002741987E+03  0.00000000000E+00 0.  1.
          2   -1    0    0  501    0  0.00000000000E+00 -0.00000000000E+00 -0.70635807784E+02  0.70635807784E+02  0.00000000000E+00 0. -1.
         23    2    1    2    0    0  0.15359477958E+03  0.18078652967E+02  0.15370238071E+03  0.23430197370E+03  0.85760124976E+02 0.  0.
         23    2    1    2    0    0 -0.15359477958E+03 -0.18078652967E+02  0.29568923137E+03  0.35636125395E+03  0.12507209025E+03 0.  0.
          5    1    4    4  502    0 -0.11823413188E+02  0.40647146397E+02  0.41587949337E+02  0.59489608670E+02  0.41800000000E+01 0.  1.
         -5    1    4    4    0  502 -0.14177136639E+03 -0.58725799364E+02  0.25410128204E+03  0.29687164528E+03  0.41800000000E+01 0.  1.
        -11    1    3    3    0    0  0.13935423748E+03 -0.29798339854E+00  0.15798410278E+03  0.21066245282E+03  0.00000000000E+00 0.  1.
         11    1    3    3    0    0  0.14240542105E+02  0.18376636366E+02 -0.42817220700E+01  0.23639520880E+02  0.00000000000E+00 0. -1.
</event>
<event>
 8    1  0.2184156E-005  0.1623416E+03  0.7561462E-02  0.1186078E+00
          2   -1    0    0  501    0  0.00000000000E+00  0.00000000000E+00  0.53440188930E+03  0.53440188930E+03  0.00000000000E+00 0.  1.
         -2   -1    0    0    0  501 -0.00000000000E+00 -0.00000000000E+00 -0.56892231865E+02  0.56892231865E+02  0.00000000000E+00 0. -1.
         23    2    1    2    0    0 -0.13241889604E+03 -0.33801458423E+02  0.22367922275E+03  0.27704121904E+03  0.89677978012E+02 0.  0.
         23    2    1    2    0    0  0.13241889604E+03  0.33801458423E+02  0.25383043469E+03  0.31425290212E+03  0.12509074426E+03 0.  0.
          5    1    4    4  502    0  0.93211780143E+02 -0.23136514722E+02  0.73285437920E+02  0.12087994905E+03  0.41800000000E+01 0. -1.
         -5    1    4    4    0  502  0.39207115893E+02  0.56937973146E+02  0.18054499677E+03  0.19337295308E+03  0.41800000000E+01 0. -1.
        -11    1    3    3    0    0 -0.10268974517E+03  0.13349293319E+02  0.17343592169E+03  0.20199853051E+03  0.00000000000E+00 0.  1.
         11    1    3    3    0    0 -0.29729150867E+02 -0.47150751743E+02  0.50243301057E+02  0.75042688533E+02  0.00000000000E+00 0. -1.
</event>
<event>
 8    1  0.2184156E-005  0.1275610E+03  0.7561462E-02  0.1231120E+00
         -4   -1    0    0    0  501 -0.00000000000E+00  0.00000000000E+00  0.26326579896E+02  0.26326579896E+02  0.00000000000E+00 0. -1.
          4   -1    0    0  501    0  0.00000000000E+00 -0.00000000000E+00 -0.66734209628E+03  0.66734209628E+03  0.00000000000E+00 0.  1.
         23    2    1    2    0    0 -0.28553271626E+02  0.69727210293E+02 -0.32092475135E+03  0.34184251156E+03  0.90478911921E+02 0.  0.
         23    2    1    2    0    0  0.28553271626E+02 -0.69727210293E+02 -0.32009076503E+03  0.35182616462E+03  0.12508548707E+03 0.  0.
          5    1    4    4  502    0  0.45904228156E+02  0.21903456920E+02 -0.13934364381E+03  0.14839502369E+03  0.41800000000E+01 0.  1.
         -5    1    4    4    0  502 -0.17350956530E+02 -0.91630667213E+02 -0.18074712123E+03  0.20343114092E+03  0.41800000000E+01 0.  1.
        -11    1    3    3    0    0  0.13200761516E+02  0.67654407909E+02 -0.25175314909E+03  0.26101920828E+03  0.00000000000E+00 0.  1.
         11    1    3    3    0    0 -0.41754033142E+02  0.20728023839E+01 -0.69171602259E+02  0.80823303276E+02  0.00000000000E+00 0. -1.
</event>
<event>
 8    1  0.2184156E-005  0.9182211E+02  0.7561462E-02  0.1298498E+00
          1   -1    0    0  501    0  0.00000000000E+00  0.00000000000E+00  0.30164012784E+03  0.30164012784E+03  0.00000000000E+00 0. -1.
         -1   -1    0    0    0  501 -0.00000000000E+00 -0.00000000000E+00 -0.41128883867E+02  0.41128883867E+02  0.00000000000E+00 0.  1.
         23    2    1    2    0    0 -0.14043032627E+02  0.19693947174E+02  0.11343297275E+03  0.14818320820E+03  0.92228875988E+02 0.  0.
         23    2    1    2    0    0  0.14043032627E+02 -0.19693947174E+02  0.14707827122E+03  0.19458580350E+03  0.12508620523E+03 0.  0.
          5    1    4    4  502    0  0.64701290361E+02  0.38990696088E+01  0.48025716057E+02  0.80779957421E+02  0.41800000000E+01 0. -1.
         -5    1    4    4    0  502 -0.50658257733E+02 -0.23593016783E+02  0.99052555165E+02  0.11380584608E+03  0.41800000000E+01 0. -1.
        -11    1    3    3    0    0  0.26104454056E+00  0.38790999642E+02  0.73905685227E+01  0.39489622695E+02  0.00000000000E+00 0.  1.
         11    1    3    3    0    0 -0.14304077168E+02 -0.19097052468E+02  0.10604240423E+03  0.10869358551E+03  0.00000000000E+00 0. -1.
</event>
<event>
 8    1  0.2184156E-005  0.7020248E+02  0.7561462E-02  0.1359406E+00
          3   -1    0    0  501    0  0.00000000000E+00  0.00000000000E+00  0.37997159834E+03  0.37997159834E+03  0.00000000000E+00 0. -1.
         -3   -1    0    0    0  501 -0.00000000000E+00 -0.00000000000E+00 -0.37974493381E+02  0.37974493381E+02  0.00000000000E+00 0.  1.
         23    2    1    2    0    0 -0.42657845111E+02 -0.21636926406E+01  0.13539252659E+03  0.17267663467E+03  0.98294000779E+02 0.  0.
         23    2    1    2    0    0  0.42657845111E+02  0.21636926406E+01  0.20660457836E+03  0.24526945705E+03  0.12508909402E+03 0.  0.
          5    1    4    4  502    0 -0.15563146412E+02  0.56594884115E+01  0.18037309341E+03  0.18117992869E+03  0.41800000000E+01 0.  1.
         -5    1    4    4    0  502  0.58220991523E+02 -0.34957957709E+01  0.26231484960E+02  0.64089528359E+02  0.41800000000E+01 0.  1.
        -11    1    3    3    0    0 -0.10605787644E+00  0.17833273524E+02 -0.95988524587E+01  0.20252774165E+02  0.00000000000E+00 0.  1.
         11    1    3    3    0    0 -0.42551787235E+02 -0.19996966164E+02  0.14499137905E+03  0.15242386051E+03  0.00000000000E+00 0. -1.
</event>
<event>
 8    1  0.2184156E-005  0.8799862E+02  0.7561462E-02  0.1307772E+00
          2   -1    0    0  501    0  0.00000000000E+00  0.00000000000E+00  0.10530404709E+03  0.10530404709E+03  0.00000000000E+00 0. -1.
         -2   -1    0    0    0  501 -0.00000000000E+00 -0.00000000000E+00 -0.16687133739E+03  0.16687133739E+03  0.00000000000E+00 0.  1.
         23    2    1    2    0    0  0.31731943154E+02 -0.34194144139E+01 -0.97437159321E+02  0.13818432226E+03  0.92640694578E+02 0.  0.
         23    2    1    2    0    0 -0.31731943154E+02  0.34194144139E+01  0.35869869019E+02  0.13399106221E+03  0.12509335969E+03 0.  0.
          5    1    4    4  502    0 -0.33853048517E+02  0.34692631677E+02  0.71416626052E+02  0.86414202903E+02  0.41800000000E+01 0. -1.
         -5    1    4    4    0  502  0.21211053638E+01 -0.31273217263E+02 -0.35546757034E+02  0.47576859308E+02  0.41800000000E+01 0. -1.
        -11    1    3    3    0    0 -0.30138462497E+01  0.39999030055E+02 -0.55766051771E+02  0.68693945910E+02  0.00000000000E+00 0.  1.
         11    1    3    3    0    0  0.34745789403E+02 -0.43418444469E+02 -0.41671107549E+02  0.69490376354E+02  0.00000000000E+00 0. -1.
</event>
<event>
 8    1  0.2184156E-005  0.7531938E+02  0.7561462E-02  0.1342885E+00
          3   -1    0    0  501    0  0.00000000000E+00  0.00000000000E+00  0.10467918417E+03  0.10467918417E+03  0.00000000000E+00 0.  1.
         -3   -1    0    0    0  501 -0.00000000000E+00 -0.00000000000E+00 -0.20525147491E+03  0.20525147491E+03  0.00000000000E+00 0. -1.
         23    2    1    2    0    0  0.42226540532E+01 -0.11986671372E+02 -0.14948749049E+03  0.17501846067E+03  0.90130131844E+02 0.  0.
         23    2    1    2    0    0 -0.42226540532E+01  0.11986671372E+02  0.48915199746E+02  0.13491219841E+03  0.12508834244E+03 0.  0.
          5    1    4    4  502    0 -0.72585889548E+01 -0.32395084099E+02 -0.29534455576E+02  0.44630539472E+02  0.41800000000E+01 0.  1.
         -5    1    4    4    0  502  0.30359349016E+01  0.44381755471E+02  0.78449655322E+02  0.90281658933E+02  0.41800000000E+01 0.  1.
        -11    1    3    3    0    0 -0.89165507316E+01  0.28536356949E+02 -0.14039480852E+02  0.33029313761E+02  0.00000000000E+00 0. -1.
         11    1    3    3    0    0  0.13139204785E+02 -0.40523028321E+02 -0.13544800964E+03  0.14198914691E+03  0.00000000000E+00 0.  1.
</event>
<event>
 8    1  0.2184156E-005  0.9474168E+02  0.7561462E-02  0.1291759E+00
          1   -1    0    0  501    0  0.00000000000E+00  0.00000000000E+00  0.37858247331E+03  0.37858247331E+03  0.00000000000E+00 0. -1.
         -1   -1    0    0    0  501 -0.00000000000E+00 -0.00000000000E+00 -0.32739628481E+02  0.32739628481E+02  0.00000000000E+00 0.  1.
         23    2    1    2    0    0  0.14656445963E+02 -0.23098062874E+02  0.15932955661E+03  0.18508266999E+03  0.90118561931E+02 0.  0.
         23    2    1    2    0    0 -0.14656445963E+02  0.23098062874E+02  0.18651328822E+03  0.22623943180E+03  0.12509493156E+03 0.  0.
          5    1    4    4  502    0 -0.50828477627E+02 -0.22194587425E+02  0.39679128671E+02  0.68323052486E+02  0.41800000000E+01 0.  1.
         -5    1    4    4    0  502  0.36172031664E+02  0.45292650299E+02  0.14683415955E+03  0.15791637931E+03  0.41800000000E+01 0.  1.
        -11    1    3    3    0    0  0.19292542142E+02  0.22657643995E+02  0.14454795314E+02  0.33083411573E+02  0.00000000000E+00 0.  1.
         11    1    3    3    0    0 -0.46360961792E+01 -0.45755706869E+02  0.14487476130E+03  0.15199925842E+03  0.00000000000E+00 0. -1.
</event>
